<event>
 8    1  0.1088021E+005  0.1043930E+01  0.7957747E-01            NaN
         13   -1    0    0    0    0  0.00000000000E+00  0.00000000000E+00  0.74505805969E-08  0.10566000000E+00  0.10566000000E+00 0. -1.
     999900   -1    0    0    0    0 -0.00000000000E+00 -0.00000000000E+00 -0.74505805969E-08  0.93827000000E+00  0.93827000000E+00 0.  1.
     999902    2    1    2    0    0 -0.32395993728E-02  0.21209025972E-01  0.99366694503E-02  0.10202856521E+01  0.10200116454E+01 0.  0.
     999903    2    3    3    0    0 -0.19458692592E-01  0.28567864922E-01  0.12585910440E+00  0.13250458541E+00  0.22851419430E-01 0.  0.
         14    1    1    2    0    0  0.32395993728E-02 -0.21209025972E-01 -0.99366694503E-02  0.23644347878E-01  0.00000000000E+00 0.  1.
     999901    1    3    3    0    0  0.16219093219E-01 -0.73588389494E-02 -0.11592243495E+00  0.88778106672E+00  0.88000000000E+00 0.  1.
        -11    1    4    4    0    0 -0.85819619360E-02  0.10171529917E-01  0.88210020180E-01  0.89209746511E-01  0.51100000000E-03 0. -1.
         11    1    4    4    0    0 -0.10876730656E-01  0.18396335005E-01  0.37649084219E-01  0.43294838895E-01  0.51100000000E-03 0.  1.
</event>
<event>
 8    1  0.1088021E+005  0.1043930E+01  0.7957747E-01            NaN
         13   -1    0    0    0    0  0.00000000000E+00  0.00000000000E+00  0.74505805969E-08  0.10566000000E+00  0.10566000000E+00 0. -1.
     999900   -1    0    0    0    0 -0.00000000000E+00 -0.00000000000E+00 -0.74505805969E-08  0.93827000000E+00  0.93827000000E+00 0.  1.
     999902    2    1    2    0    0  0.87039816279E-03 -0.24813756780E-01  0.52554035464E-02  0.10185508868E+01  0.10182346536E+01 0.  0.
     999903    2    3    3    0    0 -0.12348080581E+00  0.74060139974E-02 -0.30891053369E-01  0.12849026985E+00  0.15910179816E-01 0.  0.
         14    1    1    2    0    0 -0.87039816279E-03  0.24813756780E-01 -0.52554035464E-02  0.25379113163E-01  0.00000000000E+00 0. -1.
     999901    1    3    3    0    0  0.12435120397E+00 -0.32219770777E-01  0.36146456916E-01  0.89006061698E+00  0.88000000000E+00 0.  1.
        -11    1    4    4    0    0 -0.12117160267E-01 -0.22142429960E-02 -0.70314028911E-02  0.14192610493E-01  0.51100000000E-03 0. -1.
         11    1    4    4    0    0 -0.11136364554E+00  0.96202569934E-02 -0.23859650478E-01  0.11429765936E+00  0.51100000000E-03 0.  1.
</event>
<event>
 8    1  0.1088021E+005  0.1043930E+01  0.7957747E-01            NaN
         13   -1    0    0    0    0  0.00000000000E+00  0.00000000000E+00  0.74505805969E-08  0.10566000000E+00  0.10566000000E+00 0. -1.
     999900   -1    0    0    0    0 -0.00000000000E+00 -0.00000000000E+00 -0.74505805969E-08  0.93827000000E+00  0.93827000000E+00 0. -1.
     999902    2    1    2    0    0  0.82732412585E-02  0.20526801605E-01 -0.82223144269E-02  0.10203206256E+01  0.10200474383E+01 0.  0.
     999903    2    3    3    0    0  0.98060393315E-01  0.74128234341E-01  0.45498806418E-01  0.13250262337E+00  0.19389892975E-01 0.  0.
         14    1    1    2    0    0 -0.82732412585E-02 -0.20526801605E-01  0.82223144269E-02  0.23609374401E-01  0.00000000000E+00 0. -1.
     999901    1    3    3    0    0 -0.89787152057E-01 -0.53601432736E-01 -0.53721120844E-01  0.88781800223E+00  0.88000000000E+00 0. -1.
        -11    1    4    4    0    0  0.51039312726E-01  0.50119714215E-01  0.28958909821E-01  0.77174327179E-01  0.51100000000E-03 0. -1.
         11    1    4    4    0    0  0.47021080590E-01  0.24008520126E-01  0.16539896597E-01  0.55328296186E-01  0.51100000000E-03 0.  1.
</event>
<event>
 8    1  0.1088021E+005  0.1043930E+01  0.7957747E-01            NaN
         13   -1    0    0    0    0  0.00000000000E+00  0.00000000000E+00  0.74505805969E-08  0.10566000000E+00  0.10566000000E+00 0. -1.
     999900   -1    0    0    0    0 -0.00000000000E+00 -0.00000000000E+00 -0.74505805969E-08  0.93827000000E+00  0.93827000000E+00 0. -1.
     999902    2    1    2    0    0  0.21023535470E-01  0.11032281120E-01 -0.24478012880E-02  0.10200617784E+01  0.10197824963E+01 0.  0.
     999903    2    3    3    0    0 -0.50222647903E-01  0.61612019433E-01  0.10110237468E+00  0.12969277204E+00  0.16738269076E-01 0.  0.
         14    1    1    2    0    0 -0.21023535470E-01 -0.11032281120E-01  0.24478012880E-02  0.23868221583E-01  0.00000000000E+00 0.  1.
     999901    1    3    3    0    0  0.71246183373E-01 -0.50579738313E-01 -0.10355017597E+00  0.89036900638E+00  0.88000000000E+00 0. -1.
        -11    1    4    4    0    0 -0.22229455278E-01  0.15339518697E-01  0.37251830976E-01  0.46015318622E-01  0.51100000000E-03 0.  1.
         11    1    4    4    0    0 -0.27993192625E-01  0.46272500736E-01  0.63850543709E-01  0.83677453419E-01  0.51100000000E-03 0. -1.
</event>
<event>
 8    1  0.1088021E+005  0.1043930E+01  0.7957747E-01            NaN
         13   -1    0    0    0    0  0.00000000000E+00  0.00000000000E+00  0.74505805969E-08  0.10566000000E+00  0.10566000000E+00 0.  1.
     999900   -1    0    0    0    0 -0.00000000000E+00 -0.00000000000E+00 -0.74505805969E-08  0.93827000000E+00  0.93827000000E+00 0.  1.
     999902    2    1    2    0    0  0.20109265077E-01 -0.12668767989E-01 -0.50393874187E-02  0.10196344109E+01  0.10193449152E+01 0.  0.
     999903    2    3    3    0    0  0.12713057357E+00 -0.27677516934E-01  0.17482380902E-01  0.13273754369E+00  0.19631458998E-01 0.  0.
         14    1    1    2    0    0 -0.20109265077E-01  0.12668767989E-01  0.50393874187E-02  0.24295589103E-01  0.00000000000E+00 0.  1.
     999901    1    3    3    0    0 -0.10702130849E+00  0.15008748945E-01 -0.22521768321E-01  0.88689686721E+00  0.88000000000E+00 0. -1.
        -11    1    4    4    0    0  0.94734711164E-01 -0.27816219172E-01  0.17846708351E-01  0.10033530619E+00  0.51100000000E-03 0. -1.
         11    1    4    4    0    0  0.32395862406E-01  0.13870223870E-03 -0.36432744873E-03  0.32402237497E-01  0.51100000000E-03 0.  1.
</event>
<event>
 8    1  0.1088021E+005  0.1043930E+01  0.7957747E-01            NaN
         13   -1    0    0    0    0  0.00000000000E+00  0.00000000000E+00  0.74505805969E-08  0.10566000000E+00  0.10566000000E+00 0.  1.
     999900   -1    0    0    0    0 -0.00000000000E+00 -0.00000000000E+00 -0.74505805969E-08  0.93827000000E+00  0.93827000000E+00 0. -1.
     999902    2    1    2    0    0  0.12115169356E-01  0.18542110629E-01  0.13786927581E-01  0.10178404127E+01  0.10175059897E+01 0.  0.
     999903    2    3    3    0    0  0.11246297254E+00 -0.51909768910E-01  0.30841873120E-01  0.12917623532E+00  0.19817525879E-01 0.  0.
         14    1    1    2    0    0 -0.12115169356E-01 -0.18542110629E-01 -0.13786927581E-01  0.26089587334E-01  0.00000000000E+00 0. -1.
     999901    1    3    3    0    0 -0.10034780319E+00  0.70451879539E-01 -0.17054945538E-01  0.88866417735E+00  0.88000000000E+00 0. -1.
        -11    1    4    4    0    0  0.37671179078E-01 -0.24495254784E-01  0.18365204414E-01  0.48545618692E-01  0.51100000000E-03 0.  1.
         11    1    4    4    0    0  0.74791793465E-01 -0.27414514126E-01  0.12476668706E-01  0.80630616626E-01  0.51100000000E-03 0. -1.
</event>
<event>
 8    1  0.1088021E+005  0.1043930E+01  0.7957747E-01            NaN
         13   -1    0    0    0    0  0.00000000000E+00  0.00000000000E+00  0.74505805969E-08  0.10566000000E+00  0.10566000000E+00 0.  1.
     999900   -1    0    0    0    0 -0.00000000000E+00 -0.00000000000E+00 -0.74505805969E-08  0.93827000000E+00  0.93827000000E+00 0.  1.
     999902    2    1    2    0    0  0.16478129649E-01  0.31483556545E-02 -0.17113456119E-01  0.10199652075E+01  0.10196836339E+01 0.  0.
     999903    2    3    3    0    0 -0.79756818414E-01  0.48424273147E-01  0.85676051349E-01  0.12762180006E+00  0.15520237155E-01 0.  0.
         14    1    1    2    0    0 -0.16478129649E-01 -0.31483556545E-02  0.17113456119E-01  0.23964792517E-01  0.00000000000E+00 0.  1.
     999901    1    3    3    0    0  0.96234948063E-01 -0.45275917493E-01 -0.10278950747E+00  0.89234340743E+00  0.88000000000E+00 0. -1.
        -11    1    4    4    0    0 -0.40482286470E-01  0.33578010350E-01  0.47753531525E-01  0.71041953739E-01  0.51100000000E-03 0.  1.
         11    1    4    4    0    0 -0.39274531944E-01  0.14846262798E-01  0.37922519824E-01  0.56579846317E-01  0.51100000000E-03 0. -1.
</event>
<event>
 8    1  0.1088021E+005  0.1043930E+01  0.7957747E-01            NaN
         13   -1    0    0    0    0  0.00000000000E+00  0.00000000000E+00  0.74505805969E-08  0.10566000000E+00  0.10566000000E+00 0.  1.
     999900   -1    0    0    0    0 -0.00000000000E+00 -0.00000000000E+00 -0.74505805969E-08  0.93827000000E+00  0.93827000000E+00 0.  1.
     999902    2    1    2    0    0  0.92811891639E-02 -0.16380742035E-01 -0.15338228009E-01  0.10196456342E+01  0.10193564092E+01 0.  0.
     999903    2    3    3    0    0  0.12712920856E-01  0.96854273804E-01  0.79206383131E-01  0.12736057380E+00  0.20117055410E-01 0.  0.
         14    1    1    2    0    0 -0.92811891639E-02  0.16380742035E-01  0.15338228009E-01  0.24284365760E-01  0.00000000000E+00 0.  1.
     999901    1    3    3    0    0 -0.34317316921E-02 -0.11323501584E+00 -0.94544611140E-01  0.89228506044E+00  0.88000000000E+00 0. -1.
        -11    1    4    4    0    0  0.90114084305E-02  0.60667924992E-01  0.36964926467E-01  0.71613333357E-01  0.51100000000E-03 0.  1.
         11    1    4    4    0    0  0.37015124255E-02  0.36186348811E-01  0.42241456665E-01  0.55747240440E-01  0.51100000000E-03 0. -1.
</event>
<event>
 8    1  0.1088021E+005  0.1043930E+01  0.7957747E-01            NaN
         13   -1    0    0    0    0  0.00000000000E+00  0.00000000000E+00  0.74505805969E-08  0.10566000000E+00  0.10566000000E+00 0. -1.
     999900   -1    0    0    0    0 -0.00000000000E+00 -0.00000000000E+00 -0.74505805969E-08  0.93827000000E+00  0.93827000000E+00 0. -1.
     999902    2    1    2    0    0 -0.27887601331E-02 -0.23408346015E-01 -0.21693822967E-02  0.10202565113E+01  0.10199818208E+01 0.  0.
     999903    2    3    3    0    0 -0.82437899126E-02  0.12027769040E+00 -0.37532126263E-01  0.12788553574E+00  0.20282181107E-01 0.  0.
         14    1    1    2    0    0  0.27887601331E-02  0.23408346015E-01  0.21693822967E-02  0.23673488669E-01  0.00000000000E+00 0. -1.
     999901    1    3    3    0    0  0.54550297795E-02 -0.14368603641E+00  0.35362743966E-01  0.89237097559E+00  0.88000000000E+00 0. -1.
        -11    1    4    4    0    0  0.67700195235E-03  0.90339685519E-01 -0.21947884369E-01  0.92971435724E-01  0.51100000000E-03 0.  1.
         11    1    4    4    0    0 -0.89207918649E-02  0.29938004881E-01 -0.15584241894E-01  0.34914100019E-01  0.51100000000E-03 0. -1.
</event>
<event>
 8    1  0.1088021E+005  0.1043930E+01  0.7957747E-01            NaN
         13   -1    0    0    0    0  0.00000000000E+00  0.00000000000E+00  0.74505805969E-08  0.10566000000E+00  0.10566000000E+00 0. -1.
     999900   -1    0    0    0    0 -0.00000000000E+00 -0.00000000000E+00 -0.74505805969E-08  0.93827000000E+00  0.93827000000E+00 0. -1.
     999902    2    1    2    0    0  0.11382151857E-01 -0.14776629082E-01 -0.14402435742E-01  0.10203645103E+01  0.10200923496E+01 0.  0.
     999903    2    3    3    0    0  0.75454478455E-01  0.74009255555E-01  0.72096664159E-01  0.12937052010E+00  0.19184740331E-01 0.  0.
         14    1    1    2    0    0 -0.11382151857E-01  0.14776629082E-01  0.14402435742E-01  0.23565489666E-01  0.00000000000E+00 0. -1.
     999901    1    3    3    0    0 -0.64072326598E-01 -0.88785884637E-01 -0.86499099901E-01  0.89099399023E+00  0.88000000000E+00 0.  1.
        -11    1    4    4    0    0  0.53335737387E-01  0.42738459719E-01  0.38664692766E-01  0.78527042536E-01  0.51100000000E-03 0. -1.
         11    1    4    4    0    0  0.22118741068E-01  0.31270795837E-01  0.33431971393E-01  0.50843477565E-01  0.51100000000E-03 0.  1.
</event>
<event>
 8    1  0.1088021E+005  0.1043930E+01  0.7957747E-01            NaN
         13   -1    0    0    0    0  0.00000000000E+00  0.00000000000E+00  0.74505805969E-08  0.10566000000E+00  0.10566000000E+00 0. -1.
     999900   -1    0    0    0    0 -0.00000000000E+00 -0.00000000000E+00 -0.74505805969E-08  0.93827000000E+00  0.93827000000E+00 0.  1.
     999902    2    1    2    0    0 -0.78266541515E-02 -0.14980307910E-01 -0.12846818253E-01  0.10227001418E+01  0.10224797666E+01 0.  0.
     999903    2    3    3    0    0 -0.63249862532E-01  0.26138818086E-01 -0.11363478221E+00  0.13426290246E+00  0.20733555591E-01 0.  0.
         14    1    1    2    0    0  0.78266541515E-02  0.14980307910E-01  0.12846818253E-01  0.21229858207E-01  0.00000000000E+00 0. -1.
     999901    1    3    3    0    0  0.55423208380E-01 -0.41119125995E-01  0.10078796396E+00  0.88843723933E+00  0.88000000000E+00 0. -1.
        -11    1    4    4    0    0 -0.22897052459E-01  0.20435683289E-01 -0.51512752767E-01  0.59964297557E-01  0.51100000000E-03 0. -1.
         11    1    4    4    0    0 -0.40352810073E-01  0.57031347966E-02 -0.62122029447E-01  0.74298604906E-01  0.51100000000E-03 0.  1.
</event>
<event>
 8    1  0.1088021E+005  0.1043930E+01  0.7957747E-01            NaN
         13   -1    0    0    0    0  0.00000000000E+00  0.00000000000E+00  0.74505805969E-08  0.10566000000E+00  0.10566000000E+00 0.  1.
     999900   -1    0    0    0    0 -0.00000000000E+00 -0.00000000000E+00 -0.74505805969E-08  0.93827000000E+00  0.93827000000E+00 0. -1.
     999902    2    1    2    0    0  0.13794659106E-01 -0.15369094867E-01  0.11178596155E-01  0.10204467568E+01  0.10201765146E+01 0.  0.
     999903    2    3    3    0    0  0.82427626732E-01  0.54935494334E-01 -0.81963484483E-01  0.13009364336E+00  0.19852482683E-01 0.  0.
         14    1    1    2    0    0 -0.13794659106E-01  0.15369094867E-01 -0.11178596155E-01  0.23483243150E-01  0.00000000000E+00 0.  1.
     999901    1    3    3    0    0 -0.68632967627E-01 -0.70304589201E-01  0.93142080638E-01  0.89035311349E+00  0.88000000000E+00 0.  1.
        -11    1    4    4    0    0  0.57314166536E-01  0.35651816942E-01 -0.43634910252E-01  0.80375569987E-01  0.51100000000E-03 0.  1.
         11    1    4    4    0    0  0.25113460197E-01  0.19283677392E-01 -0.38328574231E-01  0.49718073377E-01  0.51100000000E-03 0. -1.
</event>
<event>
 8    1  0.1088021E+005  0.1043930E+01  0.7957747E-01            NaN
         13   -1    0    0    0    0  0.00000000000E+00  0.00000000000E+00  0.74505805969E-08  0.10566000000E+00  0.10566000000E+00 0.  1.
     999900   -1    0    0    0    0 -0.00000000000E+00 -0.00000000000E+00 -0.74505805969E-08  0.93827000000E+00  0.93827000000E+00 0. -1.
     999902    2    1    2    0    0 -0.54870152231E-02  0.12230651810E-01 -0.17152533777E-01  0.10221606271E+01  0.10219287852E+01 0.  0.
     999903    2    3    3    0    0  0.52763675630E-01 -0.90718407300E-01 -0.77651468254E-01  0.13218772147E+00  0.20736641384E-01 0.  0.
         14    1    1    2    0    0  0.54870152231E-02 -0.12230651810E-01  0.17152533777E-01  0.21769372860E-01  0.00000000000E+00 0.  1.
     999901    1    3    3    0    0 -0.58250690853E-01  0.10294905911E+00  0.60498934477E-01  0.88997290567E+00  0.88000000000E+00 0.  1.
        -11    1    4    4    0    0  0.29685207160E-01 -0.45705917321E-01 -0.27870771760E-01  0.61215058946E-01  0.51100000000E-03 0.  1.
         11    1    4    4    0    0  0.23078468470E-01 -0.45012489979E-01 -0.49780696494E-01  0.70972662522E-01  0.51100000000E-03 0. -1.
</event>
<event>
 8    1  0.1088021E+005  0.1043930E+01  0.7957747E-01            NaN
         13   -1    0    0    0    0  0.00000000000E+00  0.00000000000E+00  0.74505805969E-08  0.10566000000E+00  0.10566000000E+00 0. -1.
     999900   -1    0    0    0    0 -0.00000000000E+00 -0.00000000000E+00 -0.74505805969E-08  0.93827000000E+00  0.93827000000E+00 0.  1.
     999902    2    1    2    0    0  0.17367785880E-01  0.16327202688E-01 -0.51948565268E-02  0.10195331955E+01  0.10192412534E+01 0.  0.
     999903    2    3    3    0    0 -0.10262894056E+00  0.13566691993E-01  0.70419591531E-01  0.12817222514E+00  0.27430746516E-01 0.  0.
         14    1    1    2    0    0 -0.17367785880E-01 -0.16327202688E-01  0.51948565268E-02  0.24396804469E-01  0.00000000000E+00 0. -1.
     999901    1    3    3    0    0  0.11999672644E+00  0.27605106952E-02 -0.75614448058E-01  0.89136097039E+00  0.88000000000E+00 0. -1.
        -11    1    4    4    0    0 -0.34838472770E-01 -0.14723683138E-02  0.10408117465E-01  0.36393365928E-01  0.51100000000E-03 0.  1.
         11    1    4    4    0    0 -0.67790467791E-01  0.15039060307E-01  0.60011474066E-01  0.91778859215E-01  0.51100000000E-03 0. -1.
</event>
<event>
 8    1  0.1088021E+005  0.1043930E+01  0.7957747E-01            NaN
         13   -1    0    0    0    0  0.00000000000E+00  0.00000000000E+00  0.74505805969E-08  0.10566000000E+00  0.10566000000E+00 0. -1.
     999900   -1    0    0    0    0 -0.00000000000E+00 -0.00000000000E+00 -0.74505805969E-08  0.93827000000E+00  0.93827000000E+00 0. -1.
     999902    2    1    2    0    0 -0.59980213445E-03  0.88754668117E-02  0.22304313559E-01  0.10199171685E+01  0.10196344514E+01 0.  0.
     999903    2    3    3    0    0  0.10319248763E+00 -0.55886500911E-01  0.54412162245E-01  0.13087393792E+00  0.19882498281E-01 0.  0.
         14    1    1    2    0    0  0.59980213445E-03 -0.88754668117E-02 -0.22304313559E-01  0.24012831509E-01  0.00000000000E+00 0.  1.
     999901    1    3    3    0    0 -0.10379228977E+00  0.64761967722E-01 -0.32107848686E-01  0.88904323057E+00  0.88000000000E+00 0.  1.
        -11    1    4    4    0    0  0.35738646833E-01 -0.28575992229E-01  0.26836945033E-01  0.53050173883E-01  0.51100000000E-03 0.  1.
         11    1    4    4    0    0  0.67453840802E-01 -0.27310508681E-01  0.27575217212E-01  0.77823764035E-01  0.51100000000E-03 0. -1.
</event>
<event>
 8    1  0.1088021E+005  0.1043930E+01  0.7957747E-01            NaN
         13   -1    0    0    0    0  0.00000000000E+00  0.00000000000E+00  0.74505805969E-08  0.10566000000E+00  0.10566000000E+00 0. -1.
     999900   -1    0    0    0    0 -0.00000000000E+00 -0.00000000000E+00 -0.74505805969E-08  0.93827000000E+00  0.93827000000E+00 0.  1.
     999902    2    1    2    0    0  0.13949890598E-01 -0.12454777136E-01 -0.13072523779E-01  0.10211130809E+01  0.10208581254E+01 0.  0.
     999903    2    3    3    0    0  0.10794844771E+00  0.50495919182E-01  0.51690845441E-01  0.13151046570E+00  0.20502533217E-01 0.  0.
         14    1    1    2    0    0 -0.13949890598E-01  0.12454777136E-01  0.13072523779E-01  0.22816919143E-01  0.00000000000E+00 0. -1.
     999901    1    3    3    0    0 -0.93998557113E-01 -0.62950696317E-01 -0.64763369220E-01  0.88960261516E+00  0.88000000000E+00 0.  1.
        -11    1    4    4    0    0  0.64442406576E-01  0.40942488363E-01  0.31228804891E-01  0.82490063005E-01  0.51100000000E-03 0. -1.
         11    1    4    4    0    0  0.43506041135E-01  0.95534308189E-02  0.20462040550E-01  0.49020402693E-01  0.51100000000E-03 0.  1.
</event>
<event>
 8    1  0.1088021E+005  0.1043930E+01  0.7957747E-01            NaN
         13   -1    0    0    0    0  0.00000000000E+00  0.00000000000E+00  0.74505805969E-08  0.10566000000E+00  0.10566000000E+00 0. -1.
     999900   -1    0    0    0    0 -0.00000000000E+00 -0.00000000000E+00 -0.74505805969E-08  0.93827000000E+00  0.93827000000E+00 0.  1.
     999902    2    1    2    0    0  0.13158791532E-01 -0.16660401456E-01  0.10490704738E-01  0.10202492556E+01  0.10199743947E+01 0.  0.
     999903    2    3    3    0    0  0.12156190023E+00  0.46245287999E-01  0.31111270082E-02  0.13133822632E+00  0.18003564402E-01 0.  0.
         14    1    1    2    0    0 -0.13158791532E-01  0.16660401456E-01 -0.10490704738E-01  0.23680744439E-01  0.00000000000E+00 0.  1.
     999901    1    3    3    0    0 -0.10840310870E+00 -0.62905689455E-01  0.73795777303E-02  0.88891102924E+00  0.88000000000E+00 0. -1.
        -11    1    4    4    0    0  0.59367347674E-01  0.14482433313E-01 -0.33508168981E-02  0.61202221687E-01  0.51100000000E-03 0. -1.
         11    1    4    4    0    0  0.62194552558E-01  0.31762854686E-01  0.64619439063E-02  0.70136004632E-01  0.51100000000E-03 0.  1.
</event>
<event>
 8    1  0.1088021E+005  0.1043930E+01  0.7957747E-01            NaN
         13   -1    0    0    0    0  0.00000000000E+00  0.00000000000E+00  0.74505805969E-08  0.10566000000E+00  0.10566000000E+00 0.  1.
     999900   -1    0    0    0    0 -0.00000000000E+00 -0.00000000000E+00 -0.74505805969E-08  0.93827000000E+00  0.93827000000E+00 0. -1.
     999902    2    1    2    0    0 -0.36574583105E-02  0.22966891419E-01 -0.64177038718E-02  0.10198044528E+01  0.10195190435E+01 0.  0.
     999903    2    3    3    0    0  0.32856986990E-01 -0.11745506866E+00 -0.31338381624E-01  0.12757540614E+00  0.20447868863E-01 0.  0.
         14    1    1    2    0    0  0.36574583105E-02 -0.22966891419E-01  0.64177038718E-02  0.24125547160E-01  0.00000000000E+00 0.  1.
     999901    1    3    3    0    0 -0.36514445300E-01  0.14042196008E+00  0.24920677752E-01  0.89222904670E+00  0.88000000000E+00 0.  1.
        -11    1    4    4    0    0  0.46794125635E-02 -0.54360193786E-01 -0.13810958668E-01  0.56284378567E-01  0.51100000000E-03 0. -1.
         11    1    4    4    0    0  0.28177574426E-01 -0.63094874878E-01 -0.17527422956E-01  0.71291027577E-01  0.51100000000E-03 0.  1.
</event>
<event>
 8    1  0.1088021E+005  0.1043930E+01  0.7957747E-01            NaN
         13   -1    0    0    0    0  0.00000000000E+00  0.00000000000E+00  0.74505805969E-08  0.10566000000E+00  0.10566000000E+00 0.  1.
     999900   -1    0    0    0    0 -0.00000000000E+00 -0.00000000000E+00 -0.74505805969E-08  0.93827000000E+00  0.93827000000E+00 0.  1.
     999902    2    1    2    0    0  0.12406285278E-01 -0.18224011945E-01  0.10388391695E-01  0.10195589268E+01  0.10192676077E+01 0.  0.
     999903    2    3    3    0    0  0.86786948019E-01  0.23069308062E-01 -0.91357528181E-01  0.12962080904E+00  0.19778494906E-01 0.  0.
         14    1    1    2    0    0 -0.12406285278E-01  0.18224011945E-01 -0.10388391695E-01  0.24371073176E-01  0.00000000000E+00 0. -1.
     999901    1    3    3    0    0 -0.74380662741E-01 -0.41293320007E-01  0.10174591988E+00  0.88993811778E+00  0.88000000000E+00 0. -1.
        -11    1    4    4    0    0  0.17386318204E-01 -0.96536278430E-03 -0.26051037440E-01  0.31339011770E-01  0.51100000000E-03 0.  1.
         11    1    4    4    0    0  0.69400629815E-01  0.24034670846E-01 -0.65306490741E-01  0.98281797273E-01  0.51100000000E-03 0. -1.
</event>
<event>
 8    1  0.1088021E+005  0.1043930E+01  0.7957747E-01            NaN
         13   -1    0    0    0    0  0.00000000000E+00  0.00000000000E+00  0.74505805969E-08  0.10566000000E+00  0.10566000000E+00 0. -1.
     999900   -1    0    0    0    0 -0.00000000000E+00 -0.00000000000E+00 -0.74505805969E-08  0.93827000000E+00  0.93827000000E+00 0.  1.
     999902    2    1    2    0    0  0.20423218003E-01 -0.10537054396E-01 -0.61711140119E-02  0.10201346224E+01  0.10198570624E+01 0.  0.
     999903    2    3    3    0    0  0.72899337478E-01 -0.89185087556E-01 -0.63854319256E-01  0.13319234216E+00  0.19862846619E-01 0.  0.
         14    1    1    2    0    0 -0.20423218003E-01  0.10537054396E-01  0.61711140119E-02  0.23795377641E-01  0.00000000000E+00 0. -1.
     999901    1    3    3    0    0 -0.52476119475E-01  0.78648033160E-01  0.57683205244E-01  0.88694228020E+00  0.88000000000E+00 0.  1.
        -11    1    4    4    0    0  0.74196514993E-02 -0.20931207190E-01 -0.14217128874E-01  0.26373367953E-01  0.51100000000E-03 0.  1.
         11    1    4    4    0    0  0.65479685978E-01 -0.68253880366E-01 -0.49637190382E-01  0.10681897421E+00  0.51100000000E-03 0. -1.
</event>
<event>
 8    1  0.1088021E+005  0.1043930E+01  0.7957747E-01            NaN
         13   -1    0    0    0    0  0.00000000000E+00  0.00000000000E+00  0.74505805969E-08  0.10566000000E+00  0.10566000000E+00 0. -1.
     999900   -1    0    0    0    0 -0.00000000000E+00 -0.00000000000E+00 -0.74505805969E-08  0.93827000000E+00  0.93827000000E+00 0.  1.
     999902    2    1    2    0    0  0.67562466744E-02 -0.21810693820E-01 -0.24326157958E-02  0.10209676209E+01  0.10207093671E+01 0.  0.
     999903    2    3    3    0    0  0.12065483907E+00 -0.64761093110E-03 -0.49930869585E-01  0.13210494898E+00  0.20015399503E-01 0.  0.
         14    1    1    2    0    0 -0.67562466744E-02  0.21810693820E-01  0.24326157958E-02  0.22962379094E-01  0.00000000000E+00 0. -1.
     999901    1    3    3    0    0 -0.11389859240E+00 -0.21163082889E-01  0.47498253789E-01  0.88886267192E+00  0.88000000000E+00 0. -1.
        -11    1    4    4    0    0  0.53675430469E-01 -0.99351425104E-02 -0.19736718560E-01  0.58047894649E-01  0.51100000000E-03 0. -1.
         11    1    4    4    0    0  0.66979408601E-01  0.92875315793E-02 -0.30194151025E-01  0.74057054333E-01  0.51100000000E-03 0.  1.
</event>
<event>
 8    1  0.1088021E+005  0.1043930E+01  0.7957747E-01            NaN
         13   -1    0    0    0    0  0.00000000000E+00  0.00000000000E+00  0.74505805969E-08  0.10566000000E+00  0.10566000000E+00 0. -1.
     999900   -1    0    0    0    0 -0.00000000000E+00 -0.00000000000E+00 -0.74505805969E-08  0.93827000000E+00  0.93827000000E+00 0. -1.
     999902    2    1    2    0    0  0.23232614369E-01 -0.54619599958E-03 -0.37323504115E-02  0.10203931536E+01  0.10201216617E+01 0.  0.
     999903    2    3    3    0    0 -0.10586304759E+00  0.63653212951E-01 -0.28881048942E-01  0.12830587584E+00  0.19224110424E-01 0.  0.
         14    1    1    2    0    0 -0.23232614369E-01  0.54619599958E-03  0.37323504115E-02  0.23536846434E-01  0.00000000000E+00 0. -1.
     999901    1    3    3    0    0  0.12909566196E+00 -0.64199408951E-01  0.25148698530E-01  0.89208727773E+00  0.88000000000E+00 0.  1.
        -11    1    4    4    0    0 -0.60534936233E-01  0.25518926888E-01 -0.17468403886E-01  0.67978675991E-01  0.51100000000E-03 0.  1.
         11    1    4    4    0    0 -0.45328111361E-01  0.38134286063E-01 -0.11412645056E-01  0.60327199846E-01  0.51100000000E-03 0. -1.
</event>
<event>
 8    1  0.1088021E+005  0.1043930E+01  0.7957747E-01            NaN
         13   -1    0    0    0    0  0.00000000000E+00  0.00000000000E+00  0.74505805969E-08  0.10566000000E+00  0.10566000000E+00 0.  1.
     999900   -1    0    0    0    0 -0.00000000000E+00 -0.00000000000E+00 -0.74505805969E-08  0.93827000000E+00  0.93827000000E+00 0.  1.
     999902    2    1    2    0    0  0.10781119206E-02 -0.43862232558E-02 -0.23393819123E-01  0.10201041306E+01  0.10198258504E+01 0.  0.
     999903    2    3    3    0    0  0.12329279630E+00 -0.38410785933E-01 -0.11922361493E-03  0.13070219292E+00  0.20163008784E-01 0.  0.
         14    1    1    2    0    0 -0.10781119206E-02  0.43862232558E-02  0.23393819123E-01  0.23825869405E-01  0.00000000000E+00 0.  1.
     999901    1    3    3    0    0 -0.12221468438E+00  0.34024562677E-01 -0.23274595508E-01  0.88940193768E+00  0.88000000000E+00 0.  1.
        -11    1    4    4    0    0  0.45901704337E-01 -0.11438600832E-01 -0.93581435031E-02  0.48224931528E-01  0.51100000000E-03 0.  1.
         11    1    4    4    0    0  0.77391091967E-01 -0.26972185101E-01  0.92389198882E-02  0.82477261391E-01  0.51100000000E-03 0. -1.
</event>
<event>
 8    1  0.1088021E+005  0.1043930E+01  0.7957747E-01            NaN
         13   -1    0    0    0    0  0.00000000000E+00  0.00000000000E+00  0.74505805969E-08  0.10566000000E+00  0.10566000000E+00 0. -1.
     999900   -1    0    0    0    0 -0.00000000000E+00 -0.00000000000E+00 -0.74505805969E-08  0.93827000000E+00  0.93827000000E+00 0.  1.
     999902    2    1    2    0    0  0.31486609762E-03 -0.46959727045E-02 -0.23346716016E-01  0.10201136097E+01  0.10198355535E+01 0.  0.
     999903    2    3    3    0    0  0.30588227627E-01 -0.33458938635E-01 -0.12407374710E+00  0.13338382025E+00  0.18488064807E-01 0.  0.
         14    1    1    2    0    0 -0.31486609762E-03  0.46959727045E-02  0.23346716016E-01  0.23816390345E-01  0.00000000000E+00 0. -1.
     999901    1    3    3    0    0 -0.30273361530E-01  0.28762965930E-01  0.10072703109E+00  0.88672978941E+00  0.88000000000E+00 0. -1.
        -11    1    4    4    0    0  0.29003148320E-01 -0.25716341432E-01 -0.83709343078E-01  0.92249813380E-01  0.51100000000E-03 0. -1.
         11    1    4    4    0    0  0.15850793070E-02 -0.77425972033E-02 -0.40364404025E-01  0.41134006870E-01  0.51100000000E-03 0.  1.
</event>
<event>
 8    1  0.1088021E+005  0.1043930E+01  0.7957747E-01            NaN
         13   -1    0    0    0    0  0.00000000000E+00  0.00000000000E+00  0.74505805969E-08  0.10566000000E+00  0.10566000000E+00 0.  1.
     999900   -1    0    0    0    0 -0.00000000000E+00 -0.00000000000E+00 -0.74505805969E-08  0.93827000000E+00  0.93827000000E+00 0. -1.
     999902    2    1    2    0    0 -0.23369048877E-01 -0.53214994731E-02  0.23546111805E-02  0.10198473300E+01  0.10195629463E+01 0.  0.
     999903    2    3    3    0    0 -0.12982943187E+00 -0.53772284036E-02 -0.19973751919E-01  0.13314987759E+00  0.21103155524E-01 0.  0.
         14    1    1    2    0    0  0.23369048877E-01  0.53214994731E-02 -0.23546111805E-02  0.24082670032E-01  0.00000000000E+00 0. -1.
     999901    1    3    3    0    0  0.10646038299E+00  0.55728930445E-04  0.22328363099E-01  0.88669745238E+00  0.88000000000E+00 0. -1.
        -11    1    4    4    0    0 -0.72404909494E-01  0.24594592134E-02 -0.20120950530E-01  0.75190648552E-01  0.51100000000E-03 0. -1.
         11    1    4    4    0    0 -0.57424522372E-01 -0.78366876170E-02  0.14719861132E-03  0.57959229040E-01  0.51100000000E-03 0.  1.
</event>
<event>
 8    1  0.1088021E+005  0.1043930E+01  0.7957747E-01            NaN
         13   -1    0    0    0    0  0.00000000000E+00  0.00000000000E+00  0.74505805969E-08  0.10566000000E+00  0.10566000000E+00 0. -1.
     999900   -1    0    0    0    0 -0.00000000000E+00 -0.00000000000E+00 -0.74505805969E-08  0.93827000000E+00  0.93827000000E+00 0. -1.
     999902    2    1    2    0    0 -0.17229784136E-01  0.57415440719E-02  0.24099296334E-01  0.10137537366E+01  0.10133045108E+01 0.  0.
     999903    2    3    3    0    0  0.11705979270E+00  0.21935198670E-01 -0.21620341832E-01  0.12224590700E+00  0.17101888513E-01 0.  0.
         14    1    1    2    0    0  0.17229784136E-01 -0.57415440719E-02 -0.24099296334E-01  0.30176263412E-01  0.00000000000E+00 0.  1.
     999901    1    3    3    0    0 -0.13428957684E+00 -0.16193654598E-01  0.45719638166E-01  0.89150782958E+00  0.88000000000E+00 0. -1.
        -11    1    4    4    0    0  0.90511349332E-01  0.10765614689E-01 -0.20441923138E-01  0.93414860489E-01  0.51100000000E-03 0. -1.
         11    1    4    4    0    0  0.26548443368E-01  0.11169583981E-01 -0.11784186943E-02  0.28831046516E-01  0.51100000000E-03 0.  1.
</event>
<event>
 8    1  0.1088021E+005  0.1043930E+01  0.7957747E-01            NaN
         13   -1    0    0    0    0  0.00000000000E+00  0.00000000000E+00  0.74505805969E-08  0.10566000000E+00  0.10566000000E+00 0. -1.
     999900   -1    0    0    0    0 -0.00000000000E+00 -0.00000000000E+00 -0.74505805969E-08  0.93827000000E+00  0.93827000000E+00 0.  1.
     999902    2    1    2    0    0 -0.21186894049E-01 -0.11643573830E-01 -0.49831385252E-02  0.10192462207E+01  0.10189472849E+01 0.  0.
     999903    2    3    3    0    0  0.10221067795E+00  0.58313352840E-01 -0.43281413128E-01  0.12706479845E+00  0.20608553480E-01 0.  0.
         14    1    1    2    0    0  0.21186894049E-01  0.11643573830E-01  0.49831385252E-02  0.24683779300E-01  0.00000000000E+00 0.  1.
     999901    1    3    3    0    0 -0.12339757200E+00 -0.69956926671E-01  0.38298274603E-01  0.89218142225E+00  0.88000000000E+00 0.  1.
        -11    1    4    4    0    0  0.75095091562E-01  0.38587376946E-01 -0.39824644345E-01  0.93351603385E-01  0.51100000000E-03 0. -1.
         11    1    4    4    0    0  0.27115586390E-01  0.19725975895E-01 -0.34567687830E-02  0.33713195068E-01  0.51100000000E-03 0.  1.
</event>
<event>
 8    1  0.1088021E+005  0.1043930E+01  0.7957747E-01            NaN
         13   -1    0    0    0    0  0.00000000000E+00  0.00000000000E+00  0.74505805969E-08  0.10566000000E+00  0.10566000000E+00 0.  1.
     999900   -1    0    0    0    0 -0.00000000000E+00 -0.00000000000E+00 -0.74505805969E-08  0.93827000000E+00  0.93827000000E+00 0. -1.
     999902    2    1    2    0    0 -0.20492085650E-01 -0.80306092971E-02 -0.13621886700E-01  0.10180461816E+01  0.10177170804E+01 0.  0.
     999903    2    3    3    0    0  0.29824366255E-01  0.36217760417E-01  0.11532813347E+00  0.12612815211E+00  0.20162177239E-01 0.  0.
         14    1    1    2    0    0  0.20492085650E-01  0.80306092971E-02  0.13621886700E-01  0.25883818444E-01  0.00000000000E+00 0.  1.
     999901    1    3    3    0    0 -0.50316451905E-01 -0.44248369714E-01 -0.12895002017E+00  0.89191802945E+00  0.88000000000E+00 0. -1.
        -11    1    4    4    0    0  0.20053981652E-01  0.29880994234E-01  0.63355530745E-01  0.72864397297E-01  0.51100000000E-03 0.  1.
         11    1    4    4    0    0  0.97703846035E-02  0.63367661834E-02  0.51972602729E-01  0.53263754809E-01  0.51100000000E-03 0. -1.
</event>
<event>
 8    1  0.1088021E+005  0.1043930E+01  0.7957747E-01            NaN
         13   -1    0    0    0    0  0.00000000000E+00  0.00000000000E+00  0.74505805969E-08  0.10566000000E+00  0.10566000000E+00 0. -1.
     999900   -1    0    0    0    0 -0.00000000000E+00 -0.00000000000E+00 -0.74505805969E-08  0.93827000000E+00  0.93827000000E+00 0.  1.
     999902    2    1    2    0    0 -0.81341254350E-02 -0.19773515152E-01 -0.44525799718E-02  0.10220900969E+01  0.10218567340E+01 0.  0.
     999903    2    3    3    0    0 -0.10618770752E+00  0.74678542244E-01 -0.92569610327E-02  0.13160776797E+00  0.19549919708E-01 0.  0.
         14    1    1    2    0    0  0.81341254350E-02  0.19773515152E-01  0.44525799718E-02  0.21839903078E-01  0.00000000000E+00 0. -1.
     999901    1    3    3    0    0  0.98053582088E-01 -0.94452057396E-01  0.48043810609E-02  0.89048232896E+00  0.88000000000E+00 0. -1.
        -11    1    4    4    0    0 -0.76093369105E-01  0.48101946601E-01 -0.14254373756E-01  0.91145193953E-01  0.51100000000E-03 0.  1.
         11    1    4    4    0    0 -0.30094338418E-01  0.26576595643E-01  0.49974127233E-02  0.40462574012E-01  0.51100000000E-03 0. -1.
</event>
<event>
 8    1  0.1088021E+005  0.1043930E+01  0.7957747E-01            NaN
         13   -1    0    0    0    0  0.00000000000E+00  0.00000000000E+00  0.74505805969E-08  0.10566000000E+00  0.10566000000E+00 0.  1.
     999900   -1    0    0    0    0 -0.00000000000E+00 -0.00000000000E+00 -0.74505805969E-08  0.93827000000E+00  0.93827000000E+00 0. -1.
     999902    2    1    2    0    0 -0.15322788438E-01  0.92706141915E-02  0.15641360916E-01  0.10201521888E+01  0.10198750434E+01 0.  0.
     999903    2    3    3    0    0 -0.29992343779E-01 -0.10074879781E+00 -0.71925911676E-01  0.12886800625E+00  0.19589929025E-01 0.  0.
         14    1    1    2    0    0  0.15322788438E-01 -0.92706141915E-02 -0.15641360916E-01  0.23777811176E-01  0.00000000000E+00 0. -1.
     999901    1    3    3    0    0  0.14669555341E-01  0.11001941200E+00  0.87567272592E-01  0.89128418257E+00  0.88000000000E+00 0.  1.
        -11    1    4    4    0    0 -0.78401588809E-02 -0.58825704152E-01 -0.43486431624E-01  0.73574876260E-01  0.51100000000E-03 0.  1.
         11    1    4    4    0    0 -0.22152184898E-01 -0.41923093661E-01 -0.28439480052E-01  0.55293129994E-01  0.51100000000E-03 0. -1.
</event>
<event>
 8    1  0.1088021E+005  0.1043930E+01  0.7957747E-01            NaN
         13   -1    0    0    0    0  0.00000000000E+00  0.00000000000E+00  0.74505805969E-08  0.10566000000E+00  0.10566000000E+00 0. -1.
     999900   -1    0    0    0    0 -0.00000000000E+00 -0.00000000000E+00 -0.74505805969E-08  0.93827000000E+00  0.93827000000E+00 0. -1.
     999902    2    1    2    0    0  0.22274058049E-01 -0.11965871472E-02 -0.98967632098E-02  0.10195268976E+01  0.10192348030E+01 0.  0.
     999903    2    3    3    0    0 -0.41699527324E-01 -0.82977036881E-01 -0.88669373678E-01  0.12992823209E+00  0.19875825458E-01 0.  0.
         14    1    1    2    0    0 -0.22274058049E-01  0.11965871472E-02  0.98967632098E-02  0.24403102360E-01  0.00000000000E+00 0. -1.
     999901    1    3    3    0    0  0.63973585372E-01  0.81780449734E-01  0.78772610469E-01  0.88959866555E+00  0.88000000000E+00 0.  1.
        -11    1    4    4    0    0 -0.59838043567E-02 -0.23338720732E-01 -0.13838105839E-01  0.27789496113E-01  0.51100000000E-03 0. -1.
         11    1    4    4    0    0 -0.35715722967E-01 -0.59638316149E-01 -0.74831267839E-01  0.10213873598E+00  0.51100000000E-03 0.  1.
</event>
<event>
 8    1  0.1088021E+005  0.1043930E+01  0.7957747E-01            NaN
         13   -1    0    0    0    0  0.00000000000E+00  0.00000000000E+00  0.74505805969E-08  0.10566000000E+00  0.10566000000E+00 0.  1.
     999900   -1    0    0    0    0 -0.00000000000E+00 -0.00000000000E+00 -0.74505805969E-08  0.93827000000E+00  0.93827000000E+00 0. -1.
     999902    2    1    2    0    0 -0.11485504163E-01  0.19045083826E-01 -0.30510801014E-02  0.10214813672E+01  0.10212346657E+01 0.  0.
     999903    2    3    3    0    0  0.73198569040E-01  0.98406578752E-02  0.10605538304E+00  0.13066133264E+00  0.19229418035E-01 0.  0.
         14    1    1    2    0    0  0.11485504163E-01 -0.19045083826E-01  0.30510801014E-02  0.22448632778E-01  0.00000000000E+00 0. -1.
     999901    1    3    3    0    0 -0.84684073203E-01  0.92044259509E-02 -0.10910646315E+00  0.89082003458E+00  0.88000000000E+00 0. -1.
        -11    1    4    4    0    0  0.31792037511E-01 -0.45218255351E-02  0.51308208665E-01  0.60530768644E-01  0.51100000000E-03 0. -1.
         11    1    4    4    0    0  0.41406531529E-01  0.14362483410E-01  0.54747174379E-01  0.70130563997E-01  0.51100000000E-03 0.  1.
</event>
<event>
 8    1  0.1088021E+005  0.1043930E+01  0.7957747E-01            NaN
         13   -1    0    0    0    0  0.00000000000E+00  0.00000000000E+00  0.74505805969E-08  0.10566000000E+00  0.10566000000E+00 0. -1.
     999900   -1    0    0    0    0 -0.00000000000E+00 -0.00000000000E+00 -0.74505805969E-08  0.93827000000E+00  0.93827000000E+00 0. -1.
     999902    2    1    2    0    0  0.61590924137E-02 -0.37005308847E-02  0.21934738701E-01  0.10208483816E+01  0.10205874078E+01 0.  0.
     999903    2    3    3    0    0  0.70583848043E-01  0.76164015760E-01 -0.74948137115E-01  0.12960476358E+00  0.19928235868E-01 0.  0.
         14    1    1    2    0    0 -0.61590924137E-02  0.37005308847E-02 -0.21934738701E-01  0.23081618446E-01  0.00000000000E+00 0.  1.
     999901    1    3    3    0    0 -0.64424755629E-01 -0.79864546645E-01  0.96882875817E-01  0.89124361797E+00  0.88000000000E+00 0.  1.
        -11    1    4    4    0    0  0.55846142945E-01  0.51824402067E-01 -0.45940208406E-01  0.88968107773E-01  0.51100000000E-03 0. -1.
         11    1    4    4    0    0  0.14737705098E-01  0.24339613694E-01 -0.29007928709E-01  0.40636655809E-01  0.51100000000E-03 0.  1.
</event>
<event>
 8    1  0.1088021E+005  0.1043930E+01  0.7957747E-01            NaN
         13   -1    0    0    0    0  0.00000000000E+00  0.00000000000E+00  0.74505805969E-08  0.10566000000E+00  0.10566000000E+00 0. -1.
     999900   -1    0    0    0    0 -0.00000000000E+00 -0.00000000000E+00 -0.74505805969E-08  0.93827000000E+00  0.93827000000E+00 0.  1.
     999902    2    1    2    0    0  0.75042130025E-02  0.20953269152E-01  0.70612761720E-02  0.10205801751E+01  0.10203130302E+01 0.  0.
     999903    2    3    3    0    0 -0.64220271730E-01  0.10832863512E+00 -0.38445919292E-01  0.13218287597E+00  0.11614107924E-01 0.  0.
         14    1    1    2    0    0 -0.75042130025E-02 -0.20953269152E-01 -0.70612761720E-02  0.23349824885E-01  0.00000000000E+00 0. -1.
     999901    1    3    3    0    0  0.71724484732E-01 -0.87375365963E-01  0.45507195464E-01  0.88839729914E+00  0.88000000000E+00 0. -1.
        -11    1    4    4    0    0 -0.52416212036E-02  0.11889084882E-01 -0.73566220982E-02  0.14940078376E-01  0.51100000000E-03 0. -1.
         11    1    4    4    0    0 -0.58978650526E-01  0.96439550233E-01 -0.31089297193E-01  0.11724279760E+00  0.51100000000E-03 0.  1.
</event>
<event>
 8    1  0.1088021E+005  0.1043930E+01  0.7957747E-01            NaN
         13   -1    0    0    0    0  0.00000000000E+00  0.00000000000E+00  0.74505805969E-08  0.10566000000E+00  0.10566000000E+00 0.  1.
     999900   -1    0    0    0    0 -0.00000000000E+00 -0.00000000000E+00 -0.74505805969E-08  0.93827000000E+00  0.93827000000E+00 0.  1.
     999902    2    1    2    0    0 -0.23402554242E-01 -0.41991992356E-02  0.48058285387E-02  0.10196728607E+01  0.10193842916E+01 0.  0.
     999903    2    3    3    0    0  0.11147238666E+00 -0.21388599553E-01 -0.54233164043E-01  0.12727590428E+00  0.19348244110E-01 0.  0.
         14    1    1    2    0    0  0.23402554242E-01  0.41991992356E-02 -0.48058285387E-02  0.24257139304E-01  0.00000000000E+00 0.  1.
     999901    1    3    3    0    0 -0.13487494090E+00  0.17189400317E-01  0.59038992582E-01  0.89239695641E+00  0.88000000000E+00 0. -1.
        -11    1    4    4    0    0  0.44320319858E-01  0.76404184054E-03 -0.23485476506E-01  0.50166754329E-01  0.51100000000E-03 0.  1.
         11    1    4    4    0    0  0.67152066805E-01 -0.22152641393E-01 -0.30747687537E-01  0.77109149955E-01  0.51100000000E-03 0. -1.
</event>
<event>
 8    1  0.1088021E+005  0.1043930E+01  0.7957747E-01            NaN
         13   -1    0    0    0    0  0.00000000000E+00  0.00000000000E+00  0.74505805969E-08  0.10566000000E+00  0.10566000000E+00 0. -1.
     999900   -1    0    0    0    0 -0.00000000000E+00 -0.00000000000E+00 -0.74505805969E-08  0.93827000000E+00  0.93827000000E+00 0.  1.
     999902    2    1    2    0    0 -0.20506643659E-01 -0.25398076751E-02  0.10011368484E-01  0.10209691517E+01  0.10207109327E+01 0.  0.
     999903    2    3    3    0    0 -0.13085497874E+00 -0.20802283894E-01 -0.15942443875E-02  0.13381360536E+00  0.18648830750E-01 0.  0.
         14    1    1    2    0    0  0.20506643659E-01  0.25398076751E-02 -0.10011368484E-01  0.22960848331E-01  0.00000000000E+00 0.  1.
     999901    1    3    3    0    0  0.11034833508E+00  0.18262476219E-01  0.11605612871E-01  0.88715554631E+00  0.88000000000E+00 0. -1.
        -11    1    4    4    0    0 -0.60601560561E-01 -0.18104170830E-01 -0.48127541194E-02  0.63432908393E-01  0.51100000000E-03 0. -1.
         11    1    4    4    0    0 -0.70253418179E-01 -0.26981130636E-02  0.32185097319E-02  0.70380696969E-01  0.51100000000E-03 0.  1.
</event>
<event>
 8    1  0.1088021E+005  0.1043930E+01  0.7957747E-01            NaN
         13   -1    0    0    0    0  0.00000000000E+00  0.00000000000E+00  0.74505805969E-08  0.10566000000E+00  0.10566000000E+00 0. -1.
     999900   -1    0    0    0    0 -0.00000000000E+00 -0.00000000000E+00 -0.74505805969E-08  0.93827000000E+00  0.93827000000E+00 0. -1.
     999902    2    1    2    0    0 -0.16831379910E-01  0.17895253769E-01  0.35947793447E-02  0.10191014299E+01  0.10187989333E+01 0.  0.
     999903    2    3    3    0    0  0.12401305213E+00 -0.36531791195E-02  0.21084456475E-01  0.12746956759E+00  0.20281852465E-01 0.  0.
         14    1    1    2    0    0  0.16831379910E-01 -0.17895253769E-01 -0.35947793447E-02  0.24828570149E-01  0.00000000000E+00 0.  1.
     999901    1    3    3    0    0 -0.14084443204E+00  0.21548432889E-01 -0.17489677131E-01  0.89163186226E+00  0.88000000000E+00 0. -1.
        -11    1    4    4    0    0  0.74139300341E-01  0.77648721386E-02  0.12323974715E-01  0.75558391779E-01  0.51100000000E-03 0.  1.
         11    1    4    4    0    0  0.49873751790E-01 -0.11418051258E-01  0.87604817607E-02  0.51911175809E-01  0.51100000000E-03 0. -1.
</event>
<event>
 8    1  0.1088021E+005  0.1043930E+01  0.7957747E-01            NaN
         13   -1    0    0    0    0  0.00000000000E+00  0.00000000000E+00  0.74505805969E-08  0.10566000000E+00  0.10566000000E+00 0. -1.
     999900   -1    0    0    0    0 -0.00000000000E+00 -0.00000000000E+00 -0.74505805969E-08  0.93827000000E+00  0.93827000000E+00 0. -1.
     999902    2    1    2    0    0  0.16636901307E-01  0.14991096315E-01 -0.53056538643E-02  0.10209154521E+01  0.10206560100E+01 0.  0.
     999903    2    3    3    0    0  0.40648083972E-01 -0.39414470690E-01  0.11577772577E+00  0.13063589628E+00  0.21342173795E-01 0.  0.
         14    1    1    2    0    0 -0.16636901307E-01 -0.14991096315E-01  0.53056538643E-02  0.23014547937E-01  0.00000000000E+00 0.  1.
     999901    1    3    3    0    0 -0.24011182665E-01  0.54405567005E-01 -0.12108337964E+00  0.89027955578E+00  0.88000000000E+00 0. -1.
        -11    1    4    4    0    0  0.20711295838E-01 -0.20659403471E-01  0.82557043998E-01  0.87588214743E-01  0.51100000000E-03 0. -1.
         11    1    4    4    0    0  0.19936788134E-01 -0.18755067219E-01  0.33220681775E-01  0.43047681541E-01  0.51100000000E-03 0.  1.
</event>
<event>
 8    1  0.1088021E+005  0.1043930E+01  0.7957747E-01            NaN
         13   -1    0    0    0    0  0.00000000000E+00  0.00000000000E+00  0.74505805969E-08  0.10566000000E+00  0.10566000000E+00 0. -1.
     999900   -1    0    0    0    0 -0.00000000000E+00 -0.00000000000E+00 -0.74505805969E-08  0.93827000000E+00  0.93827000000E+00 0.  1.
     999902    2    1    2    0    0  0.19804176924E-01 -0.21389786000E-02  0.12243095943E-01  0.10205489382E+01  0.10202810697E+01 0.  0.
     999903    2    3    3    0    0  0.10198641069E+00  0.60128500833E-02 -0.80884029648E-01  0.13178967192E+00  0.19720776881E-01 0.  0.
         14    1    1    2    0    0 -0.19804176924E-01  0.21389786000E-02 -0.12243095943E-01  0.23381061810E-01  0.00000000000E+00 0. -1.
     999901    1    3    3    0    0 -0.82182233769E-01 -0.81518286833E-02  0.93127125591E-01  0.88875926627E+00  0.88000000000E+00 0. -1.
        -11    1    4    4    0    0  0.36288005685E-01 -0.49941804434E-02 -0.21069293344E-01  0.42260353026E-01  0.51100000000E-03 0. -1.
         11    1    4    4    0    0  0.65698405008E-01  0.11007030527E-01 -0.59814736304E-01  0.89529318895E-01  0.51100000000E-03 0.  1.
</event>
<event>
 8    1  0.1088021E+005  0.1043930E+01  0.7957747E-01            NaN
         13   -1    0    0    0    0  0.00000000000E+00  0.00000000000E+00  0.74505805969E-08  0.10566000000E+00  0.10566000000E+00 0.  1.
     999900   -1    0    0    0    0 -0.00000000000E+00 -0.00000000000E+00 -0.74505805969E-08  0.93827000000E+00  0.93827000000E+00 0.  1.
     999902    2    1    2    0    0  0.19408590720E-01  0.94469611549E-02 -0.98318519951E-02  0.10202107297E+01  0.10199349633E+01 0.  0.
     999903    2    3    3    0    0 -0.60263391878E-01  0.46107496300E-01 -0.10474970728E+00  0.13077213212E+00  0.19268413277E-01 0.  0.
         14    1    1    2    0    0 -0.19408590720E-01 -0.94469611549E-02  0.98318519951E-02  0.23719270276E-01  0.00000000000E+00 0. -1.
     999901    1    3    3    0    0  0.79671982598E-01 -0.36660535146E-01  0.94917855280E-01  0.88943859760E+00  0.88000000000E+00 0. -1.
        -11    1    4    4    0    0 -0.25748654026E-01  0.19552029685E-01 -0.61003944980E-01  0.69043591108E-01  0.51100000000E-03 0. -1.
         11    1    4    4    0    0 -0.34514737852E-01  0.26555466616E-01 -0.43745762295E-01  0.61728541016E-01  0.51100000000E-03 0.  1.
</event>
<event>
 8    1  0.1088021E+005  0.1043930E+01  0.7957747E-01            NaN
         13   -1    0    0    0    0  0.00000000000E+00  0.00000000000E+00  0.74505805969E-08  0.10566000000E+00  0.10566000000E+00 0.  1.
     999900   -1    0    0    0    0 -0.00000000000E+00 -0.00000000000E+00 -0.74505805969E-08  0.93827000000E+00  0.93827000000E+00 0.  1.
     999902    2    1    2    0    0 -0.15836779473E-01 -0.76140822657E-02 -0.16640382456E-01  0.10197291702E+01  0.10194419554E+01 0.  0.
     999903    2    3    3    0    0  0.93517262169E-01  0.84570369882E-01 -0.10531122120E-01  0.12816111187E+00  0.20414217533E-01 0.  0.
         14    1    1    2    0    0  0.15836779473E-01  0.76140822657E-02  0.16640382456E-01  0.24200829760E-01  0.00000000000E+00 0.  1.
     999901    1    3    3    0    0 -0.10935404164E+00 -0.92184452147E-01 -0.61092603359E-02  0.89156805837E+00  0.88000000000E+00 0. -1.
        -11    1    4    4    0    0  0.53137117976E-01  0.35791997507E-01 -0.99177295948E-02  0.64832421470E-01  0.51100000000E-03 0. -1.
         11    1    4    4    0    0  0.40380144193E-01  0.48778372375E-01 -0.61339252478E-03  0.63328690401E-01  0.51100000000E-03 0.  1.
</event>
<event>
 8    1  0.1088021E+005  0.1043930E+01  0.7957747E-01            NaN
         13   -1    0    0    0    0  0.00000000000E+00  0.00000000000E+00  0.74505805969E-08  0.10566000000E+00  0.10566000000E+00 0.  1.
     999900   -1    0    0    0    0 -0.00000000000E+00 -0.00000000000E+00 -0.74505805969E-08  0.93827000000E+00  0.93827000000E+00 0.  1.
     999902    2    1    2    0    0 -0.18796254253E-01  0.12529236081E-01 -0.88115396178E-02  0.10196828525E+01  0.10193945240E+01 0.  0.
     999903    2    3    3    0    0  0.48750881568E-01  0.10182618414E+00 -0.63074333572E-01  0.13093034968E+00  0.20473511693E-01 0.  0.
         14    1    1    2    0    0  0.18796254253E-01 -0.12529236081E-01  0.88115396178E-02  0.24247147485E-01  0.00000000000E+00 0.  1.
     999901    1    3    3    0    0 -0.67547135821E-01 -0.89296948060E-01  0.54262793954E-01  0.88875250284E+00  0.88000000000E+00 0. -1.
        -11    1    4    4    0    0  0.32650211292E-01  0.86616580048E-01 -0.51700876939E-01  0.10602693070E+00  0.51100000000E-03 0. -1.
         11    1    4    4    0    0  0.16100670276E-01  0.15209604093E-01 -0.11373456632E-01  0.24903418977E-01  0.51100000000E-03 0.  1.
</event>
<event>
 8    1  0.1088021E+005  0.1043930E+01  0.7957747E-01            NaN
         13   -1    0    0    0    0  0.00000000000E+00  0.00000000000E+00  0.74505805969E-08  0.10566000000E+00  0.10566000000E+00 0. -1.
     999900   -1    0    0    0    0 -0.00000000000E+00 -0.00000000000E+00 -0.74505805969E-08  0.93827000000E+00  0.93827000000E+00 0. -1.
     999902    2    1    2    0    0 -0.14455040242E-01  0.65112690735E-02  0.17214228494E-01  0.10205275541E+01  0.10202591897E+01 0.  0.
     999903    2    3    3    0    0 -0.12057596783E+00  0.29591947765E-01 -0.40637446403E-01  0.13196625326E+00  0.18693382744E-01 0.  0.
         14    1    1    2    0    0  0.14455040242E-01 -0.65112690735E-02 -0.17214228494E-01  0.23402445940E-01  0.00000000000E+00 0.  1.
     999901    1    3    3    0    0  0.10612092758E+00 -0.23080678691E-01  0.57851674897E-01  0.88856130081E+00  0.88000000000E+00 0. -1.
        -11    1    4    4    0    0 -0.20515147447E-01 -0.27063793387E-03 -0.19853281489E-02  0.20619097180E-01  0.51100000000E-03 0.  1.
         11    1    4    4    0    0 -0.10006082038E+00  0.29862585699E-01 -0.38652118254E-01  0.11134715608E+00  0.51100000000E-03 0. -1.
</event>
<event>
 8    1  0.1088021E+005  0.1043930E+01  0.7957747E-01            NaN
         13   -1    0    0    0    0  0.00000000000E+00  0.00000000000E+00  0.74505805969E-08  0.10566000000E+00  0.10566000000E+00 0. -1.
     999900   -1    0    0    0    0 -0.00000000000E+00 -0.00000000000E+00 -0.74505805969E-08  0.93827000000E+00  0.93827000000E+00 0. -1.
     999902    2    1    2    0    0 -0.15648770908E-01 -0.76732959414E-02  0.16608727341E-01  0.10198548401E+01  0.10195706359E+01 0.  0.
     999903    2    3    3    0    0 -0.47642043417E-01 -0.39068051914E-01  0.11626175353E+00  0.13309674126E+00  0.20046700917E-01 0.  0.
         14    1    1    2    0    0  0.15648770908E-01  0.76732959414E-02 -0.16608727341E-01  0.24075159925E-01  0.00000000000E+00 0.  1.
     999901    1    3    3    0    0  0.31993272509E-01  0.31394755973E-01 -0.99653026191E-01  0.88675809882E+00  0.88000000000E+00 0. -1.
        -11    1    4    4    0    0 -0.23280807644E-01 -0.22828146303E-01  0.41322926497E-01  0.52639962419E-01  0.51100000000E-03 0. -1.
         11    1    4    4    0    0 -0.24361235773E-01 -0.16239905612E-01  0.74938827036E-01  0.80456778839E-01  0.51100000000E-03 0.  1.
</event>
<event>
 8    1  0.1088021E+005  0.1043930E+01  0.7957747E-01            NaN
         13   -1    0    0    0    0  0.00000000000E+00  0.00000000000E+00  0.74505805969E-08  0.10566000000E+00  0.10566000000E+00 0.  1.
     999900   -1    0    0    0    0 -0.00000000000E+00 -0.00000000000E+00 -0.74505805969E-08  0.93827000000E+00  0.93827000000E+00 0. -1.
     999902    2    1    2    0    0 -0.19489764699E-01  0.43606354241E-02 -0.12616218660E-01  0.10203072347E+01  0.10200337338E+01 0.  0.
     999903    2    3    3    0    0  0.11069605120E+00 -0.16524913780E-01  0.58214305647E-01  0.12766984131E+00  0.19595776849E-01 0.  0.
         14    1    1    2    0    0  0.19489764699E-01 -0.43606354241E-02  0.12616218660E-01  0.23622765346E-01  0.00000000000E+00 0.  1.
     999901    1    3    3    0    0 -0.13018581590E+00  0.20885549204E-01 -0.70830524307E-01  0.89263739335E+00  0.88000000000E+00 0. -1.
        -11    1    4    4    0    0  0.71317288851E-01 -0.10318796850E-01  0.47766952978E-01  0.86455631252E-01  0.51100000000E-03 0. -1.
         11    1    4    4    0    0  0.39378762351E-01 -0.62061169305E-02  0.10447352669E-01  0.41214210055E-01  0.51100000000E-03 0.  1.
</event>
<event>
 8    1  0.1088021E+005  0.1043930E+01  0.7957747E-01            NaN
         13   -1    0    0    0    0  0.00000000000E+00  0.00000000000E+00  0.74505805969E-08  0.10566000000E+00  0.10566000000E+00 0.  1.
     999900   -1    0    0    0    0 -0.00000000000E+00 -0.00000000000E+00 -0.74505805969E-08  0.93827000000E+00  0.93827000000E+00 0. -1.
     999902    2    1    2    0    0  0.45699155900E-02 -0.34716354614E-02  0.23430616552E-01  0.10198067711E+01  0.10195214172E+01 0.  0.
     999903    2    3    3    0    0  0.56305820207E-01  0.11485185093E+00  0.10178177936E-01  0.13028292183E+00  0.22555517356E-01 0.  0.
         14    1    1    2    0    0 -0.45699155900E-02  0.34716354614E-02 -0.23430616552E-01  0.24123228915E-01  0.00000000000E+00 0. -1.
     999901    1    3    3    0    0 -0.51735904617E-01 -0.11832348639E+00  0.13252438616E-01  0.88952384925E+00  0.88000000000E+00 0. -1.
        -11    1    4    4    0    0  0.36346137006E-01  0.94392688283E-01  0.10505195745E-01  0.10169386184E+00  0.51100000000E-03 0. -1.
         11    1    4    4    0    0  0.19959683201E-01  0.20459162650E-01 -0.32701780906E-03  0.28589059996E-01  0.51100000000E-03 0.  1.
</event>
<event>
 8    1  0.1088021E+005  0.1043930E+01  0.7957747E-01            NaN
         13   -1    0    0    0    0  0.00000000000E+00  0.00000000000E+00  0.74505805969E-08  0.10566000000E+00  0.10566000000E+00 0. -1.
     999900   -1    0    0    0    0 -0.00000000000E+00 -0.00000000000E+00 -0.74505805969E-08  0.93827000000E+00  0.93827000000E+00 0. -1.
     999902    2    1    2    0    0  0.11211218384E-01  0.21566867913E-01 -0.79252038648E-03  0.10196102694E+01  0.10193201912E+01 0.  0.
     999903    2    3    3    0    0 -0.11800584428E+00  0.13253199574E-01  0.45963528297E-01  0.12890701101E+00  0.20083450209E-01 0.  0.
         14    1    1    2    0    0 -0.11211218384E-01 -0.21566867913E-01  0.79252038648E-03  0.24319730628E-01  0.00000000000E+00 0. -1.
     999901    1    3    3    0    0  0.12921706266E+00  0.83136683395E-02 -0.46756048684E-01  0.89070325836E+00  0.88000000000E+00 0. -1.
        -11    1    4    4    0    0 -0.54560198615E-01 -0.32637403284E-02  0.24708722254E-01  0.59985409478E-01  0.51100000000E-03 0. -1.
         11    1    4    4    0    0 -0.63445645662E-01  0.16516939902E-01  0.21254806044E-01  0.68921601535E-01  0.51100000000E-03 0.  1.
</event>
<event>
 8    1  0.1088021E+005  0.1043930E+01  0.7957747E-01            NaN
         13   -1    0    0    0    0  0.00000000000E+00  0.00000000000E+00  0.74505805969E-08  0.10566000000E+00  0.10566000000E+00 0.  1.
     999900   -1    0    0    0    0 -0.00000000000E+00 -0.00000000000E+00 -0.74505805969E-08  0.93827000000E+00  0.93827000000E+00 0.  1.
     999902    2    1    2    0    0  0.16726055642E-01  0.89868377007E-02 -0.12810945983E-01  0.10210248799E+01  0.10207679270E+01 0.  0.
     999903    2    3    3    0    0 -0.10573473006E+00 -0.38788681286E-02 -0.73475412591E-01  0.13038334263E+00  0.20156910050E-01 0.  0.
         14    1    1    2    0    0 -0.16726055642E-01 -0.89868377007E-02  0.12810945983E-01  0.22905120086E-01  0.00000000000E+00 0.  1.
     999901    1    3    3    0    0  0.12246078570E+00  0.12865705829E-01  0.60664466608E-01  0.89064153728E+00  0.88000000000E+00 0. -1.
        -11    1    4    4    0    0 -0.69597969245E-01 -0.10171521997E-01 -0.41168216727E-01  0.81501045222E-01  0.51100000000E-03 0. -1.
         11    1    4    4    0    0 -0.36136760812E-01  0.62926538683E-02 -0.32307195864E-01  0.48882297411E-01  0.51100000000E-03 0.  1.
</event>
<event>
 8    1  0.1088021E+005  0.1043930E+01  0.7957747E-01            NaN
         13   -1    0    0    0    0  0.00000000000E+00  0.00000000000E+00  0.74505805969E-08  0.10566000000E+00  0.10566000000E+00 0.  1.
     999900   -1    0    0    0    0 -0.00000000000E+00 -0.00000000000E+00 -0.74505805969E-08  0.93827000000E+00  0.93827000000E+00 0. -1.
     999902    2    1    2    0    0  0.16928871939E-01 -0.50055121725E-02 -0.16006969548E-01  0.10201000833E+01  0.10198217074E+01 0.  0.
     999903    2    3    3    0    0  0.72435982354E-01  0.95782417457E-01 -0.52117295160E-01  0.13187533599E+00  0.15926354073E-01 0.  0.
         14    1    1    2    0    0 -0.16928871939E-01  0.50055121725E-02  0.16006969548E-01  0.23829916730E-01  0.00000000000E+00 0.  1.
     999901    1    3    3    0    0 -0.55507110415E-01 -0.10078792963E+00  0.36110325612E-01  0.88822474728E+00  0.88000000000E+00 0.  1.
        -11    1    4    4    0    0  0.37942420156E-01  0.61583259265E-01 -0.27190356567E-01  0.77276786166E-01  0.51100000000E-03 0.  1.
         11    1    4    4    0    0  0.34493562198E-01  0.34199158193E-01 -0.24926938593E-01  0.54598549824E-01  0.51100000000E-03 0. -1.
</event>
<event>
 8    1  0.1088021E+005  0.1043930E+01  0.7957747E-01            NaN
         13   -1    0    0    0    0  0.00000000000E+00  0.00000000000E+00  0.74505805969E-08  0.10566000000E+00  0.10566000000E+00 0. -1.
     999900   -1    0    0    0    0 -0.00000000000E+00 -0.00000000000E+00 -0.74505805969E-08  0.93827000000E+00  0.93827000000E+00 0.  1.
     999902    2    1    2    0    0  0.14530815461E-01 -0.17097149630E-02 -0.18787834735E-01  0.10201171787E+01  0.10198392069E+01 0.  0.
     999903    2    3    3    0    0  0.20450088382E-01 -0.11153837526E+00  0.59513745177E-01  0.12982031260E+00  0.21269988874E-01 0.  0.
         14    1    1    2    0    0 -0.14530815461E-01  0.17097149630E-02  0.18787834735E-01  0.23812821278E-01  0.00000000000E+00 0. -1.
     999901    1    3    3    0    0 -0.59192729214E-02  0.10982866030E+00 -0.78301579912E-01  0.89029686612E+00  0.88000000000E+00 0. -1.
        -11    1    4    4    0    0  0.18325495057E-01 -0.53717355044E-01  0.22068903581E-01  0.60898896774E-01  0.51100000000E-03 0.  1.
         11    1    4    4    0    0  0.21245933254E-02 -0.57821020219E-01  0.37444841596E-01  0.68921415823E-01  0.51100000000E-03 0. -1.
</event>
<event>
 8    1  0.1088021E+005  0.1043930E+01  0.7957747E-01            NaN
         13   -1    0    0    0    0  0.00000000000E+00  0.00000000000E+00  0.74505805969E-08  0.10566000000E+00  0.10566000000E+00 0. -1.
     999900   -1    0    0    0    0 -0.00000000000E+00 -0.00000000000E+00 -0.74505805969E-08  0.93827000000E+00  0.93827000000E+00 0.  1.
     999902    2    1    2    0    0 -0.39184902051E-02  0.21441122406E-01  0.13316599368E-01  0.10183877191E+01  0.10180673545E+01 0.  0.
     999903    2    3    3    0    0 -0.17253534172E-01 -0.85869943982E-01 -0.88336942460E-01  0.12596016968E+00  0.19779211884E-01 0.  0.
         14    1    1    2    0    0  0.39184902051E-02 -0.21441122406E-01 -0.13316599368E-01  0.25542280913E-01  0.00000000000E+00 0.  1.
     999901    1    3    3    0    0  0.13335043967E-01  0.10731106639E+00  0.10165354183E+00  0.89242754940E+00  0.88000000000E+00 0. -1.
        -11    1    4    4    0    0 -0.19671001483E-01 -0.60775074091E-01 -0.70095209583E-01  0.94837531903E-01  0.51100000000E-03 0.  1.
         11    1    4    4    0    0  0.24174673112E-02 -0.25094869891E-01 -0.18241732877E-01  0.31122637781E-01  0.51100000000E-03 0. -1.
</event>
<event>
 7    1  0.1088021E+005  0.1043930E+01  0.7957747E-01            NaN
         13   -1    0    0    0    0  0.00000000000E+00  0.00000000000E+00  0.74505805969E-08  0.10566000000E+00  0.10566000000E+00 0. -1.
     999900   -1    0    0    0    0 -0.00000000000E+00 -0.00000000000E+00 -0.74505805969E-08  0.93827000000E+00  0.93827000000E+00 0.  1.
     999903    2    1    2    0    0  0.25505618124E-01  0.97825158150E-01  0.41381109509E-01  0.11069196355E+00  0.17889003561E-01 0.  0.
         14    1    1    2    0    0  0.35668709354E-01  0.53798736581E-02  0.22977458640E-01  0.42768720732E-01  0.00000000000E+00 0. -1.
     999901    1    1    2    0    0 -0.61174327477E-01 -0.10320503181E+00 -0.64358568149E-01  0.89046931571E+00  0.88000000000E+00 0.  1.
        -11    1    3    3    0    0  0.19094958396E-01  0.42399633101E-01  0.23466790620E-01  0.52089324302E-01  0.51100000000E-03 0.  1.
         11    1    3    3    0    0  0.64106597280E-02  0.55425525049E-01  0.17914318889E-01  0.58602639253E-01  0.51100000000E-03 0. -1.
</event>
<event>
 7    1  0.1088021E+005  0.1043930E+01  0.7957747E-01            NaN
         13   -1    0    0    0    0  0.00000000000E+00  0.00000000000E+00  0.74505805969E-08  0.10566000000E+00  0.10566000000E+00 0. -1.
     999900   -1    0    0    0    0 -0.00000000000E+00 -0.00000000000E+00 -0.74505805969E-08  0.93827000000E+00  0.93827000000E+00 0. -1.
     999903    2    1    2    0    0  0.59693370702E-01  0.58461174857E-01 -0.21006570931E-01  0.88922579706E-01  0.22021391597E-01 0.  0.
         14    1    1    2    0    0  0.28811095426E-01 -0.35470927798E-01 -0.49617598043E-01  0.67454962561E-01  0.00000000000E+00 0.  1.
     999901    1    1    2    0    0 -0.88504466128E-01 -0.22990247059E-01  0.70624168974E-01  0.88755245773E+00  0.88000000000E+00 0.  1.
        -11    1    3    3    0    0  0.38376082763E-01  0.50267908569E-01 -0.18765291896E-01  0.65969566173E-01  0.51100000000E-03 0.  1.
         11    1    3    3    0    0  0.21317287939E-01  0.81932662884E-02 -0.22412790350E-02  0.22953013533E-01  0.51100000000E-03 0. -1.
</event>
<event>
 8    1  0.1088021E+005  0.1043930E+01  0.7957747E-01            NaN
         13   -1    0    0    0    0  0.00000000000E+00  0.00000000000E+00  0.74505805969E-08  0.10566000000E+00  0.10566000000E+00 0.  1.
     999900   -1    0    0    0    0 -0.00000000000E+00 -0.00000000000E+00 -0.74505805969E-08  0.93827000000E+00  0.93827000000E+00 0. -1.
     999902    2    1    2    0    0 -0.23003331956E-01 -0.48752857208E-02 -0.50138434577E-02  0.10198871150E+01  0.10196036814E+01 0.  0.
     999903    2    3    3    0    0  0.98687562502E-01  0.64677024121E-01  0.44206234825E-01  0.12743610028E+00  0.19063473358E-01 0.  0.
         14    1    1    2    0    0  0.23003331956E-01  0.48752857208E-02  0.50138434577E-02  0.24042884980E-01  0.00000000000E+00 0.  1.
     999901    1    3    3    0    0 -0.12169089446E+00 -0.69552309842E-01 -0.49220078283E-01  0.89245101474E+00  0.88000000000E+00 0. -1.
        -11    1    4    4    0    0  0.28399017571E-01  0.11197987581E-01  0.55788605583E-02  0.31036815735E-01  0.51100000000E-03 0.  1.
         11    1    4    4    0    0  0.70288544931E-01  0.53479036540E-01  0.38627374267E-01  0.96399284549E-01  0.51100000000E-03 0. -1.
</event>
<event>
 8    1  0.1088021E+005  0.1043930E+01  0.7957747E-01            NaN
         13   -1    0    0    0    0  0.00000000000E+00  0.00000000000E+00  0.74505805969E-08  0.10566000000E+00  0.10566000000E+00 0.  1.
     999900   -1    0    0    0    0 -0.00000000000E+00 -0.00000000000E+00 -0.74505805969E-08  0.93827000000E+00  0.93827000000E+00 0.  1.
     999902    2    1    2    0    0  0.12866737576E-01 -0.18899736947E-01 -0.31440304320E-02  0.10208510503E+01  0.10205901376E+01 0.  0.
     999903    2    3    3    0    0 -0.10077474632E-01  0.25047589707E-01  0.12542952408E+00  0.13012720795E+00  0.21716065278E-01 0.  0.
         14    1    1    2    0    0 -0.12866737576E-01  0.18899736947E-01  0.31440304320E-02  0.23078949714E-01  0.00000000000E+00 0.  1.
     999901    1    3    3    0    0  0.22944212208E-01 -0.43947326654E-01 -0.12857355451E+00  0.89072384234E+00  0.88000000000E+00 0.  1.
        -11    1    4    4    0    0 -0.14155956146E-01  0.64181715934E-02  0.54151763451E-01  0.56340559341E-01  0.51100000000E-03 0.  1.
         11    1    4    4    0    0  0.40784815133E-02  0.18629418113E-01  0.71277760632E-01  0.73786648605E-01  0.51100000000E-03 0. -1.
</event>
<event>
 8    1  0.1088021E+005  0.1043930E+01  0.7957747E-01            NaN
         13   -1    0    0    0    0  0.00000000000E+00  0.00000000000E+00  0.74505805969E-08  0.10566000000E+00  0.10566000000E+00 0. -1.
     999900   -1    0    0    0    0 -0.00000000000E+00 -0.00000000000E+00 -0.74505805969E-08  0.93827000000E+00  0.93827000000E+00 0.  1.
     999902    2    1    2    0    0  0.27491547484E-02  0.65793773371E-02 -0.22312524695E-01  0.10205057643E+01  0.10202368942E+01 0.  0.
     999903    2    3    3    0    0 -0.27360023376E-01 -0.10974214347E+00 -0.63517836690E-01  0.13138533574E+00  0.20872995431E-01 0.  0.
         14    1    1    2    0    0 -0.27491547484E-02 -0.65793773371E-02  0.22312524695E-01  0.23424235660E-01  0.00000000000E+00 0. -1.
     999901    1    3    3    0    0  0.30109178125E-01  0.11632152081E+00  0.41205311995E-01  0.88912042860E+00  0.88000000000E+00 0. -1.
        -11    1    4    4    0    0 -0.12033999295E-01 -0.30100766665E-01 -0.28025332123E-01  0.42855030679E-01  0.51100000000E-03 0.  1.
         11    1    4    4    0    0 -0.15326024081E-01 -0.79641376805E-01 -0.35492504567E-01  0.88530305065E-01  0.51100000000E-03 0. -1.
</event>
<event>
 8    1  0.1088021E+005  0.1043930E+01  0.7957747E-01            NaN
         13   -1    0    0    0    0  0.00000000000E+00  0.00000000000E+00  0.74505805969E-08  0.10566000000E+00  0.10566000000E+00 0. -1.
     999900   -1    0    0    0    0 -0.00000000000E+00 -0.00000000000E+00 -0.74505805969E-08  0.93827000000E+00  0.93827000000E+00 0. -1.
     999902    2    1    2    0    0  0.20371870928E-01 -0.11507053288E-01  0.82859110634E-02  0.10191090064E+01  0.10188066967E+01 0.  0.
     999903    2    3    3    0    0 -0.52014582874E-01  0.56662149824E-01 -0.98979360269E-01  0.12703688075E+00  0.20623754699E-01 0.  0.
         14    1    1    2    0    0 -0.20371870928E-01  0.11507053288E-01 -0.82859110634E-02  0.24820993587E-01  0.00000000000E+00 0.  1.
     999901    1    3    3    0    0  0.72386453802E-01 -0.68169203112E-01  0.10726527133E+00  0.89207212566E+00  0.88000000000E+00 0.  1.
        -11    1    4    4    0    0 -0.42193847183E-01  0.54360671333E-01 -0.79905070642E-01  0.10545370910E+00  0.51100000000E-03 0.  1.
         11    1    4    4    0    0 -0.98207356908E-02  0.23014784902E-02 -0.19074289627E-01  0.21583171651E-01  0.51100000000E-03 0. -1.
</event>
<event>
 8    1  0.1088021E+005  0.1043930E+01  0.7957747E-01            NaN
         13   -1    0    0    0    0  0.00000000000E+00  0.00000000000E+00  0.74505805969E-08  0.10566000000E+00  0.10566000000E+00 0. -1.
     999900   -1    0    0    0    0 -0.00000000000E+00 -0.00000000000E+00 -0.74505805969E-08  0.93827000000E+00  0.93827000000E+00 0.  1.
     999902    2    1    2    0    0  0.21256114461E-01  0.90287175681E-02 -0.88830845197E-03  0.10208187639E+01  0.10205571123E+01 0.  0.
     999903    2    3    3    0    0  0.85768992930E-01  0.21715302074E-01 -0.97377123452E-01  0.13310656259E+00  0.20178660489E-01 0.  0.
         14    1    1    2    0    0 -0.21256114461E-01 -0.90287175681E-02  0.88830845197E-03  0.23111236116E-01  0.00000000000E+00 0. -1.
     999901    1    3    3    0    0 -0.64512878469E-01 -0.12686584506E-01  0.96488815000E-01  0.88771220130E+00  0.88000000000E+00 0. -1.
        -11    1    4    4    0    0  0.29138106685E-01 -0.16137337795E-02 -0.36686260735E-01  0.46880446303E-01  0.51100000000E-03 0.  1.
         11    1    4    4    0    0  0.56630886245E-01  0.23329035854E-01 -0.60690862717E-01  0.86226116282E-01  0.51100000000E-03 0. -1.
</event>
<event>
 8    1  0.1088021E+005  0.1043930E+01  0.7957747E-01            NaN
         13   -1    0    0    0    0  0.00000000000E+00  0.00000000000E+00  0.74505805969E-08  0.10566000000E+00  0.10566000000E+00 0. -1.
     999900   -1    0    0    0    0 -0.00000000000E+00 -0.00000000000E+00 -0.74505805969E-08  0.93827000000E+00  0.93827000000E+00 0.  1.
     999902    2    1    2    0    0 -0.68062544719E-02  0.22786966234E-01  0.36412770925E-02  0.10198711175E+01  0.10195873020E+01 0.  0.
     999903    2    3    3    0    0  0.51447095822E-01  0.87802985383E-01 -0.81242685176E-01  0.13148729128E+00  0.18230906829E-01 0.  0.
         14    1    1    2    0    0  0.68062544719E-02 -0.22786966234E-01 -0.36412770925E-02  0.24058882537E-01  0.00000000000E+00 0.  1.
     999901    1    3    3    0    0 -0.58253350294E-01 -0.65016019149E-01  0.84883962269E-01  0.88838382618E+00  0.88000000000E+00 0. -1.
        -11    1    4    4    0    0  0.28468883011E-01  0.34068684978E-01 -0.28475955211E-01  0.52747452471E-01  0.51100000000E-03 0.  1.
         11    1    4    4    0    0  0.22978212811E-01  0.53734300405E-01 -0.52766729966E-01  0.78739838813E-01  0.51100000000E-03 0. -1.
</event>
<event>
 8    1  0.1088021E+005  0.1043930E+01  0.7957747E-01            NaN
         13   -1    0    0    0    0  0.00000000000E+00  0.00000000000E+00  0.74505805969E-08  0.10566000000E+00  0.10566000000E+00 0.  1.
     999900   -1    0    0    0    0 -0.00000000000E+00 -0.00000000000E+00 -0.74505805969E-08  0.93827000000E+00  0.93827000000E+00 0.  1.
     999902    2    1    2    0    0 -0.89352995724E-02  0.14206994914E-01  0.18326376224E-01  0.10190797616E+01  0.10187767303E+01 0.  0.
     999903    2    3    3    0    0  0.36774803213E-01  0.79369450461E-02  0.12446715284E+00  0.13150182616E+00  0.19628471654E-01 0.  0.
         14    1    1    2    0    0  0.89352995724E-02 -0.14206994914E-01 -0.18326376224E-01  0.24850238398E-01  0.00000000000E+00 0. -1.
     999901    1    3    3    0    0 -0.45710102786E-01  0.62700498679E-02 -0.10614077662E+00  0.88757793544E+00  0.88000000000E+00 0.  1.
        -11    1    4    4    0    0  0.16165854152E-01  0.21599799212E-02  0.25712835748E-01  0.30453429969E-01  0.51100000000E-03 0. -1.
         11    1    4    4    0    0  0.20608949062E-01  0.57769651249E-02  0.98754317092E-01  0.10104839619E+00  0.51100000000E-03 0.  1.
</event>
<event>
 8    1  0.1088021E+005  0.1043930E+01  0.7957747E-01            NaN
         13   -1    0    0    0    0  0.00000000000E+00  0.00000000000E+00  0.74505805969E-08  0.10566000000E+00  0.10566000000E+00 0. -1.
     999900   -1    0    0    0    0 -0.00000000000E+00 -0.00000000000E+00 -0.74505805969E-08  0.93827000000E+00  0.93827000000E+00 0. -1.
     999902    2    1    2    0    0 -0.39192204947E-02  0.21382980463E-01  0.90564838950E-02  0.10203797974E+01  0.10201079937E+01 0.  0.
     999903    2    3    3    0    0  0.87909346795E-01 -0.31818582976E-01 -0.86204969708E-01  0.12889921057E+00  0.21053128189E-01 0.  0.
         14    1    1    2    0    0  0.39192204947E-02 -0.21382980463E-01 -0.90564838950E-02  0.23550202617E-01  0.00000000000E+00 0.  1.
     999901    1    3    3    0    0 -0.91828567290E-01  0.53201563439E-01  0.95261453603E-01  0.89148058681E+00  0.88000000000E+00 0.  1.
        -11    1    4    4    0    0  0.49834592683E-01 -0.16454759296E-01 -0.34219851399E-01  0.62653851295E-01  0.51100000000E-03 0. -1.
         11    1    4    4    0    0  0.38074754112E-01 -0.15363823680E-01 -0.51985118309E-01  0.66245359274E-01  0.51100000000E-03 0.  1.
</event>
<event>
 8    1  0.1088021E+005  0.1043930E+01  0.7957747E-01            NaN
         13   -1    0    0    0    0  0.00000000000E+00  0.00000000000E+00  0.74505805969E-08  0.10566000000E+00  0.10566000000E+00 0.  1.
     999900   -1    0    0    0    0 -0.00000000000E+00 -0.00000000000E+00 -0.74505805969E-08  0.93827000000E+00  0.93827000000E+00 0.  1.
     999902    2    1    2    0    0 -0.10606908932E-01 -0.52092940042E-02 -0.20364713683E-01  0.10203850467E+01  0.10201133656E+01 0.  0.
     999903    2    3    3    0    0  0.78273581317E-01 -0.95989069299E-01 -0.37998856025E-01  0.13108663105E+00  0.19978408956E-01 0.  0.
         14    1    1    2    0    0  0.10606908932E-01  0.52092940042E-02  0.20364713683E-01  0.23544953270E-01  0.00000000000E+00 0.  1.
     999901    1    3    3    0    0 -0.88880490249E-01  0.90779775295E-01  0.17634142342E-01  0.88929841568E+00  0.88000000000E+00 0. -1.
        -11    1    4    4    0    0  0.62659316788E-01 -0.75018098645E-01 -0.38174651574E-01  0.10493555283E+00  0.51100000000E-03 0.  1.
         11    1    4    4    0    0  0.15614264529E-01 -0.20970970655E-01  0.17579554862E-03  0.26151078220E-01  0.51100000000E-03 0. -1.
</event>
<event>
 8    1  0.1088021E+005  0.1043930E+01  0.7957747E-01            NaN
         13   -1    0    0    0    0  0.00000000000E+00  0.00000000000E+00  0.74505805969E-08  0.10566000000E+00  0.10566000000E+00 0. -1.
     999900   -1    0    0    0    0 -0.00000000000E+00 -0.00000000000E+00 -0.74505805969E-08  0.93827000000E+00  0.93827000000E+00 0.  1.
     999902    2    1    2    0    0  0.36436542877E-02 -0.23122762534E-01 -0.17677907564E-02  0.10204552594E+01  0.10201852150E+01 0.  0.
     999903    2    3    3    0    0  0.96180223414E-01  0.33200907428E-01 -0.79748880076E-01  0.13038985575E+00  0.16991026411E-01 0.  0.
         14    1    1    2    0    0 -0.36436542877E-02  0.23122762534E-01  0.17677907564E-02  0.23474740636E-01  0.00000000000E+00 0.  1.
     999901    1    3    3    0    0 -0.92536569127E-01 -0.56323669961E-01  0.77981089319E-01  0.89006540362E+00  0.88000000000E+00 0. -1.
        -11    1    4    4    0    0  0.68965273938E-01  0.31557301041E-01 -0.56947043201E-01  0.94843550696E-01  0.51100000000E-03 0. -1.
         11    1    4    4    0    0  0.27214949476E-01  0.16436063870E-02 -0.22801836875E-01  0.35546305051E-01  0.51100000000E-03 0.  1.
</event>
<event>
 8    1  0.1088021E+005  0.1043930E+01  0.7957747E-01            NaN
         13   -1    0    0    0    0  0.00000000000E+00  0.00000000000E+00  0.74505805969E-08  0.10566000000E+00  0.10566000000E+00 0. -1.
     999900   -1    0    0    0    0 -0.00000000000E+00 -0.00000000000E+00 -0.74505805969E-08  0.93827000000E+00  0.93827000000E+00 0.  1.
     999902    2    1    2    0    0 -0.97408266806E-02  0.17212088843E-01  0.17133235048E-01  0.10177634670E+01  0.10174270427E+01 0.  0.
     999903    2    3    3    0    0 -0.58788474070E-01 -0.60513168201E-01  0.95539957372E-01  0.12950984251E+00  0.22956211403E-01 0.  0.
         14    1    1    2    0    0  0.97408266806E-02 -0.17212088843E-01 -0.17133235048E-01  0.26166533014E-01  0.00000000000E+00 0.  1.
     999901    1    3    3    0    0  0.49047647389E-01  0.77725257044E-01 -0.78406722324E-01  0.88825362448E+00  0.88000000000E+00 0.  1.
        -11    1    4    4    0    0 -0.25127042630E-01 -0.12855788778E-01  0.22984991898E-01  0.36403441458E-01  0.51100000000E-03 0. -1.
         11    1    4    4    0    0 -0.33661431439E-01 -0.47657379423E-01  0.72554965475E-01  0.93106401048E-01  0.51100000000E-03 0.  1.
</event>
<event>
 8    1  0.1088021E+005  0.1043930E+01  0.7957747E-01            NaN
         13   -1    0    0    0    0  0.00000000000E+00  0.00000000000E+00  0.74505805969E-08  0.10566000000E+00  0.10566000000E+00 0.  1.
     999900   -1    0    0    0    0 -0.00000000000E+00 -0.00000000000E+00 -0.74505805969E-08  0.93827000000E+00  0.93827000000E+00 0.  1.
     999902    2    1    2    0    0  0.19012441557E-01 -0.11370557248E-01  0.89157444428E-02  0.10200500292E+01  0.10197704688E+01 0.  0.
     999903    2    3    3    0    0  0.16648220238E-02  0.12444095087E+00  0.28138737098E-01  0.12925531150E+00  0.20659746871E-01 0.  0.
         14    1    1    2    0    0 -0.19012441557E-01  0.11370557248E-01 -0.89157444428E-02  0.23879970793E-01  0.00000000000E+00 0.  1.
     999901    1    3    3    0    0  0.17347619534E-01 -0.13581150812E+00 -0.19222992655E-01  0.89079471770E+00  0.88000000000E+00 0. -1.
        -11    1    4    4    0    0  0.93371608941E-02  0.71970954880E-01  0.22189234847E-01  0.75892187899E-01  0.51100000000E-03 0. -1.
         11    1    4    4    0    0 -0.76723388703E-02  0.52469995989E-01  0.59495022505E-02  0.53363123605E-01  0.51100000000E-03 0.  1.
</event>
<event>
 7    1  0.1098769E+005  0.1043930E+01  0.7957747E-01            NaN
         13   -1    0    0    0    0  0.00000000000E+00  0.00000000000E+00  0.74505805969E-08  0.10566000000E+00  0.10566000000E+00 0.  1.
     999900   -1    0    0    0    0 -0.00000000000E+00 -0.00000000000E+00 -0.74505805969E-08  0.93827000000E+00  0.93827000000E+00 0.  1.
     999903    2    1    2    0    0 -0.31263906424E-02 -0.60684545894E-01 -0.47925279798E-01  0.79878041849E-01  0.19780816389E-01 0.  0.
         14    1    1    2    0    0  0.13496158245E-01  0.33387961715E-01 -0.67033535491E-01  0.76094659178E-01  0.00000000000E+00 0. -1.
     999901    1    1    2    0    0 -0.10369767603E-01  0.27296584179E-01  0.11495881529E+00  0.88795729897E+00  0.88000000000E+00 0. -1.
        -11    1    3    3    0    0 -0.10928927296E-02 -0.50720789970E-01 -0.29132848524E-01  0.58504503535E-01  0.51100000000E-03 0. -1.
         11    1    3    3    0    0 -0.20334979128E-02 -0.99637559239E-02 -0.18792431274E-01  0.21373538314E-01  0.51100000000E-03 0.  1.
</event>
<event>
 8    1  0.1088021E+005  0.1043930E+01  0.7957747E-01            NaN
         13   -1    0    0    0    0  0.00000000000E+00  0.00000000000E+00  0.74505805969E-08  0.10566000000E+00  0.10566000000E+00 0.  1.
     999900   -1    0    0    0    0 -0.00000000000E+00 -0.00000000000E+00 -0.74505805969E-08  0.93827000000E+00  0.93827000000E+00 0. -1.
     999902    2    1    2    0    0  0.38482546620E-03  0.27003880384E-02 -0.23657037414E-01  0.10201162308E+01  0.10198382365E+01 0.  0.
     999903    2    3    3    0    0  0.14413313450E-03  0.78735591069E-01  0.99364377218E-01  0.12831149962E+00  0.19779974684E-01 0.  0.
         14    1    1    2    0    0 -0.38482546620E-03 -0.27003880384E-02  0.23657037414E-01  0.23813769240E-01  0.00000000000E+00 0.  1.
     999901    1    3    3    0    0  0.24069233170E-03 -0.76035203030E-01 -0.12302141463E+00  0.89180473114E+00  0.88000000000E+00 0. -1.
        -11    1    4    4    0    0  0.53492508354E-02  0.18595554991E-01  0.35484645014E-01  0.40420666777E-01  0.51100000000E-03 0. -1.
         11    1    4    4    0    0 -0.52051177009E-02  0.60140036078E-01  0.63879732204E-01  0.87890832839E-01  0.51100000000E-03 0.  1.
</event>
<event>
 8    1  0.1088021E+005  0.1043930E+01  0.7957747E-01            NaN
         13   -1    0    0    0    0  0.00000000000E+00  0.00000000000E+00  0.74505805969E-08  0.10566000000E+00  0.10566000000E+00 0. -1.
     999900   -1    0    0    0    0 -0.00000000000E+00 -0.00000000000E+00 -0.74505805969E-08  0.93827000000E+00  0.93827000000E+00 0.  1.
     999902    2    1    2    0    0  0.10973143275E-01 -0.16047173356E-01  0.15428306630E-01  0.10191115735E+01  0.10188093271E+01 0.  0.
     999903    2    3    3    0    0 -0.10909072859E-01  0.66049645822E-02  0.12890240017E+00  0.13126681198E+00  0.21272370129E-01 0.  0.
         14    1    1    2    0    0 -0.10973143275E-01  0.16047173356E-01 -0.15428306630E-01  0.24818426451E-01  0.00000000000E+00 0. -1.
     999901    1    3    3    0    0  0.21882216134E-01 -0.22652137938E-01 -0.11347409354E+00  0.88784476157E+00  0.88000000000E+00 0.  1.
        -11    1    4    4    0    0 -0.28771078151E-03  0.12398688126E-01  0.75063962776E-01  0.76083308770E-01  0.51100000000E-03 0.  1.
         11    1    4    4    0    0 -0.10621362078E-01 -0.57937235436E-02  0.53838437393E-01  0.55183503213E-01  0.51100000000E-03 0. -1.
</event>
<event>
 8    1  0.1088021E+005  0.1043930E+01  0.7957747E-01            NaN
         13   -1    0    0    0    0  0.00000000000E+00  0.00000000000E+00  0.74505805969E-08  0.10566000000E+00  0.10566000000E+00 0. -1.
     999900   -1    0    0    0    0 -0.00000000000E+00 -0.00000000000E+00 -0.74505805969E-08  0.93827000000E+00  0.93827000000E+00 0. -1.
     999902    2    1    2    0    0  0.19207334382E-01  0.13522566931E-01  0.52260017770E-02  0.10198656570E+01  0.10195817111E+01 0.  0.
     999903    2    3    3    0    0  0.35761691178E-01  0.11591363410E+00  0.49866321505E-01  0.13265049958E+00  0.19865444723E-01 0.  0.
         14    1    1    2    0    0 -0.19207334382E-01 -0.13522566931E-01 -0.52260017770E-02  0.24064343021E-01  0.00000000000E+00 0.  1.
     999901    1    3    3    0    0 -0.16554356796E-01 -0.10239106717E+00 -0.44640319728E-01  0.88721515739E+00  0.88000000000E+00 0. -1.
        -11    1    4    4    0    0  0.13188705422E-01  0.66835177610E-01  0.35147045867E-01  0.76658064618E-01  0.51100000000E-03 0.  1.
         11    1    4    4    0    0  0.22572985756E-01  0.49078456488E-01  0.14719275637E-01  0.55992434967E-01  0.51100000000E-03 0. -1.
</event>
<event>
 8    1  0.1088021E+005  0.1043930E+01  0.7957747E-01            NaN
         13   -1    0    0    0    0  0.00000000000E+00  0.00000000000E+00  0.74505805969E-08  0.10566000000E+00  0.10566000000E+00 0. -1.
     999900   -1    0    0    0    0 -0.00000000000E+00 -0.00000000000E+00 -0.74505805969E-08  0.93827000000E+00  0.93827000000E+00 0. -1.
     999902    2    1    2    0    0 -0.77872259555E-02  0.17287163208E-02 -0.22614772596E-01  0.10199496479E+01  0.10196677042E+01 0.  0.
     999903    2    3    3    0    0 -0.69596689837E-01 -0.10837188589E+00 -0.10645043919E-01  0.13085694921E+00  0.20544082049E-01 0.  0.
         14    1    1    2    0    0  0.77872259555E-02 -0.17287163208E-02  0.22614772596E-01  0.23980352120E-01  0.00000000000E+00 0. -1.
     999901    1    3    3    0    0  0.61809463881E-01  0.11010060221E+00 -0.11969728677E-01  0.88909269868E+00  0.88000000000E+00 0. -1.
        -11    1    4    4    0    0 -0.25110657977E-02 -0.15183426310E-01 -0.36145543267E-02  0.15816700349E-01  0.51100000000E-03 0.  1.
         11    1    4    4    0    0 -0.67085624039E-01 -0.93188459582E-01 -0.70304895924E-02  0.11504024886E+00  0.51100000000E-03 0. -1.
</event>
<event>
 8    1  0.1088021E+005  0.1043930E+01  0.7957747E-01            NaN
         13   -1    0    0    0    0  0.00000000000E+00  0.00000000000E+00  0.74505805969E-08  0.10566000000E+00  0.10566000000E+00 0. -1.
     999900   -1    0    0    0    0 -0.00000000000E+00 -0.00000000000E+00 -0.74505805969E-08  0.93827000000E+00  0.93827000000E+00 0.  1.
     999902    2    1    2    0    0 -0.13852341543E-01 -0.12677368431E-01 -0.14898231806E-01  0.10199600115E+01  0.10196783144E+01 0.  0.
     999903    2    3    3    0    0  0.10877471649E+00 -0.65373892758E-01  0.15045502306E-01  0.12939224529E+00  0.20255893008E-01 0.  0.
         14    1    1    2    0    0  0.13852341543E-01  0.12677368431E-01  0.14898231806E-01  0.23969988475E-01  0.00000000000E+00 0. -1.
     999901    1    3    3    0    0 -0.12262705803E+00  0.52696524328E-01 -0.29943734113E-01  0.89056776623E+00  0.88000000000E+00 0. -1.
        -11    1    4    4    0    0  0.50660426321E-01 -0.39430072285E-01  0.14159582809E-01  0.65741648152E-01  0.51100000000E-03 0.  1.
         11    1    4    4    0    0  0.58114290165E-01 -0.25943820473E-01  0.88591949719E-03  0.63650597142E-01  0.51100000000E-03 0. -1.
</event>
<event>
 8    1  0.1088021E+005  0.1043930E+01  0.7957747E-01            NaN
         13   -1    0    0    0    0  0.00000000000E+00  0.00000000000E+00  0.74505805969E-08  0.10566000000E+00  0.10566000000E+00 0.  1.
     999900   -1    0    0    0    0 -0.00000000000E+00 -0.00000000000E+00 -0.74505805969E-08  0.93827000000E+00  0.93827000000E+00 0.  1.
     999902    2    1    2    0    0 -0.10239649400E-01  0.10848400409E-01  0.18168661899E-01  0.10204217358E+01  0.10201509106E+01 0.  0.
     999903    2    3    3    0    0  0.65978715111E-01 -0.92268042900E-01 -0.55758062405E-01  0.12806115814E+00  0.20594079542E-01 0.  0.
         14    1    1    2    0    0  0.10239649400E-01 -0.10848400409E-01 -0.18168661899E-01  0.23508264216E-01  0.00000000000E+00 0.  1.
     999901    1    3    3    0    0 -0.76218364511E-01  0.10311644331E+00  0.73926724304E-01  0.89236057765E+00  0.88000000000E+00 0.  1.
        -11    1    4    4    0    0  0.26273430682E-01 -0.26515822469E-01 -0.26870800967E-01  0.45996554943E-01  0.51100000000E-03 0.  1.
         11    1    4    4    0    0  0.39705284429E-01 -0.65752220431E-01 -0.28887261438E-01  0.82064603195E-01  0.51100000000E-03 0. -1.
</event>
<event>
 8    1  0.1088021E+005  0.1043930E+01  0.7957747E-01            NaN
         13   -1    0    0    0    0  0.00000000000E+00  0.00000000000E+00  0.74505805969E-08  0.10566000000E+00  0.10566000000E+00 0.  1.
     999900   -1    0    0    0    0 -0.00000000000E+00 -0.00000000000E+00 -0.74505805969E-08  0.93827000000E+00  0.93827000000E+00 0.  1.
     999902    2    1    2    0    0  0.89290698172E-03  0.10863395202E-01 -0.21043737072E-01  0.10202308543E+01  0.10199555610E+01 0.  0.
     999903    2    3    3    0    0  0.92050182996E-01 -0.61684505714E-01  0.61771430409E-01  0.12869779327E+00  0.21660977423E-01 0.  0.
         14    1    1    2    0    0 -0.89290698172E-03 -0.10863395202E-01  0.21043737072E-01  0.23699145726E-01  0.00000000000E+00 0.  1.
     999901    1    3    3    0    0 -0.91157276014E-01  0.72547900916E-01 -0.82815167481E-01  0.89153306100E+00  0.88000000000E+00 0.  1.
        -11    1    4    4    0    0  0.47165084067E-02 -0.10869059618E-01  0.67450822197E-02  0.13643282731E-01  0.51100000000E-03 0. -1.
         11    1    4    4    0    0  0.87333674590E-01 -0.50815446096E-01  0.55026348189E-01  0.11505451054E+00  0.51100000000E-03 0.  1.
</event>
<event>
 8    1  0.1088021E+005  0.1043930E+01  0.7957747E-01            NaN
         13   -1    0    0    0    0  0.00000000000E+00  0.00000000000E+00  0.74505805969E-08  0.10566000000E+00  0.10566000000E+00 0.  1.
     999900   -1    0    0    0    0 -0.00000000000E+00 -0.00000000000E+00 -0.74505805969E-08  0.93827000000E+00  0.93827000000E+00 0. -1.
     999902    2    1    2    0    0  0.11436272555E-01  0.18843713180E-01  0.12751958372E-01  0.10184646059E+01  0.10181461914E+01 0.  0.
     999903    2    3    3    0    0  0.20579960747E-01 -0.45447812909E-01  0.11804480948E+00  0.12981192238E+00  0.20676548668E-01 0.  0.
         14    1    1    2    0    0 -0.11436272555E-01 -0.18843713180E-01 -0.12751958372E-01  0.25465394139E-01  0.00000000000E+00 0. -1.
     999901    1    3    3    0    0 -0.91436881921E-02  0.64291526088E-01 -0.10529285111E+00  0.88865268348E+00  0.88000000000E+00 0.  1.
        -11    1    4    4    0    0  0.12458327017E-01 -0.31059717297E-01  0.99456251396E-01  0.10493675721E+00  0.51100000000E-03 0. -1.
         11    1    4    4    0    0  0.81216337305E-02 -0.14388095611E-01  0.18588558083E-01  0.24875165173E-01  0.51100000000E-03 0.  1.
</event>
<event>
 8    1  0.1201110E+005  0.1043930E+01  0.7957747E-01            NaN
         13   -1    0    0    0    0  0.00000000000E+00  0.00000000000E+00  0.74505805969E-08  0.10566000000E+00  0.10566000000E+00 0. -1.
     999900   -1    0    0    0    0 -0.00000000000E+00 -0.00000000000E+00 -0.74505805969E-08  0.93827000000E+00  0.93827000000E+00 0. -1.
     999902    2    1    2    0    0 -0.30295501598E-02 -0.86742092371E-02  0.21723188691E-01  0.10203436267E+01  0.10200709777E+01 0.  0.
     999903    2    3    3    0    0 -0.60435178942E-01  0.10794358852E+00  0.37043845991E-01  0.13066399921E+00  0.19914944322E-01 0.  0.
         14    1    1    2    0    0  0.30295501598E-02  0.86742092371E-02 -0.21723188691E-01  0.23586373332E-01  0.00000000000E+00 0.  1.
     999901    1    3    3    0    0  0.57405628782E-01 -0.11661779776E+00 -0.15320657300E-01  0.88967962746E+00  0.88000000000E+00 0.  1.
        -11    1    4    4    0    0 -0.34334066848E-01  0.77735149304E-01  0.30001427428E-01  0.90121741840E-01  0.51100000000E-03 0. -1.
         11    1    4    4    0    0 -0.26101112094E-01  0.30208439218E-01  0.70424185635E-02  0.40542257371E-01  0.51100000000E-03 0.  1.
</event>
<event>
 8    1  0.1088021E+005  0.1043930E+01  0.7957747E-01            NaN
         13   -1    0    0    0    0  0.00000000000E+00  0.00000000000E+00  0.74505805969E-08  0.10566000000E+00  0.10566000000E+00 0. -1.
     999900   -1    0    0    0    0 -0.00000000000E+00 -0.00000000000E+00 -0.74505805969E-08  0.93827000000E+00  0.93827000000E+00 0. -1.
     999902    2    1    2    0    0  0.28677179057E-01  0.23848277792E-01  0.21383757962E-03  0.10066316531E+01  0.10059404149E+01 0.  0.
     999903    2    3    3    0    0  0.94663541383E-01 -0.60317714562E-01 -0.35264636740E-01  0.11944687169E+00  0.20604557651E-01 0.  0.
         14    1    1    2    0    0 -0.28677179057E-01 -0.23848277792E-01 -0.21383757962E-03  0.37298346864E-01  0.00000000000E+00 0.  1.
     999901    1    3    3    0    0 -0.65986362326E-01  0.84165992353E-01  0.35478474319E-01  0.88718478144E+00  0.88000000000E+00 0.  1.
        -11    1    4    4    0    0  0.80997409082E-01 -0.48243392181E-01 -0.21779222818E-01  0.96760533456E-01  0.51100000000E-03 0. -1.
         11    1    4    4    0    0  0.13666132301E-01 -0.12074322381E-01 -0.13485413921E-01  0.22686338238E-01  0.51100000000E-03 0.  1.
</event>
<event>
 8    1  0.1088021E+005  0.1043930E+01  0.7957747E-01            NaN
         13   -1    0    0    0    0  0.00000000000E+00  0.00000000000E+00  0.74505805969E-08  0.10566000000E+00  0.10566000000E+00 0.  1.
     999900   -1    0    0    0    0 -0.00000000000E+00 -0.00000000000E+00 -0.74505805969E-08  0.93827000000E+00  0.93827000000E+00 0.  1.
     999902    2    1    2    0    0  0.22505210815E-03 -0.13994561769E-01 -0.18160422337E-01  0.10210018656E+01  0.10207443902E+01 0.  0.
     999903    2    3    3    0    0  0.14478506313E-01 -0.11678402321E+00  0.55898816062E-01  0.13181481828E+00  0.20058251635E-01 0.  0.
         14    1    1    2    0    0 -0.22505210815E-03  0.13994561769E-01  0.18160422337E-01  0.22928134399E-01  0.00000000000E+00 0.  1.
     999901    1    3    3    0    0 -0.14253454205E-01  0.10278946144E+00 -0.74059238399E-01  0.88918704733E+00  0.88000000000E+00 0.  1.
        -11    1    4    4    0    0  0.44939465675E-02 -0.83481978504E-01  0.31516945767E-01  0.89347721192E-01  0.51100000000E-03 0.  1.
         11    1    4    4    0    0  0.99845597453E-02 -0.33302044702E-01  0.24381870295E-01  0.42467097084E-01  0.51100000000E-03 0. -1.
</event>
<event>
 8    1  0.1088021E+005  0.1043930E+01  0.7957747E-01            NaN
         13   -1    0    0    0    0  0.00000000000E+00  0.00000000000E+00  0.74505805969E-08  0.10566000000E+00  0.10566000000E+00 0.  1.
     999900   -1    0    0    0    0 -0.00000000000E+00 -0.00000000000E+00 -0.74505805969E-08  0.93827000000E+00  0.93827000000E+00 0. -1.
     999902    2    1    2    0    0 -0.36913678655E-02 -0.21101763927E-01 -0.10908787836E-01  0.10198901936E+01  0.10196068334E+01 0.  0.
     999903    2    3    3    0    0  0.39480741870E-01  0.23158143330E-01 -0.12085872630E+00  0.13089539084E+00  0.20778427257E-01 0.  0.
         14    1    1    2    0    0  0.36913678655E-02  0.21101763927E-01  0.10908787836E-01  0.24039806355E-01  0.00000000000E+00 0.  1.
     999901    1    3    3    0    0 -0.43172109736E-01 -0.44259907257E-01  0.10994993846E+00  0.88899480281E+00  0.88000000000E+00 0.  1.
        -11    1    4    4    0    0  0.27389163432E-01  0.26021816737E-01 -0.88418942118E-01  0.96153375739E-01  0.51100000000E-03 0.  1.
         11    1    4    4    0    0  0.12091578438E-01 -0.28636734068E-02 -0.32439784180E-01  0.34742015099E-01  0.51100000000E-03 0. -1.
</event>
<event>
 8    1  0.1088021E+005  0.1043930E+01  0.7957747E-01            NaN
         13   -1    0    0    0    0  0.00000000000E+00  0.00000000000E+00  0.74505805969E-08  0.10566000000E+00  0.10566000000E+00 0. -1.
     999900   -1    0    0    0    0 -0.00000000000E+00 -0.00000000000E+00 -0.74505805969E-08  0.93827000000E+00  0.93827000000E+00 0. -1.
     999902    2    1    2    0    0  0.27599419659E-02  0.17624984486E-01  0.16790677220E-01  0.10194313429E+01  0.10191369283E+01 0.  0.
     999903    2    3    3    0    0  0.85612948060E-01  0.96604905204E-01  0.18929128383E-01  0.13201541930E+00  0.20190949644E-01 0.  0.
         14    1    1    2    0    0 -0.27599419659E-02 -0.17624984486E-01 -0.16790677220E-01  0.24498657091E-01  0.00000000000E+00 0.  1.
     999901    1    3    3    0    0 -0.82853006094E-01 -0.78979920718E-01 -0.21384511632E-02  0.88741592361E+00  0.88000000000E+00 0. -1.
        -11    1    4    4    0    0  0.49641525663E-01  0.43418908466E-01  0.38883571278E-02  0.66067110764E-01  0.51100000000E-03 0. -1.
         11    1    4    4    0    0  0.35971422397E-01  0.53185996738E-01  0.15040771255E-01  0.65948308539E-01  0.51100000000E-03 0.  1.
</event>
<event>
 7    1  0.1088021E+005  0.1043930E+01  0.7957747E-01            NaN
         13   -1    0    0    0    0  0.00000000000E+00  0.00000000000E+00  0.74505805969E-08  0.10566000000E+00  0.10566000000E+00 0. -1.
     999900   -1    0    0    0    0 -0.00000000000E+00 -0.00000000000E+00 -0.74505805969E-08  0.93827000000E+00  0.93827000000E+00 0. -1.
     999903    2    1    2    0    0  0.50378197023E-01  0.11564433466E-01 -0.65778644475E-01  0.86009911665E-01  0.19979388853E-01 0.  0.
         14    1    1    2    0    0 -0.31392135997E-01  0.64143326588E-01 -0.53077686024E-02  0.71610089763E-01  0.00000000000E+00 0. -1.
     999901    1    1    2    0    0 -0.18986061026E-01 -0.75707760054E-01  0.71086413077E-01  0.88630999857E+00  0.88000000000E+00 0. -1.
        -11    1    3    3    0    0  0.15085331843E-01  0.54487881072E-02 -0.77643632270E-02  0.17827029645E-01  0.51100000000E-03 0.  1.
         11    1    3    3    0    0  0.35292865180E-01  0.61156453584E-02 -0.58014281248E-01  0.68182882019E-01  0.51100000000E-03 0. -1.
</event>
<event>
 8    1  0.1088021E+005  0.1043930E+01  0.7957747E-01            NaN
         13   -1    0    0    0    0  0.00000000000E+00  0.00000000000E+00  0.74505805969E-08  0.10566000000E+00  0.10566000000E+00 0.  1.
     999900   -1    0    0    0    0 -0.00000000000E+00 -0.00000000000E+00 -0.74505805969E-08  0.93827000000E+00  0.93827000000E+00 0.  1.
     999902    2    1    2    0    0 -0.17811880687E-01 -0.15447502841E-01  0.60770678528E-02  0.10195821214E+01  0.10192913632E+01 0.  0.
     999903    2    3    3    0    0  0.37417063528E-01 -0.19283159138E-01  0.12156149018E+00  0.13031185860E+00  0.20787201028E-01 0.  0.
         14    1    1    2    0    0  0.17811880687E-01  0.15447502841E-01 -0.60770678528E-02  0.24347878579E-01  0.00000000000E+00 0.  1.
     999901    1    3    3    0    0 -0.55228944215E-01  0.38356562968E-02 -0.11548442233E+00  0.88927026282E+00  0.88000000000E+00 0. -1.
        -11    1    4    4    0    0  0.15058923731E-01 -0.12731382005E-01  0.82512825834E-01  0.84838003394E-01  0.51100000000E-03 0.  1.
         11    1    4    4    0    0  0.22358139797E-01 -0.65517771329E-02  0.39048664349E-01  0.45473855205E-01  0.51100000000E-03 0. -1.
</event>
<event>
 8    1  0.1088021E+005  0.1043930E+01  0.7957747E-01            NaN
         13   -1    0    0    0    0  0.00000000000E+00  0.00000000000E+00  0.74505805969E-08  0.10566000000E+00  0.10566000000E+00 0.  1.
     999900   -1    0    0    0    0 -0.00000000000E+00 -0.00000000000E+00 -0.74505805969E-08  0.93827000000E+00  0.93827000000E+00 0. -1.
     999902    2    1    2    0    0 -0.17807737324E-01  0.45386952077E-02 -0.17848461686E-01  0.10183119820E+01  0.10179896904E+01 0.  0.
     999903    2    3    3    0    0 -0.39669543012E-01  0.11908173783E+00 -0.29686046758E-01  0.13054051613E+00  0.20135343309E-01 0.  0.
         14    1    1    2    0    0  0.17807737324E-01 -0.45386952077E-02  0.17848461686E-01  0.25618018022E-01  0.00000000000E+00 0.  1.
     999901    1    3    3    0    0  0.21861805688E-01 -0.11454304262E+00  0.11837585072E-01  0.88777146585E+00  0.88000000000E+00 0.  1.
        -11    1    4    4    0    0 -0.33425847291E-01  0.98379752081E-01 -0.16492862607E-01  0.10520522099E+00  0.51100000000E-03 0.  1.
         11    1    4    4    0    0 -0.62436957215E-02  0.20701985752E-01 -0.13193184151E-01  0.25335295131E-01  0.51100000000E-03 0. -1.
</event>
<event>
 8    1  0.1088021E+005  0.1043930E+01  0.7957747E-01            NaN
         13   -1    0    0    0    0  0.00000000000E+00  0.00000000000E+00  0.74505805969E-08  0.10566000000E+00  0.10566000000E+00 0.  1.
     999900   -1    0    0    0    0 -0.00000000000E+00 -0.00000000000E+00 -0.74505805969E-08  0.93827000000E+00  0.93827000000E+00 0. -1.
     999902    2    1    2    0    0 -0.20731565757E-01 -0.26750478121E-02 -0.10025721740E-01  0.10207466267E+01  0.10204833204E+01 0.  0.
     999903    2    3    3    0    0 -0.12699535281E+00 -0.25297146104E-01  0.24763034200E-01  0.13338311086E+00  0.20250460825E-01 0.  0.
         14    1    1    2    0    0  0.20731565757E-01  0.26750478121E-02  0.10025721740E-01  0.23183373265E-01  0.00000000000E+00 0.  1.
     999901    1    3    3    0    0  0.10626378705E+00  0.22622098292E-01 -0.34788755940E-01  0.88736351588E+00  0.88000000000E+00 0. -1.
        -11    1    4    4    0    0 -0.42606665621E-01  0.66610254048E-03  0.50272089225E-02  0.42910436941E-01  0.51100000000E-03 0.  1.
         11    1    4    4    0    0 -0.84388687187E-01 -0.25963248645E-01  0.19735825277E-01  0.90472673917E-01  0.51100000000E-03 0. -1.
</event>
<event>
 8    1  0.1088021E+005  0.1043930E+01  0.7957747E-01            NaN
         13   -1    0    0    0    0  0.00000000000E+00  0.00000000000E+00  0.74505805969E-08  0.10566000000E+00  0.10566000000E+00 0. -1.
     999900   -1    0    0    0    0 -0.00000000000E+00 -0.00000000000E+00 -0.74505805969E-08  0.93827000000E+00  0.93827000000E+00 0. -1.
     999902    2    1    2    0    0 -0.11638113724E-01  0.14774436911E-01 -0.16397873235E-01  0.10189776469E+01  0.10186720891E+01 0.  0.
     999903    2    3    3    0    0  0.12649664372E+00  0.27863563238E-02 -0.22460798901E-03  0.12797456063E+00  0.19190442061E-01 0.  0.
         14    1    1    2    0    0  0.11638113724E-01 -0.14774436911E-01  0.16397873235E-01  0.24952353070E-01  0.00000000000E+00 0. -1.
     999901    1    3    3    0    0 -0.13813475744E+00  0.11988080587E-01 -0.16173265246E-01  0.89100308630E+00  0.88000000000E+00 0.  1.
        -11    1    4    4    0    0  0.80130367718E-01  0.23534920847E-02 -0.93633192216E-02  0.80711508618E-01  0.51100000000E-03 0.  1.
         11    1    4    4    0    0  0.46366275998E-01  0.43286423912E-03  0.91387112326E-02  0.47263052011E-01  0.51100000000E-03 0. -1.
</event>
<event>
 8    1  0.1088021E+005  0.1043930E+01  0.7957747E-01            NaN
         13   -1    0    0    0    0  0.00000000000E+00  0.00000000000E+00  0.74505805969E-08  0.10566000000E+00  0.10566000000E+00 0.  1.
     999900   -1    0    0    0    0 -0.00000000000E+00 -0.00000000000E+00 -0.74505805969E-08  0.93827000000E+00  0.93827000000E+00 0.  1.
     999902    2    1    2    0    0  0.95473433460E-04  0.21973955795E-01  0.36043771998E-02  0.10216621895E+01  0.10214194898E+01 0.  0.
     999903    2    3    3    0    0 -0.82597885265E-01 -0.83227374652E-01  0.52816574510E-01  0.13018737111E+00  0.20247333443E-01 0.  0.
         14    1    1    2    0    0 -0.95473433460E-04 -0.21973955795E-01 -0.36043771998E-02  0.22267810478E-01  0.00000000000E+00 0. -1.
     999901    1    3    3    0    0  0.82693358699E-01  0.10520133045E+00 -0.49212197310E-01  0.89147481841E+00  0.88000000000E+00 0. -1.
        -11    1    4    4    0    0 -0.46240339711E-01 -0.36275180894E-01  0.33963391563E-01  0.67881005097E-01  0.51100000000E-03 0. -1.
         11    1    4    4    0    0 -0.36357545554E-01 -0.46952193758E-01  0.18853182947E-01  0.62306366012E-01  0.51100000000E-03 0.  1.
</event>
<event>
 8    1  0.1088021E+005  0.1043930E+01  0.7957747E-01            NaN
         13   -1    0    0    0    0  0.00000000000E+00  0.00000000000E+00  0.74505805969E-08  0.10566000000E+00  0.10566000000E+00 0. -1.
     999900   -1    0    0    0    0 -0.00000000000E+00 -0.00000000000E+00 -0.74505805969E-08  0.93827000000E+00  0.93827000000E+00 0.  1.
     999902    2    1    2    0    0  0.18194553967E-01 -0.35881657329E-02 -0.19632884772E-01  0.10169232066E+01  0.10165645288E+01 0.  0.
     999903    2    3    3    0    0  0.11178437803E+00  0.24343059739E-01 -0.59817764215E-01  0.13060834543E+00  0.19800082090E-01 0.  0.
         14    1    1    2    0    0 -0.18194553967E-01  0.35881657329E-02  0.19632884772E-01  0.27006793439E-01  0.00000000000E+00 0. -1.
     999901    1    3    3    0    0 -0.93589824066E-01 -0.27931225472E-01  0.40184879443E-01  0.88631486113E+00  0.88000000000E+00 0. -1.
        -11    1    4    4    0    0  0.21907178387E-01 -0.29772447097E-02 -0.98888566973E-02  0.24224761273E-01  0.51100000000E-03 0.  1.
         11    1    4    4    0    0  0.89877199646E-01  0.27320304449E-01 -0.49928907518E-01  0.10638358416E+00  0.51100000000E-03 0. -1.
</event>
<event>
 8    1  0.1088021E+005  0.1043930E+01  0.7957747E-01            NaN
         13   -1    0    0    0    0  0.00000000000E+00  0.00000000000E+00  0.74505805969E-08  0.10566000000E+00  0.10566000000E+00 0. -1.
     999900   -1    0    0    0    0 -0.00000000000E+00 -0.00000000000E+00 -0.74505805969E-08  0.93827000000E+00  0.93827000000E+00 0. -1.
     999902    2    1    2    0    0 -0.16582576960E-01 -0.85134219645E-03 -0.18293629092E-01  0.10192244640E+01  0.10189249946E+01 0.  0.
     999903    2    3    3    0    0  0.94809381777E-01  0.81196226973E-01 -0.22821774278E-01  0.12840434965E+00  0.19626448518E-01 0.  0.
         14    1    1    2    0    0  0.16582576960E-01  0.85134219645E-03  0.18293629092E-01  0.24705535969E-01  0.00000000000E+00 0. -1.
     999901    1    3    3    0    0 -0.11139195874E+00 -0.82047569169E-01  0.45281451856E-02  0.89082011438E+00  0.88000000000E+00 0. -1.
        -11    1    4    4    0    0  0.55665553900E-01  0.39941303981E-01 -0.45351451140E-02  0.68664330747E-01  0.51100000000E-03 0.  1.
         11    1    4    4    0    0  0.39143827877E-01  0.41254922992E-01 -0.18286629164E-01  0.59740018907E-01  0.51100000000E-03 0. -1.
</event>
<event>
 8    1  0.1088021E+005  0.1043930E+01  0.7957747E-01            NaN
         13   -1    0    0    0    0  0.00000000000E+00  0.00000000000E+00  0.74505805969E-08  0.10566000000E+00  0.10566000000E+00 0. -1.
     999900   -1    0    0    0    0 -0.00000000000E+00 -0.00000000000E+00 -0.74505805969E-08  0.93827000000E+00  0.93827000000E+00 0. -1.
     999902    2    1    2    0    0  0.22501708628E-01 -0.41582462977E-02  0.58976944304E-02  0.10202994963E+01  0.10200258142E+01 0.  0.
     999903    2    3    3    0    0 -0.86570083019E-01  0.11206391878E-01 -0.91632947899E-01  0.12808598264E+00  0.19734723605E-01 0.  0.
         14    1    1    2    0    0 -0.22501708628E-01  0.41582462977E-02 -0.58976944304E-02  0.23630503656E-01  0.00000000000E+00 0. -1.
     999901    1    3    3    0    0  0.10907179165E+00 -0.15364638175E-01  0.97530642329E-01  0.89221351370E+00  0.88000000000E+00 0.  1.
        -11    1    4    4    0    0 -0.18750197845E-01 -0.29310485790E-03 -0.31774409879E-01  0.36898916973E-01  0.51100000000E-03 0.  1.
         11    1    4    4    0    0 -0.67819885174E-01  0.11499496736E-01 -0.59858538020E-01  0.91187065668E-01  0.51100000000E-03 0. -1.
</event>
<event>
 8    1  0.1088021E+005  0.1043930E+01  0.7957747E-01            NaN
         13   -1    0    0    0    0  0.00000000000E+00  0.00000000000E+00  0.74505805969E-08  0.10566000000E+00  0.10566000000E+00 0.  1.
     999900   -1    0    0    0    0 -0.00000000000E+00 -0.00000000000E+00 -0.74505805969E-08  0.93827000000E+00  0.93827000000E+00 0. -1.
     999902    2    1    2    0    0  0.13803024252E-01 -0.99679507983E-03  0.19243390448E-01  0.10202271488E+01  0.10199517685E+01 0.  0.
     999903    2    3    3    0    0  0.10658824351E+00 -0.44518983387E-01 -0.58269135362E-01  0.13089511326E+00  0.19880769686E-01 0.  0.
         14    1    1    2    0    0 -0.13803024252E-01  0.99679507983E-03 -0.19243390448E-01  0.23702851197E-01  0.00000000000E+00 0. -1.
     999901    1    3    3    0    0 -0.92785219256E-01  0.43522188307E-01  0.77512525810E-01  0.88933203554E+00  0.88000000000E+00 0. -1.
        -11    1    4    4    0    0  0.33020226278E-01 -0.45995127047E-02 -0.13500101188E-01  0.35972277015E-01  0.51100000000E-03 0.  1.
         11    1    4    4    0    0  0.73568017231E-01 -0.39919470682E-01 -0.44769034174E-01  0.94922836244E-01  0.51100000000E-03 0. -1.
</event>
<event>
 8    1  0.1088021E+005  0.1043930E+01  0.7957747E-01            NaN
         13   -1    0    0    0    0  0.00000000000E+00  0.00000000000E+00  0.74505805969E-08  0.10566000000E+00  0.10566000000E+00 0. -1.
     999900   -1    0    0    0    0 -0.00000000000E+00 -0.00000000000E+00 -0.74505805969E-08  0.93827000000E+00  0.93827000000E+00 0. -1.
     999902    2    1    2    0    0  0.14489221837E-01  0.45056452659E-02 -0.16974723819E-01  0.10211620480E+01  0.10209081980E+01 0.  0.
     999903    2    3    3    0    0  0.50371177421E-01  0.17706521214E-01 -0.12139777883E+00  0.13416376601E+00  0.20290859988E-01 0.  0.
         14    1    1    2    0    0 -0.14489221837E-01 -0.45056452659E-02  0.16974723819E-01  0.22767951981E-01  0.00000000000E+00 0. -1.
     999901    1    3    3    0    0 -0.35881955584E-01 -0.13200875948E-01  0.10442305501E+00  0.88699828200E+00  0.88000000000E+00 0.  1.
        -11    1    4    4    0    0  0.35819024045E-01  0.20196637151E-01 -0.10034789071E+00  0.10844753076E+00  0.51100000000E-03 0. -1.
         11    1    4    4    0    0  0.14552153376E-01 -0.24901159369E-02 -0.21049888113E-01  0.25716235258E-01  0.51100000000E-03 0.  1.
</event>
<event>
 8    1  0.1088021E+005  0.1043930E+01  0.7957747E-01            NaN
         13   -1    0    0    0    0  0.00000000000E+00  0.00000000000E+00  0.74505805969E-08  0.10566000000E+00  0.10566000000E+00 0. -1.
     999900   -1    0    0    0    0 -0.00000000000E+00 -0.00000000000E+00 -0.74505805969E-08  0.93827000000E+00  0.93827000000E+00 0.  1.
     999902    2    1    2    0    0  0.18091161788E-01  0.15153347263E-01 -0.47581525644E-02  0.10198560705E+01  0.10195718956E+01 0.  0.
     999903    2    3    3    0    0 -0.82771240283E-01 -0.91028214230E-01  0.26348830840E-01  0.12721090435E+00  0.18738711111E-01 0.  0.
         14    1    1    2    0    0 -0.18091161788E-01 -0.15153347263E-01  0.47581525644E-02  0.24073929549E-01  0.00000000000E+00 0. -1.
     999901    1    3    3    0    0  0.10086240207E+00  0.10618156149E+00 -0.31106983404E-01  0.89264516610E+00  0.88000000000E+00 0.  1.
        -11    1    4    4    0    0 -0.42781602055E-01 -0.59126194163E-01  0.11051178992E-01  0.73814375218E-01  0.51100000000E-03 0.  1.
         11    1    4    4    0    0 -0.39989638229E-01 -0.31902020066E-01  0.15297651848E-01  0.53396529129E-01  0.51100000000E-03 0. -1.
</event>
<event>
 8    1  0.1088021E+005  0.1043930E+01  0.7957747E-01            NaN
         13   -1    0    0    0    0  0.00000000000E+00  0.00000000000E+00  0.74505805969E-08  0.10566000000E+00  0.10566000000E+00 0.  1.
     999900   -1    0    0    0    0 -0.00000000000E+00 -0.00000000000E+00 -0.74505805969E-08  0.93827000000E+00  0.93827000000E+00 0. -1.
     999902    2    1    2    0    0  0.69210867654E-02 -0.78526714825E-02 -0.21308996049E-01  0.10201889132E+01  0.10199126332E+01 0.  0.
     999903    2    3    3    0    0  0.10174270670E+00 -0.18147072529E-01 -0.81155654365E-01  0.13301433237E+00  0.20631959990E-01 0.  0.
         14    1    1    2    0    0 -0.69210867654E-02  0.78526714825E-02  0.21308996049E-01  0.23741086834E-01  0.00000000000E+00 0. -1.
     999901    1    3    3    0    0 -0.94821619931E-01  0.10294401047E-01  0.59846658316E-01  0.88717458080E+00  0.88000000000E+00 0.  1.
        -11    1    4    4    0    0  0.62784445432E-01 -0.99680387431E-02 -0.36977285186E-01  0.73544742336E-01  0.51100000000E-03 0.  1.
         11    1    4    4    0    0  0.38958261265E-01 -0.81790337861E-02 -0.44178369179E-01  0.59469590034E-01  0.51100000000E-03 0. -1.
</event>
<event>
 8    1  0.1088021E+005  0.1043930E+01  0.7957747E-01            NaN
         13   -1    0    0    0    0  0.00000000000E+00  0.00000000000E+00  0.74505805969E-08  0.10566000000E+00  0.10566000000E+00 0.  1.
     999900   -1    0    0    0    0 -0.00000000000E+00 -0.00000000000E+00 -0.74505805969E-08  0.93827000000E+00  0.93827000000E+00 0. -1.
     999902    2    1    2    0    0  0.44022753196E-02 -0.22509570038E-01  0.82940997745E-02  0.10195403944E+01  0.10192486266E+01 0.  0.
     999903    2    3    3    0    0 -0.39770191447E-01  0.11416142447E+00  0.35769445676E-01  0.12747253699E+00  0.18849283175E-01 0.  0.
         14    1    1    2    0    0 -0.44022753196E-02  0.22509570038E-01 -0.82940997745E-02  0.24389605621E-01  0.00000000000E+00 0. -1.
     999901    1    3    3    0    0  0.44172466766E-01 -0.13667099451E+00 -0.27475345902E-01  0.89206785739E+00  0.88000000000E+00 0. -1.
        -11    1    4    4    0    0 -0.19259181578E-01  0.73661423258E-01  0.29440830469E-01  0.81632989478E-01  0.51100000000E-03 0. -1.
         11    1    4    4    0    0 -0.20511009869E-01  0.40500001215E-01  0.63286152071E-02  0.45839547508E-01  0.51100000000E-03 0.  1.
</event>
<event>
 8    1  0.1088021E+005  0.1043930E+01  0.7957747E-01            NaN
         13   -1    0    0    0    0  0.00000000000E+00  0.00000000000E+00  0.74505805969E-08  0.10566000000E+00  0.10566000000E+00 0.  1.
     999900   -1    0    0    0    0 -0.00000000000E+00 -0.00000000000E+00 -0.74505805969E-08  0.93827000000E+00  0.93827000000E+00 0.  1.
     999902    2    1    2    0    0 -0.13242478350E-01 -0.85419309323E-02 -0.17570546075E-01  0.10203280529E+01  0.10200550395E+01 0.  0.
     999903    2    3    3    0    0 -0.79583444647E-01 -0.10403292105E+00 -0.31577481330E-02  0.13256266626E+00  0.20162236673E-01 0.  0.
         14    1    1    2    0    0  0.13242478350E-01  0.85419309323E-02  0.17570546075E-01  0.23601947087E-01  0.00000000000E+00 0.  1.
     999901    1    3    3    0    0  0.66340966298E-01  0.95490990117E-01 -0.14412797942E-01  0.88776538666E+00  0.88000000000E+00 0. -1.
        -11    1    4    4    0    0 -0.35138583094E-01 -0.30159670399E-01 -0.13842165298E-02  0.46330367112E-01  0.51100000000E-03 0.  1.
         11    1    4    4    0    0 -0.44444861554E-01 -0.73873250651E-01 -0.17735316032E-02  0.86232299143E-01  0.51100000000E-03 0. -1.
</event>
<event>
 8    1  0.1088021E+005  0.1043930E+01  0.7957747E-01            NaN
         13   -1    0    0    0    0  0.00000000000E+00  0.00000000000E+00  0.74505805969E-08  0.10566000000E+00  0.10566000000E+00 0. -1.
     999900   -1    0    0    0    0 -0.00000000000E+00 -0.00000000000E+00 -0.74505805969E-08  0.93827000000E+00  0.93827000000E+00 0.  1.
     999902    2    1    2    0    0 -0.14110891902E-01 -0.17996274885E-01  0.71589684158E-02  0.10199668197E+01  0.10196852845E+01 0.  0.
     999903    2    3    3    0    0 -0.96089308867E-02 -0.91282839781E-01  0.93733399096E-01  0.13267525530E+00  0.19796082262E-01 0.  0.
         14    1    1    2    0    0  0.14110891902E-01  0.17996274885E-01 -0.71589684158E-02  0.23963180273E-01  0.00000000000E+00 0. -1.
     999901    1    3    3    0    0 -0.45019610152E-02  0.73286564895E-01 -0.86574430680E-01  0.88729156442E+00  0.88000000000E+00 0.  1.
        -11    1    4    4    0    0 -0.79107329548E-02 -0.78437640681E-01  0.88938320077E-01  0.11885002764E+00  0.51100000000E-03 0. -1.
         11    1    4    4    0    0 -0.16981979319E-02 -0.12845199100E-01  0.47950790194E-02  0.13825227663E-01  0.51100000000E-03 0.  1.
</event>
<event>
 8    1  0.1088021E+005  0.1043930E+01  0.7957747E-01            NaN
         13   -1    0    0    0    0  0.00000000000E+00  0.00000000000E+00  0.74505805969E-08  0.10566000000E+00  0.10566000000E+00 0.  1.
     999900   -1    0    0    0    0 -0.00000000000E+00 -0.00000000000E+00 -0.74505805969E-08  0.93827000000E+00  0.93827000000E+00 0. -1.
     999902    2    1    2    0    0  0.10725029397E-01 -0.19289971415E-01 -0.79124678893E-02  0.10204835418E+01  0.10202141553E+01 0.  0.
     999903    2    3    3    0    0 -0.20224721843E-01  0.96122099206E-02 -0.12785820676E+00  0.13133777005E+00  0.20011368122E-01 0.  0.
         14    1    1    2    0    0 -0.10725029397E-01  0.19289971415E-01  0.79124678893E-02  0.23446458173E-01  0.00000000000E+00 0.  1.
     999901    1    3    3    0    0  0.30949751240E-01 -0.28902181335E-01  0.11994573887E+00  0.88914577177E+00  0.88000000000E+00 0.  1.
        -11    1    4    4    0    0 -0.10683756546E-01  0.13520678284E-01 -0.52070881685E-01  0.54850608343E-01  0.51100000000E-03 0.  1.
         11    1    4    4    0    0 -0.95409652966E-02 -0.39084683636E-02 -0.75787325075E-01  0.76487161712E-01  0.51100000000E-03 0. -1.
</event>
<event>
 8    1  0.1088021E+005  0.1043930E+01  0.7957747E-01            NaN
         13   -1    0    0    0    0  0.00000000000E+00  0.00000000000E+00  0.74505805969E-08  0.10566000000E+00  0.10566000000E+00 0.  1.
     999900   -1    0    0    0    0 -0.00000000000E+00 -0.00000000000E+00 -0.74505805969E-08  0.93827000000E+00  0.93827000000E+00 0.  1.
     999902    2    1    2    0    0 -0.10013201540E-01  0.22519139269E-01 -0.57433427907E-02  0.10186246285E+01  0.10183102533E+01 0.  0.
     999903    2    3    3    0    0 -0.12597266696E+00  0.29706883634E-01 -0.40907792055E-03  0.13097226659E+00  0.20048828252E-01 0.  0.
         14    1    1    2    0    0  0.10013201540E-01 -0.22519139269E-01  0.57433427907E-02  0.25305371464E-01  0.00000000000E+00 0.  1.
     999901    1    3    3    0    0  0.11595946542E+00 -0.71877443646E-02 -0.53342648702E-02  0.88765236195E+00  0.88000000000E+00 0.  1.
        -11    1    4    4    0    0 -0.10476269208E+00  0.19956833837E-01  0.58196551656E-02  0.10680649033E+00  0.51100000000E-03 0.  1.
         11    1    4    4    0    0 -0.21209974876E-01  0.97500497970E-02 -0.62287330862E-02  0.24165776258E-01  0.51100000000E-03 0. -1.
</event>
<event>
 8    1  0.1088021E+005  0.1043930E+01  0.7957747E-01            NaN
         13   -1    0    0    0    0  0.00000000000E+00  0.00000000000E+00  0.74505805969E-08  0.10566000000E+00  0.10566000000E+00 0. -1.
     999900   -1    0    0    0    0 -0.00000000000E+00 -0.00000000000E+00 -0.74505805969E-08  0.93827000000E+00  0.93827000000E+00 0. -1.
     999902    2    1    2    0    0  0.11284556069E-01  0.26306710008E-02  0.18002488965E-01  0.10225208607E+01  0.10222967081E+01 0.  0.
     999903    2    3    3    0    0 -0.10096534625E+00 -0.73117028518E-01 -0.33254974718E-01  0.13068843132E+00  0.20819984036E-01 0.  0.
         14    1    1    2    0    0 -0.11284556069E-01 -0.26306710008E-02 -0.18002488965E-01  0.21409139276E-01  0.00000000000E+00 0.  1.
     999901    1    3    3    0    0  0.11224990232E+00  0.75747699519E-01  0.51257463683E-01  0.89183242940E+00  0.88000000000E+00 0.  1.
        -11    1    4    4    0    0 -0.25631703345E-01 -0.27759892980E-01 -0.39247928835E-02  0.37990275003E-01  0.51100000000E-03 0.  1.
         11    1    4    4    0    0 -0.75333642903E-01 -0.45357135539E-01 -0.29330181834E-01  0.92698156318E-01  0.51100000000E-03 0. -1.
</event>
<event>
 7    1  0.1088021E+005  0.1043930E+01  0.7957747E-01            NaN
         13   -1    0    0    0    0  0.00000000000E+00  0.00000000000E+00  0.74505805969E-08  0.10566000000E+00  0.10566000000E+00 0.  1.
     999900   -1    0    0    0    0 -0.00000000000E+00 -0.00000000000E+00 -0.74505805969E-08  0.93827000000E+00  0.93827000000E+00 0.  1.
     999903    2    1    2    0    0  0.21347913704E-02 -0.68005229660E-01 -0.88387432753E-01  0.11336784655E+00  0.20264791343E-01 0.  0.
         14    1    1    2    0    0 -0.31250793673E-01 -0.23036836561E-01  0.17398356039E-01  0.42544220957E-01  0.00000000000E+00 0.  1.
     999901    1    1    2    0    0  0.29116002302E-01  0.91042066221E-01  0.70989076714E-01  0.88801793249E+00  0.88000000000E+00 0. -1.
        -11    1    3    3    0    0 -0.67846939290E-02 -0.13646021825E-01 -0.25983994969E-01  0.30127646754E-01  0.51100000000E-03 0. -1.
         11    1    3    3    0    0  0.89194852995E-02 -0.54359207834E-01 -0.62403437784E-01  0.83240199799E-01  0.51100000000E-03 0.  1.
</event>
<event>
 8    1  0.1088021E+005  0.1043930E+01  0.7957747E-01            NaN
         13   -1    0    0    0    0  0.00000000000E+00  0.00000000000E+00  0.74505805969E-08  0.10566000000E+00  0.10566000000E+00 0. -1.
     999900   -1    0    0    0    0 -0.00000000000E+00 -0.00000000000E+00 -0.74505805969E-08  0.93827000000E+00  0.93827000000E+00 0. -1.
     999902    2    1    2    0    0 -0.22296663133E-01  0.79868993916E-02 -0.28656493295E-02  0.10200732673E+01  0.10197942572E+01 0.  0.
     999903    2    3    3    0    0  0.77131894102E-01 -0.79674642925E-02 -0.10143992043E+00  0.12886203161E+00  0.17394141468E-01 0.  0.
         14    1    1    2    0    0  0.22296663133E-01 -0.79868993916E-02  0.28656493295E-02  0.23856732694E-01  0.00000000000E+00 0.  1.
     999901    1    3    3    0    0 -0.99428557235E-01  0.15954363684E-01  0.98574271102E-01  0.89121123570E+00  0.88000000000E+00 0.  1.
        -11    1    4    4    0    0  0.70909903814E-01 -0.10241031456E-01 -0.85234780338E-01  0.11134775294E+00  0.51100000000E-03 0.  1.
         11    1    4    4    0    0  0.62219902887E-02  0.22735671636E-02 -0.16205140094E-01  0.17514278668E-01  0.51100000000E-03 0. -1.
</event>
<event>
 8    1  0.1088021E+005  0.1043930E+01  0.7957747E-01            NaN
         13   -1    0    0    0    0  0.00000000000E+00  0.00000000000E+00  0.74505805969E-08  0.10566000000E+00  0.10566000000E+00 0.  1.
     999900   -1    0    0    0    0 -0.00000000000E+00 -0.00000000000E+00 -0.74505805969E-08  0.93827000000E+00  0.93827000000E+00 0.  1.
     999902    2    1    2    0    0 -0.19834194103E-01  0.59769986001E-04  0.13206081765E-01  0.10201014578E+01  0.10198231144E+01 0.  0.
     999903    2    3    3    0    0  0.54921014489E-01 -0.11265870642E+00  0.26588618767E-01  0.12966735668E+00  0.19959127626E-01 0.  0.
         14    1    1    2    0    0  0.19834194103E-01 -0.59769986001E-04 -0.13206081765E-01  0.23828542208E-01  0.00000000000E+00 0. -1.
     999901    1    3    3    0    0 -0.74755208592E-01  0.11271847640E+00 -0.13382537002E-01  0.89043410112E+00  0.88000000000E+00 0. -1.
        -11    1    4    4    0    0  0.24268556853E-01 -0.65428760139E-01  0.22006607668E-01  0.73174021395E-01  0.51100000000E-03 0. -1.
         11    1    4    4    0    0  0.30652457636E-01 -0.47229946276E-01  0.45820110987E-02  0.56493335280E-01  0.51100000000E-03 0.  1.
</event>
<event>
 8    1  0.1088021E+005  0.1043930E+01  0.7957747E-01            NaN
         13   -1    0    0    0    0  0.00000000000E+00  0.00000000000E+00  0.74505805969E-08  0.10566000000E+00  0.10566000000E+00 0.  1.
     999900   -1    0    0    0    0 -0.00000000000E+00 -0.00000000000E+00 -0.74505805969E-08  0.93827000000E+00  0.93827000000E+00 0. -1.
     999902    2    1    2    0    0 -0.84321158772E-02 -0.18774450783E-01 -0.12136637147E-01  0.10200369353E+01  0.10197570646E+01 0.  0.
     999903    2    3    3    0    0 -0.11945431119E-01 -0.99085266486E-01  0.81051671233E-01  0.13147279504E+00  0.27479793798E-01 0.  0.
         14    1    1    2    0    0  0.84321158772E-02  0.18774450783E-01  0.12136637147E-01  0.23893064717E-01  0.00000000000E+00 0.  1.
     999901    1    3    3    0    0  0.35133152419E-02  0.80310815703E-01 -0.93188308380E-01  0.88856414024E+00  0.88000000000E+00 0. -1.
        -11    1    4    4    0    0 -0.98931141868E-02 -0.80184572398E-01  0.49861225460E-01  0.94941257019E-01  0.51100000000E-03 0. -1.
         11    1    4    4    0    0 -0.20523169322E-02 -0.18900694088E-01  0.31190445773E-01  0.36531538023E-01  0.51100000000E-03 0.  1.
</event>
<event>
 8    1  0.1088021E+005  0.1043930E+01  0.7957747E-01            NaN
         13   -1    0    0    0    0  0.00000000000E+00  0.00000000000E+00  0.74505805969E-08  0.10566000000E+00  0.10566000000E+00 0. -1.
     999900   -1    0    0    0    0 -0.00000000000E+00 -0.00000000000E+00 -0.74505805969E-08  0.93827000000E+00  0.93827000000E+00 0.  1.
     999902    2    1    2    0    0  0.23683380991E-01  0.14733295061E-02  0.59079117617E-02  0.10194764388E+01  0.10191831202E+01 0.  0.
     999903    2    3    3    0    0 -0.59657106657E-01  0.67761927174E-01  0.89728307281E-01  0.12910254329E+00  0.21578888003E-01 0.  0.
         14    1    1    2    0    0 -0.23683380991E-01 -0.14733295061E-02 -0.59079117617E-02  0.24453561221E-01  0.00000000000E+00 0.  1.
     999901    1    3    3    0    0  0.83340487648E-01 -0.66288597668E-01 -0.83820395519E-01  0.89037389549E+00  0.88000000000E+00 0. -1.
        -11    1    4    4    0    0 -0.44959953939E-01  0.35617983504E-01  0.58605640540E-01  0.82005612194E-01  0.51100000000E-03 0.  1.
         11    1    4    4    0    0 -0.14697152718E-01  0.32143943670E-01  0.31122666741E-01  0.47096931097E-01  0.51100000000E-03 0. -1.
</event>
<event>
 8    1  0.1088021E+005  0.1043930E+01  0.7957747E-01            NaN
         13   -1    0    0    0    0  0.00000000000E+00  0.00000000000E+00  0.74505805969E-08  0.10566000000E+00  0.10566000000E+00 0.  1.
     999900   -1    0    0    0    0 -0.00000000000E+00 -0.00000000000E+00 -0.74505805969E-08  0.93827000000E+00  0.93827000000E+00 0. -1.
     999902    2    1    2    0    0  0.12866931147E-01 -0.49298391683E-02 -0.20098961946E-01  0.10195613828E+01  0.10192701231E+01 0.  0.
     999903    2    3    3    0    0  0.39502448819E-01  0.83066329449E-01 -0.92119165828E-01  0.13184538869E+00  0.20899934316E-01 0.  0.
         14    1    1    2    0    0 -0.12866931147E-01  0.49298391683E-02  0.20098961946E-01  0.24368617168E-01  0.00000000000E+00 0.  1.
     999901    1    3    3    0    0 -0.26635517672E-01 -0.87996168617E-01  0.72020203882E-01  0.88771599414E+00  0.88000000000E+00 0. -1.
        -11    1    4    4    0    0  0.27850248040E-01  0.63671688784E-01 -0.56140048096E-01  0.89340284249E-01  0.51100000000E-03 0.  1.
         11    1    4    4    0    0  0.11652200779E-01  0.19394640665E-01 -0.35979117732E-01  0.42505104438E-01  0.51100000000E-03 0. -1.
</event>
<event>
 8    1  0.1088021E+005  0.1043930E+01  0.7957747E-01            NaN
         13   -1    0    0    0    0  0.00000000000E+00  0.00000000000E+00  0.74505805969E-08  0.10566000000E+00  0.10566000000E+00 0.  1.
     999900   -1    0    0    0    0 -0.00000000000E+00 -0.00000000000E+00 -0.74505805969E-08  0.93827000000E+00  0.93827000000E+00 0.  1.
     999902    2    1    2    0    0 -0.22240669126E-01 -0.85284685267E-02 -0.53856333210E-03  0.10201041277E+01  0.10198258475E+01 0.  0.
     999903    2    3    3    0    0 -0.11570778680E+00  0.83917398204E-02 -0.61879264025E-01  0.13286961697E+00  0.19146241765E-01 0.  0.
         14    1    1    2    0    0  0.22240669126E-01  0.85284685267E-02  0.53856333210E-03  0.23825872262E-01  0.00000000000E+00 0. -1.
     999901    1    3    3    0    0  0.93467117676E-01 -0.16920208347E-01  0.61340700693E-01  0.88723451077E+00  0.88000000000E+00 0. -1.
        -11    1    4    4    0    0 -0.98784293755E-01  0.42165183455E-02 -0.45121673711E-01  0.10868460001E+00  0.51100000000E-03 0.  1.
         11    1    4    4    0    0 -0.16923493046E-01  0.41752214750E-02 -0.16757590314E-01  0.24185016961E-01  0.51100000000E-03 0. -1.
</event>
<event>
 8    1  0.1088021E+005  0.1043930E+01  0.7957747E-01            NaN
         13   -1    0    0    0    0  0.00000000000E+00  0.00000000000E+00  0.74505805969E-08  0.10566000000E+00  0.10566000000E+00 0. -1.
     999900   -1    0    0    0    0 -0.00000000000E+00 -0.00000000000E+00 -0.74505805969E-08  0.93827000000E+00  0.93827000000E+00 0.  1.
     999902    2    1    2    0    0 -0.72618276945E-04  0.61062106402E-02 -0.23342227482E-01  0.10198022014E+01  0.10195167381E+01 0.  0.
     999903    2    3    3    0    0  0.11546957328E+00 -0.35704282090E-01  0.41330192208E-01  0.12891464553E+00  0.17400658919E-01 0.  0.
         14    1    1    2    0    0  0.72618276945E-04 -0.61062106402E-02  0.23342227482E-01  0.24127798607E-01  0.00000000000E+00 0. -1.
     999901    1    3    3    0    0 -0.11554219155E+00  0.41810492731E-01 -0.64672419690E-01  0.89088755587E+00  0.88000000000E+00 0. -1.
        -11    1    4    4    0    0  0.67722028835E-01 -0.23006094756E-01  0.33144642486E-01  0.78831351834E-01  0.51100000000E-03 0. -1.
         11    1    4    4    0    0  0.47747544440E-01 -0.12698187334E-01  0.81855497222E-02  0.50083293691E-01  0.51100000000E-03 0.  1.
</event>
<event>
 8    1  0.1088021E+005  0.1043930E+01  0.7957747E-01            NaN
         13   -1    0    0    0    0  0.00000000000E+00  0.00000000000E+00  0.74505805969E-08  0.10566000000E+00  0.10566000000E+00 0. -1.
     999900   -1    0    0    0    0 -0.00000000000E+00 -0.00000000000E+00 -0.74505805969E-08  0.93827000000E+00  0.93827000000E+00 0. -1.
     999902    2    1    2    0    0  0.11287749192E-01 -0.14094296524E-01 -0.13703332333E-01  0.10212618772E+01  0.10210102732E+01 0.  0.
     999903    2    3    3    0    0 -0.16622952418E-01 -0.74309053628E-01 -0.10792840505E+00  0.13374670063E+00  0.21011456710E-01 0.  0.
         14    1    1    2    0    0 -0.11287749192E-01  0.14094296524E-01  0.13703332333E-01  0.22668122846E-01  0.00000000000E+00 0. -1.
     999901    1    3    3    0    0  0.27910701610E-01  0.60214757104E-01  0.94225072720E-01  0.88751517653E+00  0.88000000000E+00 0.  1.
        -11    1    4    4    0    0 -0.13656967173E-01 -0.33997051485E-01 -0.36782245243E-01  0.51918271814E-01  0.51100000000E-03 0. -1.
         11    1    4    4    0    0 -0.29659852453E-02 -0.40312002143E-01 -0.71146159810E-01  0.81828428812E-01  0.51100000000E-03 0.  1.
</event>
<event>
 8    1  0.1088021E+005  0.1043930E+01  0.7957747E-01            NaN
         13   -1    0    0    0    0  0.00000000000E+00  0.00000000000E+00  0.74505805969E-08  0.10566000000E+00  0.10566000000E+00 0.  1.
     999900   -1    0    0    0    0 -0.00000000000E+00 -0.00000000000E+00 -0.74505805969E-08  0.93827000000E+00  0.93827000000E+00 0.  1.
     999902    2    1    2    0    0 -0.13657922035E-01 -0.13400015839E-01 -0.14010430551E-01  0.10202152067E+01  0.10199395455E+01 0.  0.
     999903    2    3    3    0    0 -0.10122536409E+00  0.31068230727E-01 -0.76262366721E-01  0.13256618514E+00  0.23367403978E-01 0.  0.
         14    1    1    2    0    0  0.13657922035E-01  0.13400015839E-01  0.14010430551E-01  0.23714793337E-01  0.00000000000E+00 0.  1.
     999901    1    3    3    0    0  0.87567442052E-01 -0.44468246566E-01  0.62251936170E-01  0.88764902153E+00  0.88000000000E+00 0. -1.
        -11    1    4    4    0    0 -0.39574922331E-01  0.11265287349E-01 -0.43913236498E-01  0.60180683257E-01  0.51100000000E-03 0. -1.
         11    1    4    4    0    0 -0.61650441756E-01  0.19802943378E-01 -0.32349130223E-01  0.72385501880E-01  0.51100000000E-03 0.  1.
</event>
<event>
 8    1  0.1088021E+005  0.1043930E+01  0.7957747E-01            NaN
         13   -1    0    0    0    0  0.00000000000E+00  0.00000000000E+00  0.74505805969E-08  0.10566000000E+00  0.10566000000E+00 0.  1.
     999900   -1    0    0    0    0 -0.00000000000E+00 -0.00000000000E+00 -0.74505805969E-08  0.93827000000E+00  0.93827000000E+00 0.  1.
     999902    2    1    2    0    0 -0.87391967854E-02  0.18148482051E-01  0.15252999209E-01  0.10186635213E+01  0.10183501238E+01 0.  0.
     999903    2    3    3    0    0  0.61020990395E-03  0.12705673973E+00  0.29277484190E-01  0.13178973875E+00  0.19172289686E-01 0.  0.
         14    1    1    2    0    0  0.87391967854E-02 -0.18148482051E-01 -0.15252999209E-01  0.25266478703E-01  0.00000000000E+00 0. -1.
     999901    1    3    3    0    0 -0.93494066893E-02 -0.10890825768E+00 -0.14024484981E-01  0.88687378255E+00  0.88000000000E+00 0.  1.
        -11    1    4    4    0    0  0.53333355125E-02  0.29703681813E-01  0.13449841412E-01  0.33044099866E-01  0.51100000000E-03 0. -1.
         11    1    4    4    0    0 -0.47231256085E-02  0.97353057916E-01  0.15827642777E-01  0.98745638881E-01  0.51100000000E-03 0.  1.
</event>
<event>
 8    1  0.1088021E+005  0.1043930E+01  0.7957747E-01            NaN
         13   -1    0    0    0    0  0.00000000000E+00  0.00000000000E+00  0.74505805969E-08  0.10566000000E+00  0.10566000000E+00 0.  1.
     999900   -1    0    0    0    0 -0.00000000000E+00 -0.00000000000E+00 -0.74505805969E-08  0.93827000000E+00  0.93827000000E+00 0. -1.
     999902    2    1    2    0    0  0.34324791288E-01  0.43807567028E-02  0.74127844624E-02  0.10085417011E+01  0.10079206472E+01 0.  0.
     999903    2    3    3    0    0 -0.27707675361E-01 -0.93305755227E-01 -0.63898223795E-01  0.11810588564E+00  0.19807523493E-01 0.  0.
         14    1    1    2    0    0 -0.34324791288E-01 -0.43807567028E-02 -0.74127844624E-02  0.35388298910E-01  0.00000000000E+00 0. -1.
     999901    1    3    3    0    0  0.62032466649E-01  0.97686511930E-01  0.71311008258E-01  0.89043581545E+00  0.88000000000E+00 0.  1.
        -11    1    4    4    0    0 -0.44578893910E-02 -0.24993791377E-01 -0.26972594886E-01  0.37045166771E-01  0.51100000000E-03 0. -1.
         11    1    4    4    0    0 -0.23249785970E-01 -0.68311963850E-01 -0.36925628910E-01  0.81060718872E-01  0.51100000000E-03 0.  1.
</event>
<event>
 8    1  0.1088021E+005  0.1043930E+01  0.7957747E-01            NaN
         13   -1    0    0    0    0  0.00000000000E+00  0.00000000000E+00  0.74505805969E-08  0.10566000000E+00  0.10566000000E+00 0. -1.
     999900   -1    0    0    0    0 -0.00000000000E+00 -0.00000000000E+00 -0.74505805969E-08  0.93827000000E+00  0.93827000000E+00 0.  1.
     999902    2    1    2    0    0 -0.14077144012E-01 -0.92606994266E-02 -0.16278626169E-01  0.10205009538E+01  0.10202319719E+01 0.  0.
     999903    2    3    3    0    0  0.26267285400E-01 -0.75396301091E-01  0.99961379874E-01  0.12948281153E+00  0.19973695574E-01 0.  0.
         14    1    1    2    0    0  0.14077144012E-01  0.92606994266E-02  0.16278626169E-01  0.23429046233E-01  0.00000000000E+00 0. -1.
     999901    1    3    3    0    0 -0.40344429412E-01  0.66135601664E-01 -0.11624000604E+00  0.89101814224E+00  0.88000000000E+00 0.  1.
        -11    1    4    4    0    0  0.17120383342E-01 -0.28773295364E-01  0.52895834148E-01  0.62603837287E-01  0.51100000000E-03 0.  1.
         11    1    4    4    0    0  0.91469020587E-02 -0.46623005727E-01  0.47065545726E-01  0.66878974243E-01  0.51100000000E-03 0. -1.
</event>
<event>
 8    1  0.1088021E+005  0.1043930E+01  0.7957747E-01            NaN
         13   -1    0    0    0    0  0.00000000000E+00  0.00000000000E+00  0.74505805969E-08  0.10566000000E+00  0.10566000000E+00 0.  1.
     999900   -1    0    0    0    0 -0.00000000000E+00 -0.00000000000E+00 -0.74505805969E-08  0.93827000000E+00  0.93827000000E+00 0. -1.
     999902    2    1    2    0    0 -0.17835538619E-01  0.11427153383E-01 -0.12279681499E-01  0.10194457837E+01  0.10191517203E+01 0.  0.
     999903    2    3    3    0    0 -0.55367259145E-01 -0.81909611615E-01 -0.83739267647E-01  0.13083627763E+00  0.18197492632E-01 0.  0.
         14    1    1    2    0    0  0.17835538619E-01 -0.11427153383E-01  0.12279681499E-01  0.24484216344E-01  0.00000000000E+00 0.  1.
     999901    1    3    3    0    0  0.37531720525E-01  0.93336764997E-01  0.71459586148E-01  0.88860950603E+00  0.88000000000E+00 0.  1.
        -11    1    4    4    0    0 -0.38492293742E-01 -0.60865179772E-01 -0.50173219310E-01  0.87771520684E-01  0.51100000000E-03 0.  1.
         11    1    4    4    0    0 -0.16874965403E-01 -0.21044431842E-01 -0.33566048337E-01  0.43064756947E-01  0.51100000000E-03 0. -1.
</event>
<event>
 8    1  0.1088021E+005  0.1043930E+01  0.7957747E-01            NaN
         13   -1    0    0    0    0  0.00000000000E+00  0.00000000000E+00  0.74505805969E-08  0.10566000000E+00  0.10566000000E+00 0.  1.
     999900   -1    0    0    0    0 -0.00000000000E+00 -0.00000000000E+00 -0.74505805969E-08  0.93827000000E+00  0.93827000000E+00 0. -1.
     999902    2    1    2    0    0 -0.93339214366E-02  0.22134120849E-01 -0.62379438493E-03  0.10199002161E+01  0.10196170949E+01 0.  0.
     999903    2    3    3    0    0  0.64861701545E-02 -0.19178713044E-02  0.12834426488E+00  0.13003419588E+00  0.19771017561E-01 0.  0.
         14    1    1    2    0    0  0.93339214366E-02 -0.22134120849E-01  0.62379438493E-03  0.24029783906E-01  0.00000000000E+00 0.  1.
     999901    1    3    3    0    0 -0.15820091591E-01  0.24051992154E-01 -0.12896805927E+00  0.88986602022E+00  0.88000000000E+00 0. -1.
        -11    1    4    4    0    0  0.89900321887E-02  0.66761452502E-02  0.87653517866E-01  0.88367369031E-01  0.51100000000E-03 0.  1.
         11    1    4    4    0    0 -0.25038620341E-02 -0.85940165545E-02  0.40690747017E-01  0.41666826847E-01  0.51100000000E-03 0. -1.
</event>
<event>
 8    1  0.1088021E+005  0.1043930E+01  0.7957747E-01            NaN
         13   -1    0    0    0    0  0.00000000000E+00  0.00000000000E+00  0.74505805969E-08  0.10566000000E+00  0.10566000000E+00 0.  1.
     999900   -1    0    0    0    0 -0.00000000000E+00 -0.00000000000E+00 -0.74505805969E-08  0.93827000000E+00  0.93827000000E+00 0.  1.
     999902    2    1    2    0    0 -0.26322055590E-01 -0.33764159086E-03 -0.21754039275E-02  0.10175160455E+01  0.10171731444E+01 0.  0.
     999903    2    3    3    0    0  0.72864182135E-01 -0.10115007181E+00 -0.68013528621E-02  0.12621225031E+00  0.18513445444E-01 0.  0.
         14    1    1    2    0    0  0.26322055590E-01  0.33764159086E-03  0.21754039275E-02  0.26413954542E-01  0.00000000000E+00 0. -1.
     999901    1    3    3    0    0 -0.99186237725E-01  0.10081243022E+00  0.46259489345E-02  0.89130379515E+00  0.88000000000E+00 0. -1.
        -11    1    4    4    0    0  0.17411992319E-01 -0.35388253295E-01 -0.76879034573E-02  0.40185456678E-01  0.51100000000E-03 0.  1.
         11    1    4    4    0    0  0.55452189816E-01 -0.65761818515E-01  0.88655059521E-03  0.86026793633E-01  0.51100000000E-03 0. -1.
</event>
<event>
 8    1  0.1088021E+005  0.1043930E+01  0.7957747E-01            NaN
         13   -1    0    0    0    0  0.00000000000E+00  0.00000000000E+00  0.74505805969E-08  0.10566000000E+00  0.10566000000E+00 0. -1.
     999900   -1    0    0    0    0 -0.00000000000E+00 -0.00000000000E+00 -0.74505805969E-08  0.93827000000E+00  0.93827000000E+00 0. -1.
     999902    2    1    2    0    0  0.45976363066E-02 -0.21613558807E-01 -0.96362829344E-02  0.10198231103E+01  0.10195381474E+01 0.  0.
     999903    2    3    3    0    0 -0.11527181739E+00 -0.52571171591E-01  0.20761037542E-01  0.13063749589E+00  0.24162257491E-01 0.  0.
         14    1    1    2    0    0 -0.45976363066E-02  0.21613558807E-01  0.96362829344E-02  0.24106889735E-01  0.00000000000E+00 0. -1.
     999901    1    3    3    0    0  0.11986945369E+00  0.30957612784E-01 -0.30397320477E-01  0.88918561437E+00  0.88000000000E+00 0. -1.
        -11    1    4    4    0    0 -0.31725742044E-01 -0.22501376482E-01  0.14884650587E-01  0.41649112787E-01  0.51100000000E-03 0.  1.
         11    1    4    4    0    0 -0.83546075341E-01 -0.30069795109E-01  0.58763869550E-02  0.88988383104E-01  0.51100000000E-03 0. -1.
</event>
<event>
 8    1  0.1088021E+005  0.1043930E+01  0.7957747E-01            NaN
         13   -1    0    0    0    0  0.00000000000E+00  0.00000000000E+00  0.74505805969E-08  0.10566000000E+00  0.10566000000E+00 0. -1.
     999900   -1    0    0    0    0 -0.00000000000E+00 -0.00000000000E+00 -0.74505805969E-08  0.93827000000E+00  0.93827000000E+00 0.  1.
     999902    2    1    2    0    0  0.95870947358E-02 -0.18180097275E-01 -0.10046606406E-01  0.10210528799E+01  0.10207965620E+01 0.  0.
     999903    2    3    3    0    0 -0.75606003915E-01  0.10164565661E+00  0.57646502307E-02  0.12871545990E+00  0.22052915656E-01 0.  0.
         14    1    1    2    0    0 -0.95870947358E-02  0.18180097275E-01  0.10046606406E-01  0.22877120069E-01  0.00000000000E+00 0. -1.
     999901    1    3    3    0    0  0.85193098651E-01 -0.11982575389E+00 -0.15811256636E-01  0.89233742003E+00  0.88000000000E+00 0.  1.
        -11    1    4    4    0    0 -0.58785642412E-01  0.62803795931E-01  0.23678333304E-03  0.86025494619E-01  0.51100000000E-03 0. -1.
         11    1    4    4    0    0 -0.16820361503E-01  0.38841860681E-01  0.55278668976E-02  0.42689965281E-01  0.51100000000E-03 0.  1.
</event>
<event>
 8    1  0.1088021E+005  0.1043930E+01  0.7957747E-01            NaN
         13   -1    0    0    0    0  0.00000000000E+00  0.00000000000E+00  0.74505805969E-08  0.10566000000E+00  0.10566000000E+00 0.  1.
     999900   -1    0    0    0    0 -0.00000000000E+00 -0.00000000000E+00 -0.74505805969E-08  0.93827000000E+00  0.93827000000E+00 0.  1.
     999902    2    1    2    0    0 -0.21227866751E-02 -0.23461720447E-01  0.28075528809E-02  0.10202057318E+01  0.10199298477E+01 0.  0.
     999903    2    3    3    0    0  0.10300894646E+00  0.55913402000E-02 -0.76601598839E-01  0.12992343103E+00  0.19240240379E-01 0.  0.
         14    1    1    2    0    0  0.21227866751E-02  0.23461720447E-01 -0.28075528809E-02  0.23724268224E-01  0.00000000000E+00 0.  1.
     999901    1    3    3    0    0 -0.10513173314E+00 -0.29053060647E-01  0.79409151720E-01  0.89028230075E+00  0.88000000000E+00 0. -1.
        -11    1    4    4    0    0  0.64339118418E-01 -0.58534005521E-02 -0.46822431620E-01  0.79789633917E-01  0.51100000000E-03 0.  1.
         11    1    4    4    0    0  0.38669828042E-01  0.11444740752E-01 -0.29779167219E-01  0.50133797113E-01  0.51100000000E-03 0. -1.
</event>
<event>
 8    1  0.1088021E+005  0.1043930E+01  0.7957747E-01            NaN
         13   -1    0    0    0    0  0.00000000000E+00  0.00000000000E+00  0.74505805969E-08  0.10566000000E+00  0.10566000000E+00 0. -1.
     999900   -1    0    0    0    0 -0.00000000000E+00 -0.00000000000E+00 -0.74505805969E-08  0.93827000000E+00  0.93827000000E+00 0.  1.
     999902    2    1    2    0    0  0.21784379593E-01 -0.24831364990E-02 -0.99581961936E-02  0.10198490774E+01  0.10195647355E+01 0.  0.
     999903    2    3    3    0    0 -0.73873723534E-01  0.61748157682E-01  0.81288536175E-01  0.12765958072E+00  0.20469011461E-01 0.  0.
         14    1    1    2    0    0 -0.21784379593E-01  0.24831364990E-02  0.99581961936E-02  0.24080922585E-01  0.00000000000E+00 0.  1.
     999901    1    3    3    0    0  0.95658103126E-01 -0.64231294181E-01 -0.91246732368E-01  0.89218949670E+00  0.88000000000E+00 0. -1.
        -11    1    4    4    0    0 -0.82185327933E-03 -0.19399543898E-03 -0.98583801940E-03  0.13950177933E-02  0.51100000000E-03 0.  1.
         11    1    4    4    0    0 -0.73051870254E-01  0.61942153121E-01  0.82274374194E-01  0.12626456293E+00  0.51100000000E-03 0. -1.
</event>
<event>
 8    1  0.1088021E+005  0.1043930E+01  0.7957747E-01            NaN
         13   -1    0    0    0    0  0.00000000000E+00  0.00000000000E+00  0.74505805969E-08  0.10566000000E+00  0.10566000000E+00 0. -1.
     999900   -1    0    0    0    0 -0.00000000000E+00 -0.00000000000E+00 -0.74505805969E-08  0.93827000000E+00  0.93827000000E+00 0. -1.
     999902    2    1    2    0    0  0.11330018481E-03  0.22391822617E-01 -0.72001474987E-02  0.10204087611E+01  0.10201376334E+01 0.  0.
     999903    2    3    3    0    0  0.11664210874E+00  0.58798748634E-01 -0.39682796218E-03  0.13195464709E+00  0.18686814730E-01 0.  0.
         14    1    1    2    0    0 -0.11330018481E-03 -0.22391822617E-01  0.72001474987E-02  0.23521238935E-01  0.00000000000E+00 0.  1.
     999901    1    3    3    0    0 -0.11652880855E+00 -0.36406926017E-01 -0.68033195365E-02  0.88845411398E+00  0.88000000000E+00 0. -1.
        -11    1    4    4    0    0  0.25758399327E-01  0.19604560141E-01  0.53425048041E-02  0.32812153127E-01  0.51100000000E-03 0. -1.
         11    1    4    4    0    0  0.90883709409E-01  0.39194188492E-01 -0.57393327663E-02  0.99142493962E-01  0.51100000000E-03 0.  1.
</event>
<event>
 8    1  0.1088021E+005  0.1043930E+01  0.7957747E-01            NaN
         13   -1    0    0    0    0  0.00000000000E+00  0.00000000000E+00  0.74505805969E-08  0.10566000000E+00  0.10566000000E+00 0. -1.
     999900   -1    0    0    0    0 -0.00000000000E+00 -0.00000000000E+00 -0.74505805969E-08  0.93827000000E+00  0.93827000000E+00 0.  1.
     999902    2    1    2    0    0 -0.18083652189E-01  0.76367270266E-02  0.14458837553E-01  0.10195497609E+01  0.10192582199E+01 0.  0.
     999903    2    3    3    0    0 -0.29877687668E-01  0.19473901213E-01 -0.12215149870E+00  0.12885250483E+00  0.20250193010E-01 0.  0.
         14    1    1    2    0    0  0.18083652189E-01 -0.76367270266E-02 -0.14458837553E-01  0.24380239120E-01  0.00000000000E+00 0. -1.
     999901    1    3    3    0    0  0.11794035479E-01 -0.11837174186E-01  0.13661033625E+00  0.89069725605E+00  0.88000000000E+00 0. -1.
        -11    1    4    4    0    0 -0.24845651110E-01  0.50003337758E-02 -0.67950660951E-01  0.72524914076E-01  0.51100000000E-03 0. -1.
         11    1    4    4    0    0 -0.50320365571E-02  0.14473567437E-01 -0.54200837750E-01  0.56327590753E-01  0.51100000000E-03 0.  1.
</event>
<event>
 8    1  0.1088021E+005  0.1043930E+01  0.7957747E-01            NaN
         13   -1    0    0    0    0  0.00000000000E+00  0.00000000000E+00  0.74505805969E-08  0.10566000000E+00  0.10566000000E+00 0.  1.
     999900   -1    0    0    0    0 -0.00000000000E+00 -0.00000000000E+00 -0.74505805969E-08  0.93827000000E+00  0.93827000000E+00 0.  1.
     999902    2    1    2    0    0  0.58221319270E-02  0.22758393296E-01  0.57807768292E-02  0.10197378718E+01  0.10194508660E+01 0.  0.
     999903    2    3    3    0    0  0.29495568754E-01 -0.16211416531E-02 -0.12438764898E+00  0.12951396042E+00  0.20711398995E-01 0.  0.
         14    1    1    2    0    0 -0.58221319270E-02 -0.22758393296E-01 -0.57807768292E-02  0.24192128190E-01  0.00000000000E+00 0.  1.
     999901    1    3    3    0    0 -0.23673436827E-01  0.24379534949E-01  0.13016842581E+00  0.89022391139E+00  0.88000000000E+00 0. -1.
        -11    1    4    4    0    0  0.14495773165E-01 -0.38510881494E-03 -0.98514441049E-01  0.99577266305E-01  0.51100000000E-03 0.  1.
         11    1    4    4    0    0  0.14999795589E-01 -0.12360328381E-02 -0.25873207930E-01  0.29936694114E-01  0.51100000000E-03 0. -1.
</event>
<event>
 7    1  0.1088021E+005  0.1043930E+01  0.7957747E-01            NaN
         13   -1    0    0    0    0  0.00000000000E+00  0.00000000000E+00  0.74505805969E-08  0.10566000000E+00  0.10566000000E+00 0.  1.
     999900   -1    0    0    0    0 -0.00000000000E+00 -0.00000000000E+00 -0.74505805969E-08  0.93827000000E+00  0.93827000000E+00 0. -1.
     999903    2    1    2    0    0 -0.30151899538E-01  0.10302685662E+00  0.32705132677E-01  0.11394574847E+00  0.19756964898E-01 0.  0.
         14    1    1    2    0    0 -0.24203367560E-01 -0.47619585269E-02  0.32101256490E-01  0.40484193440E-01  0.00000000000E+00 0.  1.
     999901    1    1    2    0    0  0.54355267099E-01 -0.98264898089E-01 -0.64806389166E-01  0.88950005809E+00  0.88000000000E+00 0.  1.
        -11    1    3    3    0    0  0.30144800850E-03  0.18589465729E-02  0.40185910796E-02  0.44672976762E-02  0.51100000000E-03 0.  1.
         11    1    3    3    0    0 -0.30453347547E-01  0.10116791004E+00  0.28686541597E-01  0.10947845080E+00  0.51100000000E-03 0. -1.
</event>
<event>
 8    1  0.1088021E+005  0.1043930E+01  0.7957747E-01            NaN
         13   -1    0    0    0    0  0.00000000000E+00  0.00000000000E+00  0.74505805969E-08  0.10566000000E+00  0.10566000000E+00 0.  1.
     999900   -1    0    0    0    0 -0.00000000000E+00 -0.00000000000E+00 -0.74505805969E-08  0.93827000000E+00  0.93827000000E+00 0. -1.
     999902    2    1    2    0    0  0.22240356986E-01  0.64097956771E-02  0.59051211318E-02  0.10200429865E+01  0.10197632592E+01 0.  0.
     999903    2    3    3    0    0  0.45715469549E-01 -0.13989992386E-01  0.12171063885E+00  0.13191115494E+00  0.17362290898E-01 0.  0.
         14    1    1    2    0    0 -0.22240356986E-01 -0.64097956771E-02 -0.59051211318E-02  0.23887013523E-01  0.00000000000E+00 0. -1.
     999901    1    3    3    0    0 -0.23475112563E-01  0.20399788063E-01 -0.11580551771E+00  0.88813183154E+00  0.88000000000E+00 0. -1.
        -11    1    4    4    0    0  0.19456161915E-01 -0.14982313935E-01  0.57011951270E-01  0.62077658428E-01  0.51100000000E-03 0.  1.
         11    1    4    4    0    0  0.26259307634E-01  0.99232154860E-03  0.64698687576E-01  0.69833496508E-01  0.51100000000E-03 0. -1.
</event>
<event>
 8    1  0.1088021E+005  0.1043930E+01  0.7957747E-01            NaN
         13   -1    0    0    0    0  0.00000000000E+00  0.00000000000E+00  0.74505805969E-08  0.10566000000E+00  0.10566000000E+00 0. -1.
     999900   -1    0    0    0    0 -0.00000000000E+00 -0.00000000000E+00 -0.74505805969E-08  0.93827000000E+00  0.93827000000E+00 0. -1.
     999902    2    1    2    0    0 -0.17417769023E-01 -0.46323607759E-02  0.14327733184E-01  0.10209056350E+01  0.10206459691E+01 0.  0.
     999903    2    3    3    0    0  0.97189940231E-01 -0.80603493054E-01 -0.22111176559E-01  0.12948298886E+00  0.18279297059E-01 0.  0.
         14    1    1    2    0    0  0.17417769023E-01  0.46323607759E-02 -0.14327733184E-01  0.23024364970E-01  0.00000000000E+00 0.  1.
     999901    1    3    3    0    0 -0.11460770925E+00  0.75971132278E-01  0.36438909742E-01  0.89142264617E+00  0.88000000000E+00 0. -1.
        -11    1    4    4    0    0  0.55553657782E-01 -0.50316674128E-01 -0.45936888559E-02  0.75095537062E-01  0.51100000000E-03 0.  1.
         11    1    4    4    0    0  0.41636282448E-01 -0.30286818926E-01 -0.17517487703E-01  0.54387451799E-01  0.51100000000E-03 0. -1.
</event>
<event>
 8    1  0.1088021E+005  0.1043930E+01  0.7957747E-01            NaN
         13   -1    0    0    0    0  0.00000000000E+00  0.00000000000E+00  0.74505805969E-08  0.10566000000E+00  0.10566000000E+00 0. -1.
     999900   -1    0    0    0    0 -0.00000000000E+00 -0.00000000000E+00 -0.74505805969E-08  0.93827000000E+00  0.93827000000E+00 0. -1.
     999902    2    1    2    0    0 -0.10487344901E-01 -0.20202470494E-01 -0.84563511833E-02  0.10196476177E+01  0.10193584404E+01 0.  0.
     999903    2    3    3    0    0  0.11415940516E+00  0.41271502240E-01 -0.34853144656E-01  0.12834932172E+00  0.22871379736E-01 0.  0.
         14    1    1    2    0    0  0.10487344901E-01  0.20202470494E-01  0.84563511833E-02  0.24282382347E-01  0.00000000000E+00 0. -1.
     999901    1    3    3    0    0 -0.12464675006E+00 -0.61473972734E-01  0.26396793473E-01  0.89129829593E+00  0.88000000000E+00 0.  1.
        -11    1    4    4    0    0  0.90809321681E-01  0.31831247904E-01 -0.36933157416E-01  0.10307221005E+00  0.51100000000E-03 0.  1.
         11    1    4    4    0    0  0.23350083476E-01  0.94402543356E-02  0.20800127604E-02  0.25277111669E-01  0.51100000000E-03 0. -1.
</event>
<event>
 8    1  0.1088021E+005  0.1043930E+01  0.7957747E-01            NaN
         13   -1    0    0    0    0  0.00000000000E+00  0.00000000000E+00  0.74505805969E-08  0.10566000000E+00  0.10566000000E+00 0. -1.
     999900   -1    0    0    0    0 -0.00000000000E+00 -0.00000000000E+00 -0.74505805969E-08  0.93827000000E+00  0.93827000000E+00 0.  1.
     999902    2    1    2    0    0  0.78718462324E-02 -0.20149730134E-01  0.98241580652E-02  0.10201709666E+01  0.10198942638E+01 0.  0.
     999903    2    3    3    0    0  0.49662055731E-01 -0.18630012261E-01 -0.11661464950E+00  0.13015102117E+00  0.22954622607E-01 0.  0.
         14    1    1    2    0    0 -0.78718462324E-02  0.20149730134E-01 -0.98241580652E-02  0.23759033425E-01  0.00000000000E+00 0.  1.
     999901    1    3    3    0    0 -0.41790209499E-01 -0.15197178731E-02  0.12643880756E+00  0.89001994540E+00  0.88000000000E+00 0. -1.
        -11    1    4    4    0    0  0.18218282833E-01 -0.88994910268E-02 -0.71383536844E-01  0.74209010391E-01  0.51100000000E-03 0. -1.
         11    1    4    4    0    0  0.31443772899E-01 -0.97305212345E-02 -0.45231112654E-01  0.55942010784E-01  0.51100000000E-03 0.  1.
</event>
<event>
 8    1  0.1088021E+005  0.1043930E+01  0.7957747E-01            NaN
         13   -1    0    0    0    0  0.00000000000E+00  0.00000000000E+00  0.74505805969E-08  0.10566000000E+00  0.10566000000E+00 0.  1.
     999900   -1    0    0    0    0 -0.00000000000E+00 -0.00000000000E+00 -0.74505805969E-08  0.93827000000E+00  0.93827000000E+00 0. -1.
     999902    2    1    2    0    0  0.13871143234E-01  0.32384691108E-02 -0.23300782192E-01  0.10166202445E+01  0.10162533634E+01 0.  0.
     999903    2    3    3    0    0  0.22341167571E-01  0.41358958712E-01  0.11412143177E+00  0.12509919708E+00  0.20406290368E-01 0.  0.
         14    1    1    2    0    0 -0.13871143234E-01 -0.32384691108E-02  0.23300782192E-01  0.27309755538E-01  0.00000000000E+00 0.  1.
     999901    1    3    3    0    0 -0.84700243372E-02 -0.38120489601E-01 -0.13742221396E+00  0.89152104738E+00  0.88000000000E+00 0. -1.
        -11    1    4    4    0    0  0.18760714906E-01  0.20448032098E-01  0.82270001871E-01  0.86825691873E-01  0.51100000000E-03 0.  1.
         11    1    4    4    0    0  0.35804526644E-02  0.20910926614E-01  0.31851429897E-01  0.38273505204E-01  0.51100000000E-03 0. -1.
</event>
<event>
 8    1  0.1088021E+005  0.1043930E+01  0.7957747E-01            NaN
         13   -1    0    0    0    0  0.00000000000E+00  0.00000000000E+00  0.74505805969E-08  0.10566000000E+00  0.10566000000E+00 0.  1.
     999900   -1    0    0    0    0 -0.00000000000E+00 -0.00000000000E+00 -0.74505805969E-08  0.93827000000E+00  0.93827000000E+00 0. -1.
     999902    2    1    2    0    0 -0.43391646061E-02  0.17379274545E-01  0.22445988344E-01  0.10152125850E+01  0.10148063376E+01 0.  0.
     999903    2    3    3    0    0  0.46465464693E-02  0.28441755222E-01  0.12431032322E+00  0.12922191673E+00  0.20364760526E-01 0.  0.
         14    1    1    2    0    0  0.43391646061E-02 -0.17379274545E-01 -0.22445988344E-01  0.28717415029E-01  0.00000000000E+00 0. -1.
     999901    1    3    3    0    0 -0.89857110755E-02 -0.11062480677E-01 -0.10186433488E+00  0.88599066824E+00  0.88000000000E+00 0. -1.
        -11    1    4    4    0    0  0.15377430662E-02  0.29389123572E-01  0.88616891116E-01  0.93377190738E-01  0.51100000000E-03 0. -1.
         11    1    4    4    0    0  0.31088034031E-02 -0.94736835017E-03  0.35693432104E-01  0.35844725996E-01  0.51100000000E-03 0.  1.
</event>
<event>
 8    1  0.1088021E+005  0.1043930E+01  0.7957747E-01            NaN
         13   -1    0    0    0    0  0.00000000000E+00  0.00000000000E+00  0.74505805969E-08  0.10566000000E+00  0.10566000000E+00 0.  1.
     999900   -1    0    0    0    0 -0.00000000000E+00 -0.00000000000E+00 -0.74505805969E-08  0.93827000000E+00  0.93827000000E+00 0. -1.
     999902    2    1    2    0    0 -0.10908719142E-01 -0.36215800761E-02  0.14783932149E-01  0.10252035309E+01  0.10250324869E+01 0.  0.
     999903    2    3    3    0    0 -0.46915333172E-01 -0.70040027491E-02  0.12731573395E+00  0.13730076400E+00  0.19801493431E-01 0.  0.
         14    1    1    2    0    0  0.10908719142E-01  0.36215800761E-02 -0.14783932149E-01  0.18726469111E-01  0.00000000000E+00 0. -1.
     999901    1    3    3    0    0  0.36006614030E-01  0.33824226730E-02 -0.11253180180E+00  0.88790276689E+00  0.88000000000E+00 0. -1.
        -11    1    4    4    0    0 -0.14138982052E-01 -0.23184496435E-02  0.17619155441E-01  0.22715232371E-01  0.51100000000E-03 0. -1.
         11    1    4    4    0    0 -0.32776351120E-01 -0.46855531056E-02  0.10969657851E+00  0.11458553163E+00  0.51100000000E-03 0.  1.
</event>
<event>
 7    1  0.1088021E+005  0.1043930E+01  0.7957747E-01            NaN
         13   -1    0    0    0    0  0.00000000000E+00  0.00000000000E+00  0.74505805969E-08  0.10566000000E+00  0.10566000000E+00 0.  1.
     999900   -1    0    0    0    0 -0.00000000000E+00 -0.00000000000E+00 -0.74505805969E-08  0.93827000000E+00  0.93827000000E+00 0. -1.
     999903    2    1    2    0    0  0.52291066180E-01 -0.24583730736E-01 -0.29427164401E-01  0.67575626190E-01  0.19020826245E-01 0.  0.
         14    1    1    2    0    0  0.31985072056E-01  0.25437796751E-01 -0.75772135182E-01  0.86090317736E-01  0.00000000000E+00 0. -1.
     999901    1    1    2    0    0 -0.84276138237E-01 -0.85406601435E-03  0.10519929958E+00  0.89026405607E+00  0.88000000000E+00 0.  1.
        -11    1    3    3    0    0  0.71539056346E-02 -0.10090529714E-03 -0.10768752496E-01  0.12938921865E-01  0.51100000000E-03 0. -1.
         11    1    3    3    0    0  0.45137160546E-01 -0.24482825439E-01 -0.18658411905E-01  0.54636704324E-01  0.51100000000E-03 0.  1.
</event>
<event>
 8    1  0.1088021E+005  0.1043930E+01  0.7957747E-01            NaN
         13   -1    0    0    0    0  0.00000000000E+00  0.00000000000E+00  0.74505805969E-08  0.10566000000E+00  0.10566000000E+00 0.  1.
     999900   -1    0    0    0    0 -0.00000000000E+00 -0.00000000000E+00 -0.74505805969E-08  0.93827000000E+00  0.93827000000E+00 0. -1.
     999902    2    1    2    0    0  0.14897019120E-01 -0.17682459599E-01 -0.62097682347E-02  0.10199894115E+01  0.10197084131E+01 0.  0.
     999903    2    3    3    0    0 -0.16268783983E-01 -0.83897608830E-01  0.97027084882E-01  0.13093733141E+00  0.20660286950E-01 0.  0.
         14    1    1    2    0    0 -0.14897019120E-01  0.17682459599E-01  0.62097682347E-02  0.23940588498E-01  0.00000000000E+00 0.  1.
     999901    1    3    3    0    0  0.31165803103E-01  0.66215149231E-01 -0.10323685312E+00  0.88905208009E+00  0.88000000000E+00 0. -1.
        -11    1    4    4    0    0 -0.15338317345E-01 -0.32236676357E-01  0.32586334871E-01  0.48338365951E-01  0.51100000000E-03 0.  1.
         11    1    4    4    0    0 -0.93046663818E-03 -0.51660932473E-01  0.64440750012E-01  0.82598965461E-01  0.51100000000E-03 0. -1.
</event>
<event>
 8    1  0.1088021E+005  0.1043930E+01  0.7957747E-01            NaN
         13   -1    0    0    0    0  0.00000000000E+00  0.00000000000E+00  0.74505805969E-08  0.10566000000E+00  0.10566000000E+00 0.  1.
     999900   -1    0    0    0    0 -0.00000000000E+00 -0.00000000000E+00 -0.74505805969E-08  0.93827000000E+00  0.93827000000E+00 0. -1.
     999902    2    1    2    0    0 -0.23230568339E-01  0.30957943273E-02 -0.95447000495E-02  0.10186249699E+01  0.10183106033E+01 0.  0.
     999903    2    3    3    0    0 -0.41977814642E-01 -0.12062755645E+00  0.87107075025E-02  0.12958493333E+00  0.20080692779E-01 0.  0.
         14    1    1    2    0    0  0.23230568339E-01 -0.30957943273E-02  0.95447000495E-02  0.25305030071E-01  0.00000000000E+00 0.  1.
     999901    1    3    3    0    0  0.18747246303E-01  0.12372335078E+00 -0.18255407552E-01  0.88904003660E+00  0.88000000000E+00 0. -1.
        -11    1    4    4    0    0 -0.27923249136E-01 -0.52024951718E-01  0.77105659144E-02  0.59548445750E-01  0.51100000000E-03 0.  1.
         11    1    4    4    0    0 -0.14054565506E-01 -0.68602604736E-01  0.10001415881E-02  0.70036487579E-01  0.51100000000E-03 0. -1.
</event>
<event>
 8    1  0.1088021E+005  0.1043930E+01  0.7957747E-01            NaN
         13   -1    0    0    0    0  0.00000000000E+00  0.00000000000E+00  0.74505805969E-08  0.10566000000E+00  0.10566000000E+00 0. -1.
     999900   -1    0    0    0    0 -0.00000000000E+00 -0.00000000000E+00 -0.74505805969E-08  0.93827000000E+00  0.93827000000E+00 0.  1.
     999902    2    1    2    0    0 -0.11193076292E-01 -0.85680650125E-02 -0.18878492915E-01  0.10203695630E+01  0.10200975203E+01 0.  0.
     999903    2    3    3    0    0  0.47961856289E-01  0.20952748237E-01  0.11484507949E+00  0.12781548721E+00  0.20200226985E-01 0.  0.
         14    1    1    2    0    0  0.11193076292E-01  0.85680650125E-02  0.18878492915E-01  0.23560436958E-01  0.00000000000E+00 0. -1.
     999901    1    3    3    0    0 -0.59154932581E-01 -0.29520813249E-01 -0.13372357241E+00  0.89255407583E+00  0.88000000000E+00 0.  1.
        -11    1    4    4    0    0  0.18747258212E-01  0.19038776197E-01  0.58535391389E-01  0.64347399758E-01  0.51100000000E-03 0. -1.
         11    1    4    4    0    0  0.29214598077E-01  0.19139720399E-02  0.56309688103E-01  0.63468087454E-01  0.51100000000E-03 0.  1.
</event>
<event>
 8    1  0.1088021E+005  0.1043930E+01  0.7957747E-01            NaN
         13   -1    0    0    0    0  0.00000000000E+00  0.00000000000E+00  0.74505805969E-08  0.10566000000E+00  0.10566000000E+00 0.  1.
     999900   -1    0    0    0    0 -0.00000000000E+00 -0.00000000000E+00 -0.74505805969E-08  0.93827000000E+00  0.93827000000E+00 0.  1.
     999902    2    1    2    0    0 -0.34041170376E-03  0.23724516542E-01 -0.30627673023E-02  0.10200061811E+01  0.10197255810E+01 0.  0.
     999903    2    3    3    0    0 -0.10492341709E+00 -0.71899310822E-01  0.25276807828E-02  0.12865172051E+00  0.19142666198E-01 0.  0.
         14    1    1    2    0    0  0.34041170376E-03 -0.23724516542E-01  0.30627673023E-02  0.23923818860E-01  0.00000000000E+00 0.  1.
     999901    1    3    3    0    0  0.10458300539E+00  0.95623827364E-01 -0.55904480851E-02  0.89135446063E+00  0.88000000000E+00 0. -1.
        -11    1    4    4    0    0 -0.26540643094E-01 -0.21907285760E-01 -0.72378683479E-02  0.35170765764E-01  0.51100000000E-03 0.  1.
         11    1    4    4    0    0 -0.78382773997E-01 -0.49992025062E-01  0.97655491307E-02  0.93480954746E-01  0.51100000000E-03 0. -1.
</event>
<event>
 8    1  0.1088021E+005  0.1043930E+01  0.7957747E-01            NaN
         13   -1    0    0    0    0  0.00000000000E+00  0.00000000000E+00  0.74505805969E-08  0.10566000000E+00  0.10566000000E+00 0. -1.
     999900   -1    0    0    0    0 -0.00000000000E+00 -0.00000000000E+00 -0.74505805969E-08  0.93827000000E+00  0.93827000000E+00 0.  1.
     999902    2    1    2    0    0  0.12568358168E-01 -0.15510225596E-01 -0.12548037090E-01  0.10203506879E+01  0.10200782040E+01 0.  0.
     999903    2    3    3    0    0 -0.65066036074E-01  0.10350594668E-01 -0.11145997562E+00  0.13103665292E+00  0.20163193766E-01 0.  0.
         14    1    1    2    0    0 -0.12568358168E-01  0.15510225596E-01  0.12548037090E-01  0.23579312116E-01  0.00000000000E+00 0. -1.
     999901    1    3    3    0    0  0.77634394243E-01 -0.25860820263E-01  0.98911938533E-01  0.88931403496E+00  0.88000000000E+00 0. -1.
        -11    1    4    4    0    0 -0.40940303156E-01  0.71413486959E-02 -0.50549686832E-01  0.65441876834E-01  0.51100000000E-03 0. -1.
         11    1    4    4    0    0 -0.24125732919E-01  0.32092459719E-02 -0.60910288791E-01  0.65594776089E-01  0.51100000000E-03 0.  1.
</event>
<event>
 8    1  0.1088021E+005  0.1043930E+01  0.7957747E-01            NaN
         13   -1    0    0    0    0  0.00000000000E+00  0.00000000000E+00  0.74505805969E-08  0.10566000000E+00  0.10566000000E+00 0.  1.
     999900   -1    0    0    0    0 -0.00000000000E+00 -0.00000000000E+00 -0.74505805969E-08  0.93827000000E+00  0.93827000000E+00 0. -1.
     999902    2    1    2    0    0 -0.15418094194E-01  0.15410189174E-01  0.81040498709E-02  0.10206734486E+01  0.10204084582E+01 0.  0.
     999903    2    3    3    0    0 -0.51535085928E-01 -0.11768763182E+00  0.17118271708E-02  0.12990954746E+00  0.19165500386E-01 0.  0.
         14    1    1    2    0    0  0.15418094194E-01 -0.15410189174E-01 -0.81040498709E-02  0.23256551405E-01  0.00000000000E+00 0. -1.
     999901    1    3    3    0    0  0.36116991733E-01  0.13309782099E+00  0.63922227001E-02  0.89076390113E+00  0.88000000000E+00 0. -1.
        -11    1    4    4    0    0 -0.39466395142E-01 -0.71823234963E-01  0.66581497806E-02  0.82223874304E-01  0.51100000000E-03 0. -1.
         11    1    4    4    0    0 -0.12068690785E-01 -0.45864396858E-01 -0.49463226098E-02  0.47685673160E-01  0.51100000000E-03 0.  1.
</event>
<event>
 8    1  0.1088021E+005  0.1043930E+01  0.7957747E-01            NaN
         13   -1    0    0    0    0  0.00000000000E+00  0.00000000000E+00  0.74505805969E-08  0.10566000000E+00  0.10566000000E+00 0.  1.
     999900   -1    0    0    0    0 -0.00000000000E+00 -0.00000000000E+00 -0.74505805969E-08  0.93827000000E+00  0.93827000000E+00 0.  1.
     999902    2    1    2    0    0  0.11067725291E-01  0.36175143871E-03 -0.19395279346E-01  0.10215961184E+01  0.10213519603E+01 0.  0.
     999903    2    3    3    0    0  0.37022460375E-01 -0.10443452010E+00 -0.71486355720E-01  0.13346922033E+00  0.20651928755E-01 0.  0.
         14    1    1    2    0    0 -0.11067725291E-01 -0.36175143871E-03  0.19395279346E-01  0.22333881618E-01  0.00000000000E+00 0.  1.
     999901    1    3    3    0    0 -0.25954735084E-01  0.10479627154E+00  0.52091076374E-01  0.88812689805E+00  0.88000000000E+00 0. -1.
        -11    1    4    4    0    0  0.80964593148E-02 -0.20851649373E-01 -0.24996259237E-01  0.33547250735E-01  0.51100000000E-03 0. -1.
         11    1    4    4    0    0  0.28926001060E-01 -0.83582870726E-01 -0.46490096483E-01  0.99921969597E-01  0.51100000000E-03 0.  1.
</event>
<event>
 8    1  0.1088021E+005  0.1043930E+01  0.7957747E-01            NaN
         13   -1    0    0    0    0  0.00000000000E+00  0.00000000000E+00  0.74505805969E-08  0.10566000000E+00  0.10566000000E+00 0.  1.
     999900   -1    0    0    0    0 -0.00000000000E+00 -0.00000000000E+00 -0.74505805969E-08  0.93827000000E+00  0.93827000000E+00 0. -1.
     999902    2    1    2    0    0 -0.16496561878E-01 -0.11725699114E-01  0.10433272516E-01  0.10211598057E+01  0.10209059051E+01 0.  0.
     999903    2    3    3    0    0 -0.79242231628E-01  0.66950091545E-01  0.80139930310E-01  0.13268587965E+00  0.20530177734E-01 0.  0.
         14    1    1    2    0    0  0.16496561878E-01  0.11725699114E-01 -0.10433272516E-01  0.22770194309E-01  0.00000000000E+00 0.  1.
     999901    1    3    3    0    0  0.62745669750E-01 -0.78675790659E-01 -0.69706657795E-01  0.88847392604E+00  0.88000000000E+00 0. -1.
        -11    1    4    4    0    0 -0.43653697500E-01  0.44084207968E-01  0.36867827191E-01  0.72170357492E-01  0.51100000000E-03 0. -1.
         11    1    4    4    0    0 -0.35588534128E-01  0.22865883577E-01  0.43272103119E-01  0.60515522161E-01  0.51100000000E-03 0.  1.
</event>
<event>
 8    1  0.1088021E+005  0.1043930E+01  0.7957747E-01            NaN
         13   -1    0    0    0    0  0.00000000000E+00  0.00000000000E+00  0.74505805969E-08  0.10566000000E+00  0.10566000000E+00 0. -1.
     999900   -1    0    0    0    0 -0.00000000000E+00 -0.00000000000E+00 -0.74505805969E-08  0.93827000000E+00  0.93827000000E+00 0. -1.
     999902    2    1    2    0    0 -0.76216218264E-03  0.24784871401E-01 -0.11988140714E-01  0.10163875553E+01  0.10160143091E+01 0.  0.
     999903    2    3    3    0    0  0.10860399535E+00 -0.59689598114E-01 -0.84852748106E-02  0.12559624278E+00  0.18567185642E-01 0.  0.
         14    1    1    2    0    0  0.76216218264E-03 -0.24784871401E-01  0.11988140714E-01  0.27542444687E-01  0.00000000000E+00 0.  1.
     999901    1    3    3    0    0 -0.10936615753E+00  0.84474469515E-01 -0.35028659030E-02  0.89079131253E+00  0.88000000000E+00 0. -1.
        -11    1    4    4    0    0  0.54196324399E-01 -0.22977131947E-01 -0.11106230095E-01  0.59906590946E-01  0.51100000000E-03 0. -1.
         11    1    4    4    0    0  0.54407670953E-01 -0.36712466167E-01  0.26209552839E-02  0.65689651835E-01  0.51100000000E-03 0.  1.
</event>
<event>
 8    1  0.1088021E+005  0.1043930E+01  0.7957747E-01            NaN
         13   -1    0    0    0    0  0.00000000000E+00  0.00000000000E+00  0.74505805969E-08  0.10566000000E+00  0.10566000000E+00 0. -1.
     999900   -1    0    0    0    0 -0.00000000000E+00 -0.00000000000E+00 -0.74505805969E-08  0.93827000000E+00  0.93827000000E+00 0.  1.
     999902    2    1    2    0    0 -0.16720140719E-01  0.11292429924E-01 -0.37651798984E-02  0.10234054133E+01  0.10231995804E+01 0.  0.
     999903    2    3    3    0    0  0.10228393543E+00  0.28930503643E-01 -0.76110675753E-01  0.13227863077E+00  0.20145066564E-01 0.  0.
         14    1    1    2    0    0  0.16720140719E-01 -0.11292429924E-01  0.37651798984E-02  0.20524586693E-01  0.00000000000E+00 0. -1.
     999901    1    3    3    0    0 -0.11900407615E+00 -0.17638073719E-01  0.72345495855E-01  0.89112678254E+00  0.88000000000E+00 0.  1.
        -11    1    4    4    0    0  0.66112685200E-01  0.27215342993E-01 -0.56270893163E-01  0.90984815090E-01  0.51100000000E-03 0. -1.
         11    1    4    4    0    0  0.36171250229E-01  0.17151606499E-02 -0.19839782590E-01  0.41293815680E-01  0.51100000000E-03 0.  1.
</event>
<event>
 8    1  0.1088021E+005  0.1043930E+01  0.7957747E-01            NaN
         13   -1    0    0    0    0  0.00000000000E+00  0.00000000000E+00  0.74505805969E-08  0.10566000000E+00  0.10566000000E+00 0. -1.
     999900   -1    0    0    0    0 -0.00000000000E+00 -0.00000000000E+00 -0.74505805969E-08  0.93827000000E+00  0.93827000000E+00 0.  1.
     999902    2    1    2    0    0 -0.58296838496E-02  0.48132378565E-02 -0.21437728695E-01  0.10211983330E+01  0.10209453005E+01 0.  0.
     999903    2    3    3    0    0 -0.12079984685E+00 -0.18963073718E-01  0.42764536804E-01  0.13108295719E+00  0.20043325425E-01 0.  0.
         14    1    1    2    0    0  0.58296838496E-02 -0.48132378565E-02  0.21437728695E-01  0.22731666987E-01  0.00000000000E+00 0. -1.
     999901    1    3    3    0    0  0.11497016300E+00  0.23776311574E-01 -0.64202265499E-01  0.89011537582E+00  0.88000000000E+00 0.  1.
        -11    1    4    4    0    0 -0.82981099372E-01 -0.51601887645E-02  0.23200593179E-01  0.86319285480E-01  0.51100000000E-03 0. -1.
         11    1    4    4    0    0 -0.37818747482E-01 -0.13802884953E-01  0.19563943626E-01  0.44763671714E-01  0.51100000000E-03 0.  1.
</event>
<event>
 8    1  0.1088021E+005  0.1043930E+01  0.7957747E-01            NaN
         13   -1    0    0    0    0  0.00000000000E+00  0.00000000000E+00  0.74505805969E-08  0.10566000000E+00  0.10566000000E+00 0. -1.
     999900   -1    0    0    0    0 -0.00000000000E+00 -0.00000000000E+00 -0.74505805969E-08  0.93827000000E+00  0.93827000000E+00 0. -1.
     999902    2    1    2    0    0  0.18748131311E-01 -0.13863330745E-01 -0.76151275671E-02  0.10194009451E+01  0.10191057905E+01 0.  0.
     999903    2    3    3    0    0 -0.38260854617E-01  0.11320713117E+00  0.34678975111E-01  0.12744482627E+00  0.27564558498E-01 0.  0.
         14    1    1    2    0    0 -0.18748131311E-01  0.13863330745E-01  0.76151275671E-02  0.24529054912E-01  0.00000000000E+00 0. -1.
     999901    1    3    3    0    0  0.57008985929E-01 -0.12707046192E+00 -0.42294102678E-01  0.89195611881E+00  0.88000000000E+00 0. -1.
        -11    1    4    4    0    0 -0.12391375754E-01  0.74697526814E-01  0.27165239485E-01  0.80445497465E-01  0.51100000000E-03 0. -1.
         11    1    4    4    0    0 -0.25869478863E-01  0.38509604358E-01  0.75137356261E-02  0.46999328809E-01  0.51100000000E-03 0.  1.
</event>
<event>
 8    1  0.1088021E+005  0.1043930E+01  0.7957747E-01            NaN
         13   -1    0    0    0    0  0.00000000000E+00  0.00000000000E+00  0.74505805969E-08  0.10566000000E+00  0.10566000000E+00 0. -1.
     999900   -1    0    0    0    0 -0.00000000000E+00 -0.00000000000E+00 -0.74505805969E-08  0.93827000000E+00  0.93827000000E+00 0.  1.
     999902    2    1    2    0    0 -0.29806732177E-02 -0.23894150760E-01  0.25746440625E-02  0.10197134014E+01  0.10194258077E+01 0.  0.
     999903    2    3    3    0    0 -0.16494927697E-01 -0.43180309760E-01  0.12142151661E+00  0.13141211803E+00  0.19731656808E-01 0.  0.
         14    1    1    2    0    0  0.29806732177E-02  0.23894150760E-01 -0.25746440625E-02  0.24216598552E-01  0.00000000000E+00 0.  1.
     999901    1    3    3    0    0  0.13514254479E-01  0.19286158999E-01 -0.11884687254E+00  0.88830128341E+00  0.88000000000E+00 0.  1.
        -11    1    4    4    0    0 -0.14874884319E-01 -0.38195652373E-01  0.82366418671E-01  0.92003576503E-01  0.51100000000E-03 0.  1.
         11    1    4    4    0    0 -0.16200433781E-02 -0.49846573867E-02  0.39055097935E-01  0.39408541530E-01  0.51100000000E-03 0. -1.
</event>
<event>
 8    1  0.1088021E+005  0.1043930E+01  0.7957747E-01            NaN
         13   -1    0    0    0    0  0.00000000000E+00  0.00000000000E+00  0.74505805969E-08  0.10566000000E+00  0.10566000000E+00 0. -1.
     999900   -1    0    0    0    0 -0.00000000000E+00 -0.00000000000E+00 -0.74505805969E-08  0.93827000000E+00  0.93827000000E+00 0. -1.
     999902    2    1    2    0    0 -0.13928971304E-01  0.16502855778E-01  0.92109514977E-02  0.10204523059E+01  0.10201821928E+01 0.  0.
     999903    2    3    3    0    0  0.41875983074E-01  0.45046044435E-01  0.11501178865E+00  0.13190139368E+00  0.19685579728E-01 0.  0.
         14    1    1    2    0    0  0.13928971304E-01 -0.16502855778E-01 -0.92109514977E-02  0.23477694050E-01  0.00000000000E+00 0.  1.
     999901    1    3    3    0    0 -0.55804954378E-01 -0.28543188657E-01 -0.10580083715E+00  0.88855091227E+00  0.88000000000E+00 0. -1.
        -11    1    4    4    0    0  0.33396611136E-01  0.23732396707E-01  0.82428065067E-01  0.92050026184E-01  0.51100000000E-03 0.  1.
         11    1    4    4    0    0  0.84793719382E-02  0.21313647728E-01  0.32583723582E-01  0.39851367497E-01  0.51100000000E-03 0. -1.
</event>
<event>
 8    1  0.1088021E+005  0.1043930E+01  0.7957747E-01            NaN
         13   -1    0    0    0    0  0.00000000000E+00  0.00000000000E+00  0.74505805969E-08  0.10566000000E+00  0.10566000000E+00 0. -1.
     999900   -1    0    0    0    0 -0.00000000000E+00 -0.00000000000E+00 -0.74505805969E-08  0.93827000000E+00  0.93827000000E+00 0.  1.
     999902    2    1    2    0    0  0.58697433185E-02 -0.62372741853E-03 -0.20989261561E-01  0.10221265135E+01  0.10218939366E+01 0.  0.
     999903    2    3    3    0    0 -0.81425744568E-01  0.98802755646E-01  0.23119665271E-01  0.13114294173E+00  0.16486838453E-01 0.  0.
         14    1    1    2    0    0 -0.58697433185E-02  0.62372741853E-03  0.20989261561E-01  0.21803486496E-01  0.00000000000E+00 0. -1.
     999901    1    3    3    0    0  0.87295487887E-01 -0.99426483065E-01 -0.44108926832E-01  0.89098357177E+00  0.88000000000E+00 0.  1.
        -11    1    4    4    0    0 -0.25639046960E-02  0.95571624759E-02  0.30431194360E-02  0.10365069164E-01  0.51100000000E-03 0.  1.
         11    1    4    4    0    0 -0.78861839872E-01  0.89245593170E-01  0.20076545835E-01  0.12077787257E+00  0.51100000000E-03 0. -1.
</event>
<event>
 8    1  0.1088021E+005  0.1043930E+01  0.7957747E-01            NaN
         13   -1    0    0    0    0  0.00000000000E+00  0.00000000000E+00  0.74505805969E-08  0.10566000000E+00  0.10566000000E+00 0.  1.
     999900   -1    0    0    0    0 -0.00000000000E+00 -0.00000000000E+00 -0.74505805969E-08  0.93827000000E+00  0.93827000000E+00 0. -1.
     999902    2    1    2    0    0 -0.14177544121E-02  0.23619853088E-02  0.23573780624E-01  0.10201958024E+01  0.10199196846E+01 0.  0.
     999903    2    3    3    0    0 -0.92213968969E-01  0.88891557414E-01 -0.14677931186E-01  0.13047982926E+00  0.20110174724E-01 0.  0.
         14    1    1    2    0    0  0.14177544121E-02 -0.23619853088E-02 -0.23573780624E-01  0.23734197587E-01  0.00000000000E+00 0. -1.
     999901    1    3    3    0    0  0.90796214557E-01 -0.86529572105E-01  0.38251711810E-01  0.88971597315E+00  0.88000000000E+00 0.  1.
        -11    1    4    4    0    0 -0.44448765455E-01  0.56705258019E-01 -0.80415419009E-02  0.72499010714E-01  0.51100000000E-03 0.  1.
         11    1    4    4    0    0 -0.47765203514E-01  0.32186299395E-01 -0.66363892850E-02  0.57980818546E-01  0.51100000000E-03 0. -1.
</event>
<event>
 8    1  0.1088021E+005  0.1043930E+01  0.7957747E-01            NaN
         13   -1    0    0    0    0  0.00000000000E+00  0.00000000000E+00  0.74505805969E-08  0.10566000000E+00  0.10566000000E+00 0.  1.
     999900   -1    0    0    0    0 -0.00000000000E+00 -0.00000000000E+00 -0.74505805969E-08  0.93827000000E+00  0.93827000000E+00 0.  1.
     999902    2    1    2    0    0  0.20402430872E-01 -0.82282210372E-02 -0.91576716247E-02  0.10201009053E+01  0.10198225488E+01 0.  0.
     999903    2    3    3    0    0 -0.26231217181E-03  0.91335170776E-01  0.88632935831E-01  0.12886417828E+00  0.20198933183E-01 0.  0.
         14    1    1    2    0    0 -0.20402430872E-01  0.82282210372E-02  0.91576716247E-02  0.23829094748E-01  0.00000000000E+00 0.  1.
     999901    1    3    3    0    0  0.20664743044E-01 -0.99563391813E-01 -0.97790607456E-01  0.89123672697E+00  0.88000000000E+00 0. -1.
        -11    1    4    4    0    0 -0.69207425309E-02  0.75547074062E-01  0.66621788258E-01  0.10096524584E+00  0.51100000000E-03 0.  1.
         11    1    4    4    0    0  0.66584303591E-02  0.15788096714E-01  0.22011147573E-01  0.27898932439E-01  0.51100000000E-03 0. -1.
</event>
<event>
 8    1  0.1088021E+005  0.1043930E+01  0.7957747E-01            NaN
         13   -1    0    0    0    0  0.00000000000E+00  0.00000000000E+00  0.74505805969E-08  0.10566000000E+00  0.10566000000E+00 0.  1.
     999900   -1    0    0    0    0 -0.00000000000E+00 -0.00000000000E+00 -0.74505805969E-08  0.93827000000E+00  0.93827000000E+00 0.  1.
     999902    2    1    2    0    0 -0.93263544023E-02  0.22029082785E-01  0.31682972028E-02  0.10197991177E+01  0.10195135805E+01 0.  0.
     999903    2    3    3    0    0  0.84824256009E-01 -0.93532334030E-01  0.94534037863E-02  0.12724195924E+00  0.12557763818E-01 0.  0.
         14    1    1    2    0    0  0.93263544023E-02 -0.22029082785E-01 -0.31682972028E-02  0.24130882329E-01  0.00000000000E+00 0.  1.
     999901    1    3    3    0    0 -0.94150610411E-01  0.11556141682E+00 -0.62851065835E-02  0.89255715843E+00  0.88000000000E+00 0. -1.
        -11    1    4    4    0    0  0.63466301531E-01 -0.74167104411E-01  0.11723995241E-01  0.98318075612E-01  0.51100000000E-03 0. -1.
         11    1    4    4    0    0  0.21357954479E-01 -0.19365229620E-01 -0.22705914546E-02  0.28923883631E-01  0.51100000000E-03 0.  1.
</event>
<event>
 8    1  0.1088021E+005  0.1043930E+01  0.7957747E-01            NaN
         13   -1    0    0    0    0  0.00000000000E+00  0.00000000000E+00  0.74505805969E-08  0.10566000000E+00  0.10566000000E+00 0. -1.
     999900   -1    0    0    0    0 -0.00000000000E+00 -0.00000000000E+00 -0.74505805969E-08  0.93827000000E+00  0.93827000000E+00 0. -1.
     999902    2    1    2    0    0 -0.36849025665E-02  0.21904330939E-01 -0.75206093411E-02  0.10204792477E+01  0.10202097613E+01 0.  0.
     999903    2    3    3    0    0 -0.90330507059E-01  0.95704593132E-01 -0.39307041157E-02  0.13314231790E+00  0.19810520683E-01 0.  0.
         14    1    1    2    0    0  0.36849025665E-02 -0.21904330939E-01  0.75206093411E-02  0.23450752348E-01  0.00000000000E+00 0. -1.
     999901    1    3    3    0    0  0.86645604492E-01 -0.73800262193E-01 -0.35899052254E-02  0.88733692975E+00  0.88000000000E+00 0.  1.
        -11    1    4    4    0    0 -0.44628685600E-01  0.40241316213E-01  0.67964942916E-02  0.60477570756E-01  0.51100000000E-03 0. -1.
         11    1    4    4    0    0 -0.45701821459E-01  0.55463276919E-01 -0.10727198407E-01  0.72664747147E-01  0.51100000000E-03 0.  1.
</event>
<event>
 8    1  0.1088021E+005  0.1043930E+01  0.7957747E-01            NaN
         13   -1    0    0    0    0  0.00000000000E+00  0.00000000000E+00  0.74505805969E-08  0.10566000000E+00  0.10566000000E+00 0.  1.
     999900   -1    0    0    0    0 -0.00000000000E+00 -0.00000000000E+00 -0.74505805969E-08  0.93827000000E+00  0.93827000000E+00 0.  1.
     999902    2    1    2    0    0  0.67034198776E-03  0.23833185759E-01 -0.63030410572E-03  0.10200790590E+01  0.10198001860E+01 0.  0.
     999903    2    3    3    0    0  0.11227599153E+00 -0.26194898226E-01  0.56590924737E-01  0.12977972778E+00  0.18659421539E-01 0.  0.
         14    1    1    2    0    0 -0.67034198776E-03 -0.23833185759E-01  0.63030410572E-03  0.23850940968E-01  0.00000000000E+00 0. -1.
     999901    1    3    3    0    0 -0.11160564955E+00  0.50028083985E-01 -0.57221228843E-01  0.89029933125E+00  0.88000000000E+00 0.  1.
        -11    1    4    4    0    0  0.76151256033E-01 -0.23442382803E-01  0.46117812355E-01  0.92063417514E-01  0.51100000000E-03 0. -1.
         11    1    4    4    0    0  0.36124735500E-01 -0.27525154225E-02  0.10473112382E-01  0.37716310265E-01  0.51100000000E-03 0.  1.
</event>
<event>
 8    1  0.1088021E+005  0.1043930E+01  0.7957747E-01            NaN
         13   -1    0    0    0    0  0.00000000000E+00  0.00000000000E+00  0.74505805969E-08  0.10566000000E+00  0.10566000000E+00 0.  1.
     999900   -1    0    0    0    0 -0.00000000000E+00 -0.00000000000E+00 -0.74505805969E-08  0.93827000000E+00  0.93827000000E+00 0.  1.
     999902    2    1    2    0    0  0.15117902404E-01 -0.75239522249E-02  0.15907312722E-01  0.10207307882E+01  0.10204671178E+01 0.  0.
     999903    2    3    3    0    0 -0.25451763060E-01  0.96642990055E-01 -0.78678877315E-01  0.12863034712E+00  0.19176566328E-01 0.  0.
         14    1    1    2    0    0 -0.15117902404E-01  0.75239522249E-02 -0.15907312722E-01  0.23199211802E-01  0.00000000000E+00 0. -1.
     999901    1    3    3    0    0  0.40569665464E-01 -0.10416694228E+00  0.94586190037E-01  0.89210044107E+00  0.88000000000E+00 0.  1.
        -11    1    4    4    0    0 -0.25720027302E-01  0.72792906657E-01 -0.53410087139E-01  0.93878781379E-01  0.51100000000E-03 0.  1.
         11    1    4    4    0    0  0.26826424247E-03  0.23850083398E-01 -0.25268790175E-01  0.34751565745E-01  0.51100000000E-03 0. -1.
</event>
<event>
 8    1  0.1088021E+005  0.1043930E+01  0.7957747E-01            NaN
         13   -1    0    0    0    0  0.00000000000E+00  0.00000000000E+00  0.74505805969E-08  0.10566000000E+00  0.10566000000E+00 0. -1.
     999900   -1    0    0    0    0 -0.00000000000E+00 -0.00000000000E+00 -0.74505805969E-08  0.93827000000E+00  0.93827000000E+00 0. -1.
     999902    2    1    2    0    0  0.43693942630E-02 -0.13810332748E-01 -0.18996521760E-01  0.10200409913E+01  0.10197612168E+01 0.  0.
     999903    2    3    3    0    0 -0.86622099020E-01  0.26952361563E-01  0.87782716829E-01  0.12799679124E+00  0.21155504284E-01 0.  0.
         14    1    1    2    0    0 -0.43693942630E-02  0.13810332748E-01  0.18996521760E-01  0.23889008682E-01  0.00000000000E+00 0. -1.
     999901    1    3    3    0    0  0.90991493283E-01 -0.40762694311E-01 -0.10677923859E+00  0.89204420008E+00  0.88000000000E+00 0.  1.
        -11    1    4    4    0    0 -0.41885901130E-02  0.72565761281E-02  0.76269812043E-02  0.11341699499E-01  0.51100000000E-03 0.  1.
         11    1    4    4    0    0 -0.82433508907E-01  0.19695785435E-01  0.80155735625E-01  0.11665509174E+00  0.51100000000E-03 0. -1.
</event>
<event>
 8    1  0.1088021E+005  0.1043930E+01  0.7957747E-01            NaN
         13   -1    0    0    0    0  0.00000000000E+00  0.00000000000E+00  0.74505805969E-08  0.10566000000E+00  0.10566000000E+00 0.  1.
     999900   -1    0    0    0    0 -0.00000000000E+00 -0.00000000000E+00 -0.74505805969E-08  0.93827000000E+00  0.93827000000E+00 0. -1.
     999902    2    1    2    0    0  0.66558773830E-02  0.83512606443E-02  0.21673293672E-01  0.10197685448E+01  0.10194822750E+01 0.  0.
     999903    2    3    3    0    0 -0.68839210107E-01 -0.10012607546E+00  0.40773951824E-01  0.12969457271E+00  0.19851932045E-01 0.  0.
         14    1    1    2    0    0 -0.66558773830E-02 -0.83512606443E-02 -0.21673293672E-01  0.24161455186E-01  0.00000000000E+00 0. -1.
     999901    1    3    3    0    0  0.75495087490E-01  0.10847733611E+00 -0.19100658152E-01  0.89007397211E+00  0.88000000000E+00 0.  1.
        -11    1    4    4    0    0 -0.49870034627E-01 -0.79785112206E-01  0.23608695951E-01  0.97006783933E-01  0.51100000000E-03 0.  1.
         11    1    4    4    0    0 -0.18969175480E-01 -0.20340963257E-01  0.17165255874E-01  0.32687788772E-01  0.51100000000E-03 0. -1.
</event>
<event>
 8    1  0.1088021E+005  0.1043930E+01  0.7957747E-01            NaN
         13   -1    0    0    0    0  0.00000000000E+00  0.00000000000E+00  0.74505805969E-08  0.10566000000E+00  0.10566000000E+00 0.  1.
     999900   -1    0    0    0    0 -0.00000000000E+00 -0.00000000000E+00 -0.74505805969E-08  0.93827000000E+00  0.93827000000E+00 0. -1.
     999902    2    1    2    0    0 -0.19838943146E-02  0.66002383198E-02 -0.22574277542E-01  0.10203270979E+01  0.10200540621E+01 0.  0.
     999903    2    3    3    0    0  0.96527333779E-02  0.93717233529E-01  0.86272677532E-01  0.12927578532E+00  0.19828228875E-01 0.  0.
         14    1    1    2    0    0  0.19838943146E-02 -0.66002383198E-02  0.22574277542E-01  0.23602902132E-01  0.00000000000E+00 0.  1.
     999901    1    3    3    0    0 -0.11636627693E-01 -0.87116995209E-01 -0.10884695507E+00  0.89105131254E+00  0.88000000000E+00 0. -1.
        -11    1    4    4    0    0 -0.58366417371E-02  0.27840129564E-01  0.22279049008E-01  0.36135250748E-01  0.51100000000E-03 0. -1.
         11    1    4    4    0    0  0.15489375115E-01  0.65877103965E-01  0.63993628525E-01  0.93140534576E-01  0.51100000000E-03 0.  1.
</event>
<event>
 8    1  0.1088021E+005  0.1043930E+01  0.7957747E-01            NaN
         13   -1    0    0    0    0  0.00000000000E+00  0.00000000000E+00  0.74505805969E-08  0.10566000000E+00  0.10566000000E+00 0. -1.
     999900   -1    0    0    0    0 -0.00000000000E+00 -0.00000000000E+00 -0.74505805969E-08  0.93827000000E+00  0.93827000000E+00 0.  1.
     999902    2    1    2    0    0  0.18983044515E-01 -0.10441116245E-02 -0.12920374741E-01  0.10209434337E+01  0.10206846293E+01 0.  0.
     999903    2    3    3    0    0 -0.10050659471E+00 -0.63634856447E-01 -0.48458966259E-01  0.12995613482E+00  0.19732081286E-01 0.  0.
         14    1    1    2    0    0 -0.18983044515E-01  0.10441116245E-02  0.12920374741E-01  0.22986566329E-01  0.00000000000E+00 0. -1.
     999901    1    3    3    0    0  0.11948963923E+00  0.62590744822E-01  0.35538591518E-01  0.89098729885E+00  0.88000000000E+00 0. -1.
        -11    1    4    4    0    0 -0.27446291145E-01 -0.90159837216E-02 -0.16652586563E-01  0.33349012284E-01  0.51100000000E-03 0. -1.
         11    1    4    4    0    0 -0.73060303566E-01 -0.54618872725E-01 -0.31806379697E-01  0.96607122540E-01  0.51100000000E-03 0.  1.
</event>
<event>
 8    1  0.1088021E+005  0.1043930E+01  0.7957747E-01            NaN
         13   -1    0    0    0    0  0.00000000000E+00  0.00000000000E+00  0.74505805969E-08  0.10566000000E+00  0.10566000000E+00 0. -1.
     999900   -1    0    0    0    0 -0.00000000000E+00 -0.00000000000E+00 -0.74505805969E-08  0.93827000000E+00  0.93827000000E+00 0. -1.
     999902    2    1    2    0    0 -0.12417807788E-01 -0.19610540539E-01 -0.11426186934E-02  0.10206903608E+01  0.10204257601E+01 0.  0.
     999903    2    3    3    0    0  0.12331263330E+00 -0.17105825789E-02 -0.34139769657E-01  0.12949342801E+00  0.19851760664E-01 0.  0.
         14    1    1    2    0    0  0.12417807788E-01  0.19610540539E-01  0.11426186934E-02  0.23239639153E-01  0.00000000000E+00 0. -1.
     999901    1    3    3    0    0 -0.13573044108E+00 -0.17899957960E-01  0.32997150963E-01  0.89119693284E+00  0.88000000000E+00 0.  1.
        -11    1    4    4    0    0  0.60016274434E-01  0.73290093725E-02 -0.22423044493E-01  0.64488151009E-01  0.51100000000E-03 0.  1.
         11    1    4    4    0    0  0.63296358863E-01 -0.90395919514E-02 -0.11716725164E-01  0.65005276997E-01  0.51100000000E-03 0. -1.
</event>
<event>
 8    1  0.1088021E+005  0.1043930E+01  0.7957747E-01            NaN
         13   -1    0    0    0    0  0.00000000000E+00  0.00000000000E+00  0.74505805969E-08  0.10566000000E+00  0.10566000000E+00 0. -1.
     999900   -1    0    0    0    0 -0.00000000000E+00 -0.00000000000E+00 -0.74505805969E-08  0.93827000000E+00  0.93827000000E+00 0. -1.
     999902    2    1    2    0    0 -0.86377040442E-02 -0.20850866559E-01 -0.60179389488E-02  0.10205722570E+01  0.10203049288E+01 0.  0.
     999903    2    3    3    0    0 -0.54982925251E-01  0.52896303534E-01 -0.10431825129E+00  0.13082539638E+00  0.20293984098E-01 0.  0.
         14    1    1    2    0    0  0.86377040442E-02  0.20850866559E-01  0.60179389488E-02  0.23357742969E-01  0.00000000000E+00 0. -1.
     999901    1    3    3    0    0  0.46345221207E-01 -0.73747170093E-01  0.98300312339E-01  0.88974686065E+00  0.88000000000E+00 0.  1.
        -11    1    4    4    0    0 -0.17316987351E-01  0.26907663766E-01 -0.54308107040E-01  0.63035958242E-01  0.51100000000E-03 0. -1.
         11    1    4    4    0    0 -0.37665937900E-01  0.25988639768E-01 -0.50010144248E-01  0.67789438142E-01  0.51100000000E-03 0.  1.
</event>
<event>
 8    1  0.1088021E+005  0.1043930E+01  0.7957747E-01            NaN
         13   -1    0    0    0    0  0.00000000000E+00  0.00000000000E+00  0.74505805969E-08  0.10566000000E+00  0.10566000000E+00 0. -1.
     999900   -1    0    0    0    0 -0.00000000000E+00 -0.00000000000E+00 -0.74505805969E-08  0.93827000000E+00  0.93827000000E+00 0.  1.
     999902    2    1    2    0    0 -0.11815319597E-01  0.11030929723E-01 -0.14200056047E-01  0.10224143132E+01  0.10221879001E+01 0.  0.
     999903    2    3    3    0    0 -0.79651588145E-01  0.73841814549E-01  0.74951651356E-01  0.13309154077E+00  0.17280599367E-01 0.  0.
         14    1    1    2    0    0  0.11815319597E-01 -0.11030929723E-01  0.14200056047E-01  0.21515686823E-01  0.00000000000E+00 0. -1.
     999901    1    3    3    0    0  0.67836268548E-01 -0.62810884826E-01 -0.89151707404E-01  0.88932277240E+00  0.88000000000E+00 0.  1.
        -11    1    4    4    0    0 -0.36708656774E-01  0.33204713566E-01  0.23865283193E-01  0.54953538085E-01  0.51100000000E-03 0. -1.
         11    1    4    4    0    0 -0.42942931371E-01  0.40637100983E-01  0.51086368164E-01  0.78138002688E-01  0.51100000000E-03 0.  1.
</event>
<event>
 8    1  0.1088021E+005  0.1043930E+01  0.7957747E-01            NaN
         13   -1    0    0    0    0  0.00000000000E+00  0.00000000000E+00  0.74505805969E-08  0.10566000000E+00  0.10566000000E+00 0. -1.
     999900   -1    0    0    0    0 -0.00000000000E+00 -0.00000000000E+00 -0.74505805969E-08  0.93827000000E+00  0.93827000000E+00 0. -1.
     999902    2    1    2    0    0 -0.13578061959E-01 -0.14506550506E-01 -0.12648131161E-01  0.10203762530E+01  0.10201043666E+01 0.  0.
     999903    2    3    3    0    0 -0.81983286345E-01  0.43487898822E-01 -0.92085165765E-01  0.13225865196E+00  0.20005416275E-01 0.  0.
         14    1    1    2    0    0  0.13578061959E-01  0.14506550506E-01  0.12648131161E-01  0.23553746963E-01  0.00000000000E+00 0. -1.
     999901    1    3    3    0    0  0.68405224387E-01 -0.57994449328E-01  0.79437034604E-01  0.88811760108E+00  0.88000000000E+00 0.  1.
        -11    1    4    4    0    0 -0.53219573103E-01  0.17508136835E-01 -0.57988193203E-01  0.80633426621E-01  0.51100000000E-03 0.  1.
         11    1    4    4    0    0 -0.28763713242E-01  0.25979761987E-01 -0.34096972562E-01  0.51625225339E-01  0.51100000000E-03 0. -1.
</event>
<event>
 8    1  0.1088021E+005  0.1043930E+01  0.7957747E-01            NaN
         13   -1    0    0    0    0  0.00000000000E+00  0.00000000000E+00  0.74505805969E-08  0.10566000000E+00  0.10566000000E+00 0. -1.
     999900   -1    0    0    0    0 -0.00000000000E+00 -0.00000000000E+00 -0.74505805969E-08  0.93827000000E+00  0.93827000000E+00 0. -1.
     999902    2    1    2    0    0 -0.20621977293E-01  0.14017995977E-03 -0.98232526775E-02  0.10210874544E+01  0.10208319194E+01 0.  0.
     999903    2    3    3    0    0  0.10576306080E+00  0.65115670086E-01 -0.28866494992E-01  0.12948348553E+00  0.22512729086E-01 0.  0.
         14    1    1    2    0    0  0.20621977293E-01 -0.14017995977E-03  0.98232526775E-02  0.22842545634E-01  0.00000000000E+00 0.  1.
     999901    1    3    3    0    0 -0.12638503809E+00 -0.64975490126E-01  0.19043242315E-01  0.89160396884E+00  0.88000000000E+00 0. -1.
        -11    1    4    4    0    0  0.19993547390E-01  0.22749461570E-01 -0.10594835042E-01  0.32090365992E-01  0.51100000000E-03 0. -1.
         11    1    4    4    0    0  0.85769513409E-01  0.42366208516E-01 -0.18271659950E-01  0.97393119535E-01  0.51100000000E-03 0.  1.
</event>
<event>
 8    1  0.1088021E+005  0.1043930E+01  0.7957747E-01            NaN
         13   -1    0    0    0    0  0.00000000000E+00  0.00000000000E+00  0.74505805969E-08  0.10566000000E+00  0.10566000000E+00 0.  1.
     999900   -1    0    0    0    0 -0.00000000000E+00 -0.00000000000E+00 -0.74505805969E-08  0.93827000000E+00  0.93827000000E+00 0. -1.
     999902    2    1    2    0    0 -0.29903741812E-02 -0.10608986672E-01 -0.21101850013E-01  0.10201228370E+01  0.10198449988E+01 0.  0.
     999903    2    3    3    0    0 -0.64513018054E-01 -0.53384092482E-01  0.95921668961E-01  0.12921922304E+00  0.22019314194E-01 0.  0.
         14    1    1    2    0    0  0.29903741812E-02  0.10608986672E-01  0.21101850013E-01  0.23807162996E-01  0.00000000000E+00 0.  1.
     999901    1    3    3    0    0  0.61522643873E-01  0.42775105810E-01 -0.11702351897E+00  0.89090361397E+00  0.88000000000E+00 0. -1.
        -11    1    4    4    0    0 -0.34370647831E-01 -0.31576378713E-01  0.68953534921E-01  0.83266200970E-01  0.51100000000E-03 0. -1.
         11    1    4    4    0    0 -0.30142370223E-01 -0.21807713769E-01  0.26968134040E-01  0.45953022067E-01  0.51100000000E-03 0.  1.
</event>
<event>
 8    1  0.1088021E+005  0.1043930E+01  0.7957747E-01            NaN
         13   -1    0    0    0    0  0.00000000000E+00  0.00000000000E+00  0.74505805969E-08  0.10566000000E+00  0.10566000000E+00 0. -1.
     999900   -1    0    0    0    0 -0.00000000000E+00 -0.00000000000E+00 -0.74505805969E-08  0.93827000000E+00  0.93827000000E+00 0.  1.
     999902    2    1    2    0    0 -0.12052299286E-01 -0.83862315589E-02 -0.18149636424E-01  0.10205848485E+01  0.10203178117E+01 0.  0.
     999903    2    3    3    0    0  0.83495263406E-01  0.28479113456E-01 -0.95127444064E-01  0.13130762888E+00  0.20247070756E-01 0.  0.
         14    1    1    2    0    0  0.12052299286E-01  0.83862315589E-02  0.18149636424E-01  0.23345151535E-01  0.00000000000E+00 0. -1.
     999901    1    3    3    0    0 -0.95547562692E-01 -0.36865345015E-01  0.76977807639E-01  0.88927721958E+00  0.88000000000E+00 0. -1.
        -11    1    4    4    0    0  0.34954312062E-01  0.32253220345E-02 -0.45211794000E-01  0.57241366787E-01  0.51100000000E-03 0.  1.
         11    1    4    4    0    0  0.48540951344E-01  0.25253791421E-01 -0.49915650064E-01  0.74066262096E-01  0.51100000000E-03 0. -1.
</event>
<event>
 8    1  0.1088021E+005  0.1043930E+01  0.7957747E-01            NaN
         13   -1    0    0    0    0  0.00000000000E+00  0.00000000000E+00  0.74505805969E-08  0.10566000000E+00  0.10566000000E+00 0. -1.
     999900   -1    0    0    0    0 -0.00000000000E+00 -0.00000000000E+00 -0.74505805969E-08  0.93827000000E+00  0.93827000000E+00 0. -1.
     999902    2    1    2    0    0  0.23143014255E-01  0.16951306898E-02  0.84576413110E-02  0.10192317354E+01  0.10189324444E+01 0.  0.
     999903    2    3    3    0    0  0.75031848595E-01 -0.37059776076E-01 -0.97927014090E-01  0.13046174896E+00  0.20672748869E-01 0.  0.
         14    1    1    2    0    0 -0.23143014255E-01 -0.16951306898E-02 -0.84576413110E-02  0.24698264583E-01  0.00000000000E+00 0. -1.
     999901    1    3    3    0    0 -0.51888834339E-01  0.38754906766E-01  0.10638465540E+00  0.88876998646E+00  0.88000000000E+00 0.  1.
        -11    1    4    4    0    0  0.64228873776E-01 -0.26221261872E-01 -0.69659742491E-01  0.98314005338E-01  0.51100000000E-03 0.  1.
         11    1    4    4    0    0  0.10802974819E-01 -0.10838514204E-01 -0.28267271599E-01  0.32147743618E-01  0.51100000000E-03 0. -1.
</event>
<event>
 8    1  0.1088021E+005  0.1043930E+01  0.7957747E-01            NaN
         13   -1    0    0    0    0  0.00000000000E+00  0.00000000000E+00  0.74505805969E-08  0.10566000000E+00  0.10566000000E+00 0. -1.
     999900   -1    0    0    0    0 -0.00000000000E+00 -0.00000000000E+00 -0.74505805969E-08  0.93827000000E+00  0.93827000000E+00 0. -1.
     999902    2    1    2    0    0  0.20100952112E-01 -0.75651305193E-02  0.92126090450E-02  0.10205601125E+01  0.10202925030E+01 0.  0.
     999903    2    3    3    0    0  0.43324697734E-01 -0.75283655687E-01 -0.96432662035E-01  0.13135481321E+00  0.20252663999E-01 0.  0.
         14    1    1    2    0    0 -0.20100952112E-01  0.75651305193E-02 -0.92126090450E-02  0.23369887484E-01  0.00000000000E+00 0.  1.
     999901    1    3    3    0    0 -0.23223745621E-01  0.67718525168E-01  0.10564527108E+00  0.88920529931E+00  0.88000000000E+00 0.  1.
        -11    1    4    4    0    0  0.23487392324E-01 -0.58661988501E-01 -0.65356706008E-01  0.90910101937E-01  0.51100000000E-03 0. -1.
         11    1    4    4    0    0  0.19837305409E-01 -0.16621667186E-01 -0.31075956027E-01  0.40444711273E-01  0.51100000000E-03 0.  1.
</event>
<event>
 8    1  0.1088021E+005  0.1043930E+01  0.7957747E-01            NaN
         13   -1    0    0    0    0  0.00000000000E+00  0.00000000000E+00  0.74505805969E-08  0.10566000000E+00  0.10566000000E+00 0.  1.
     999900   -1    0    0    0    0 -0.00000000000E+00 -0.00000000000E+00 -0.74505805969E-08  0.93827000000E+00  0.93827000000E+00 0.  1.
     999902    2    1    2    0    0 -0.20280090272E-01  0.58981391831E-02  0.97259218102E-02  0.10206778246E+01  0.10204129350E+01 0.  0.
     999903    2    3    3    0    0 -0.24853192492E-01 -0.80136489855E-01 -0.97245532356E-01  0.13002314251E+00  0.20243167805E-01 0.  0.
         14    1    1    2    0    0  0.20280090272E-01 -0.58981391831E-02 -0.97259218102E-02  0.23252175432E-01  0.00000000000E+00 0.  1.
     999901    1    3    3    0    0  0.45731022197E-02  0.86034629038E-01  0.10697145417E+00  0.89065468205E+00  0.88000000000E+00 0.  1.
        -11    1    4    4    0    0 -0.11938085484E-01 -0.17405024886E-01 -0.15586765419E-01  0.26242354192E-01  0.51100000000E-03 0.  1.
         11    1    4    4    0    0 -0.12915107008E-01 -0.62731464969E-01 -0.81658766937E-01  0.10378078832E+00  0.51100000000E-03 0. -1.
</event>
<event>
 8    1  0.1088021E+005  0.1043930E+01  0.7957747E-01            NaN
         13   -1    0    0    0    0  0.00000000000E+00  0.00000000000E+00  0.74505805969E-08  0.10566000000E+00  0.10566000000E+00 0.  1.
     999900   -1    0    0    0    0 -0.00000000000E+00 -0.00000000000E+00 -0.74505805969E-08  0.93827000000E+00  0.93827000000E+00 0.  1.
     999902    2    1    2    0    0 -0.21271102697E-01  0.22817635844E-01 -0.52468976436E-02  0.10122971966E+01  0.10118028365E+01 0.  0.
     999903    2    3    3    0    0 -0.18637488280E-01  0.45761888670E-01 -0.11315243496E+00  0.12540544468E+00  0.21944147106E-01 0.  0.
         14    1    1    2    0    0  0.21271102697E-01 -0.22817635844E-01  0.52468976436E-02  0.31632803390E-01  0.00000000000E+00 0. -1.
     999901    1    3    3    0    0 -0.26336144172E-02 -0.22944252826E-01  0.10790553732E+00  0.88689175193E+00  0.88000000000E+00 0. -1.
        -11    1    4    4    0    0 -0.16836362653E-01  0.16894671749E-01 -0.64901146799E-01  0.69147039111E-01  0.51100000000E-03 0.  1.
         11    1    4    4    0    0 -0.18011256270E-02  0.28867216921E-01 -0.48251288165E-01  0.56258405566E-01  0.51100000000E-03 0. -1.
</event>
<event>
 8    1  0.1088021E+005  0.1043930E+01  0.7957747E-01            NaN
         13   -1    0    0    0    0  0.00000000000E+00  0.00000000000E+00  0.74505805969E-08  0.10566000000E+00  0.10566000000E+00 0. -1.
     999900   -1    0    0    0    0 -0.00000000000E+00 -0.00000000000E+00 -0.74505805969E-08  0.93827000000E+00  0.93827000000E+00 0. -1.
     999902    2    1    2    0    0  0.37111267474E-02 -0.21236716379E-01  0.10107604691E-01  0.10201196187E+01  0.10198417045E+01 0.  0.
     999903    2    3    3    0    0  0.55802303628E-01 -0.99178925089E-01  0.66577749341E-01  0.13334041517E+00  0.19917663969E-01 0.  0.
         14    1    1    2    0    0 -0.37111267474E-02  0.21236716379E-01 -0.10107604691E-01  0.23810381284E-01  0.00000000000E+00 0.  1.
     999901    1    3    3    0    0 -0.52091176881E-01  0.77942208710E-01 -0.56470144650E-01  0.88677920355E+00  0.88000000000E+00 0. -1.
        -11    1    4    4    0    0  0.27993614592E-01 -0.48393878486E-01  0.44174599350E-01  0.71254938647E-01  0.51100000000E-03 0.  1.
         11    1    4    4    0    0  0.27808689036E-01 -0.50785046603E-01  0.22403149991E-01  0.62085476522E-01  0.51100000000E-03 0. -1.
</event>
<event>
 8    1  0.1088021E+005  0.1043930E+01  0.7957747E-01            NaN
         13   -1    0    0    0    0  0.00000000000E+00  0.00000000000E+00  0.74505805969E-08  0.10566000000E+00  0.10566000000E+00 0. -1.
     999900   -1    0    0    0    0 -0.00000000000E+00 -0.00000000000E+00 -0.74505805969E-08  0.93827000000E+00  0.93827000000E+00 0. -1.
     999902    2    1    2    0    0 -0.21924080675E-01  0.22441200618E-02  0.74332213854E-02  0.10206715785E+01  0.10204065450E+01 0.  0.
     999903    2    3    3    0    0  0.39995789607E-01  0.99633962462E-01 -0.69667909463E-01  0.12979367663E+00  0.21591461812E-01 0.  0.
         14    1    1    2    0    0  0.21924080675E-01 -0.22441200618E-02 -0.74332213854E-02  0.23258421452E-01  0.00000000000E+00 0.  1.
     999901    1    3    3    0    0 -0.61919870282E-01 -0.97389842400E-01  0.77101130849E-01  0.89087790191E+00  0.88000000000E+00 0. -1.
        -11    1    4    4    0    0  0.22546432737E-01  0.80546808786E-01 -0.53437787814E-01  0.99257182723E-01  0.51100000000E-03 0.  1.
         11    1    4    4    0    0  0.17449356870E-01  0.19087153677E-01 -0.16230121650E-01  0.30536493912E-01  0.51100000000E-03 0. -1.
</event>
<event>
 8    1  0.1088021E+005  0.1043930E+01  0.7957747E-01            NaN
         13   -1    0    0    0    0  0.00000000000E+00  0.00000000000E+00  0.74505805969E-08  0.10566000000E+00  0.10566000000E+00 0.  1.
     999900   -1    0    0    0    0 -0.00000000000E+00 -0.00000000000E+00 -0.74505805969E-08  0.93827000000E+00  0.93827000000E+00 0.  1.
     999902    2    1    2    0    0  0.13505588252E-01 -0.59600447340E-02  0.16286350229E-01  0.10219489115E+01  0.10217124887E+01 0.  0.
     999903    2    3    3    0    0  0.34125688925E-01 -0.46311799024E-01 -0.11690043281E+00  0.13077430920E+00  0.11263364688E-01 0.  0.
         14    1    1    2    0    0 -0.13505588252E-01  0.59600447340E-02 -0.16286350229E-01  0.21981088487E-01  0.00000000000E+00 0. -1.
     999901    1    3    3    0    0 -0.20620100673E-01  0.40351754290E-01  0.13318678304E+00  0.89117460231E+00  0.88000000000E+00 0. -1.
        -11    1    4    4    0    0  0.10035933486E-01 -0.98656001192E-02 -0.19800480890E-01  0.24297534672E-01  0.51100000000E-03 0.  1.
         11    1    4    4    0    0  0.24089755439E-01 -0.36446198905E-01 -0.97099951916E-01  0.10647677453E+00  0.51100000000E-03 0. -1.
</event>
<event>
 8    1  0.1088021E+005  0.1043930E+01  0.7957747E-01            NaN
         13   -1    0    0    0    0  0.00000000000E+00  0.00000000000E+00  0.74505805969E-08  0.10566000000E+00  0.10566000000E+00 0. -1.
     999900   -1    0    0    0    0 -0.00000000000E+00 -0.00000000000E+00 -0.74505805969E-08  0.93827000000E+00  0.93827000000E+00 0.  1.
     999902    2    1    2    0    0  0.12728836002E-01 -0.16826453291E-01 -0.10967186795E-01  0.10201511863E+01  0.10198740172E+01 0.  0.
     999903    2    3    3    0    0 -0.10146871769E+00  0.98317157200E-03 -0.79287917687E-01  0.12996806675E+00  0.17557254530E-01 0.  0.
         14    1    1    2    0    0 -0.12728836002E-01  0.16826453291E-01  0.10967186795E-01  0.23778813733E-01  0.00000000000E+00 0. -1.
     999901    1    3    3    0    0  0.11419755369E+00 -0.17809624863E-01  0.68320730891E-01  0.89018311952E+00  0.88000000000E+00 0.  1.
        -11    1    4    4    0    0 -0.50195952777E-01  0.91101804664E-02 -0.37329888508E-01  0.63217171404E-01  0.51100000000E-03 0. -1.
         11    1    4    4    0    0 -0.51272764915E-01 -0.81270088944E-02 -0.41958029179E-01  0.66750895344E-01  0.51100000000E-03 0.  1.
</event>
<event>
 8    1  0.1088021E+005  0.1043930E+01  0.7957747E-01            NaN
         13   -1    0    0    0    0  0.00000000000E+00  0.00000000000E+00  0.74505805969E-08  0.10566000000E+00  0.10566000000E+00 0. -1.
     999900   -1    0    0    0    0 -0.00000000000E+00 -0.00000000000E+00 -0.74505805969E-08  0.93827000000E+00  0.93827000000E+00 0. -1.
     999902    2    1    2    0    0 -0.20762383242E-01 -0.24301618058E-02 -0.18113728940E-01  0.10162697502E+01  0.10158932600E+01 0.  0.
     999903    2    3    3    0    0  0.73416976965E-01 -0.77947054122E-01 -0.65120407432E-01  0.12678552843E+00  0.19186114812E-01 0.  0.
         14    1    1    2    0    0  0.20762383242E-01  0.24301618058E-02  0.18113728940E-01  0.27660249825E-01  0.00000000000E+00 0. -1.
     999901    1    3    3    0    0 -0.94179360206E-01  0.75516892316E-01  0.47006678492E-01  0.88948422175E+00  0.88000000000E+00 0. -1.
        -11    1    4    4    0    0  0.10043050762E-01 -0.76004967371E-02 -0.15201744388E-01  0.19748027059E-01  0.51100000000E-03 0.  1.
         11    1    4    4    0    0  0.63373926202E-01 -0.70346557385E-01 -0.49918663045E-01  0.10703750137E+00  0.51100000000E-03 0. -1.
</event>
<event>
 8    1  0.1088021E+005  0.1043930E+01  0.7957747E-01            NaN
         13   -1    0    0    0    0  0.00000000000E+00  0.00000000000E+00  0.74505805969E-08  0.10566000000E+00  0.10566000000E+00 0. -1.
     999900   -1    0    0    0    0 -0.00000000000E+00 -0.00000000000E+00 -0.74505805969E-08  0.93827000000E+00  0.93827000000E+00 0.  1.
     999902    2    1    2    0    0  0.48642622159E-02  0.20382210651E-01  0.11399030630E-01  0.10200755778E+01  0.10197966224E+01 0.  0.
     999903    2    3    3    0    0 -0.31914510631E-01 -0.11790040101E+00  0.33653513496E-01  0.12824037958E+00  0.19849318339E-01 0.  0.
         14    1    1    2    0    0 -0.48642622159E-02 -0.20382210651E-01 -0.11399030630E-01  0.23854422174E-01  0.00000000000E+00 0.  1.
     999901    1    3    3    0    0  0.36778772847E-01  0.13828261166E+00 -0.22254482867E-01  0.89183519824E+00  0.88000000000E+00 0.  1.
        -11    1    4    4    0    0 -0.69422911852E-02 -0.44274119487E-01  0.20907590027E-01  0.49454843089E-01  0.51100000000E-03 0.  1.
         11    1    4    4    0    0 -0.24972219446E-01 -0.73626281520E-01  0.12745923470E-01  0.78785536494E-01  0.51100000000E-03 0. -1.
</event>
<event>
 8    1  0.1088021E+005  0.1043930E+01  0.7957747E-01            NaN
         13   -1    0    0    0    0  0.00000000000E+00  0.00000000000E+00  0.74505805969E-08  0.10566000000E+00  0.10566000000E+00 0.  1.
     999900   -1    0    0    0    0 -0.00000000000E+00 -0.00000000000E+00 -0.74505805969E-08  0.93827000000E+00  0.93827000000E+00 0. -1.
     999902    2    1    2    0    0  0.58691516977E-02 -0.28696078727E-02  0.22559041780E-01  0.10204440051E+01  0.10201736987E+01 0.  0.
     999903    2    3    3    0    0  0.11330727132E+00  0.63096496836E-01 -0.96875049355E-03  0.13114763518E+00  0.19469414196E-01 0.  0.
         14    1    1    2    0    0 -0.58691516977E-02  0.28696078727E-02 -0.22559041780E-01  0.23485994912E-01  0.00000000000E+00 0. -1.
     999901    1    3    3    0    0 -0.10743811962E+00 -0.65966104709E-01  0.23527792273E-01  0.88929636991E+00  0.88000000000E+00 0.  1.
        -11    1    4    4    0    0  0.97727875674E-01  0.59868135717E-01 -0.50298891777E-02  0.11471918874E+00  0.51100000000E-03 0. -1.
         11    1    4    4    0    0  0.15579395647E-01  0.32283611195E-02  0.40611386841E-02  0.16428446446E-01  0.51100000000E-03 0.  1.
</event>
<event>
 8    1  0.1088021E+005  0.1043930E+01  0.7957747E-01            NaN
         13   -1    0    0    0    0  0.00000000000E+00  0.00000000000E+00  0.74505805969E-08  0.10566000000E+00  0.10566000000E+00 0. -1.
     999900   -1    0    0    0    0 -0.00000000000E+00 -0.00000000000E+00 -0.74505805969E-08  0.93827000000E+00  0.93827000000E+00 0.  1.
     999902    2    1    2    0    0 -0.14193773706E-01 -0.54549343497E-03  0.18900980144E-01  0.10202866537E+01  0.10200126704E+01 0.  0.
     999903    2    3    3    0    0 -0.54659983638E-01 -0.94835256282E-01  0.72187038875E-01  0.13272399246E+00  0.20573039342E-01 0.  0.
         14    1    1    2    0    0  0.14193773706E-01  0.54549343497E-03 -0.18900980144E-01  0.23643346326E-01  0.00000000000E+00 0.  1.
     999901    1    3    3    0    0  0.40466209933E-01  0.94289762847E-01 -0.53286058731E-01  0.88756266121E+00  0.88000000000E+00 0.  1.
        -11    1    4    4    0    0 -0.21548975836E-01 -0.42843346750E-01  0.43438228920E-01  0.64707430586E-01  0.51100000000E-03 0. -1.
         11    1    4    4    0    0 -0.33111007802E-01 -0.51991909532E-01  0.28748809955E-01  0.68016561875E-01  0.51100000000E-03 0.  1.
</event>
<event>
 8    1  0.1088021E+005  0.1043930E+01  0.7957747E-01            NaN
         13   -1    0    0    0    0  0.00000000000E+00  0.00000000000E+00  0.74505805969E-08  0.10566000000E+00  0.10566000000E+00 0.  1.
     999900   -1    0    0    0    0 -0.00000000000E+00 -0.00000000000E+00 -0.74505805969E-08  0.93827000000E+00  0.93827000000E+00 0.  1.
     999902    2    1    2    0    0 -0.32222154245E-02  0.20858576427E-01 -0.10748088356E-01  0.10202448932E+01  0.10199699298E+01 0.  0.
     999903    2    3    3    0    0 -0.54236930294E-01 -0.25232474570E-01 -0.11521998065E+00  0.13140223982E+00  0.20312122178E-01 0.  0.
         14    1    1    2    0    0  0.32222154245E-02 -0.20858576427E-01  0.10748088356E-01  0.23685106842E-01  0.00000000000E+00 0. -1.
     999901    1    3    3    0    0  0.51014714869E-01  0.46091050996E-01  0.10447189230E+00  0.88884265334E+00  0.88000000000E+00 0. -1.
        -11    1    4    4    0    0 -0.13751553289E-01  0.15701240413E-02 -0.34873917534E-01  0.37523615931E-01  0.51100000000E-03 0.  1.
         11    1    4    4    0    0 -0.40485377005E-01 -0.26802598611E-01 -0.80346063118E-01  0.93878623888E-01  0.51100000000E-03 0. -1.
</event>
<event>
 8    1  0.1088021E+005  0.1043930E+01  0.7957747E-01            NaN
         13   -1    0    0    0    0  0.00000000000E+00  0.00000000000E+00  0.74505805969E-08  0.10566000000E+00  0.10566000000E+00 0. -1.
     999900   -1    0    0    0    0 -0.00000000000E+00 -0.00000000000E+00 -0.74505805969E-08  0.93827000000E+00  0.93827000000E+00 0. -1.
     999902    2    1    2    0    0  0.17835954438E-02 -0.72655828774E-02 -0.24427503250E-01  0.10183825379E+01  0.10180620416E+01 0.  0.
     999903    2    3    3    0    0 -0.89854102155E-01 -0.33662354182E-01 -0.87238338410E-01  0.13100468250E+00  0.18568397472E-01 0.  0.
         14    1    1    2    0    0 -0.17835954438E-02  0.72655828774E-02  0.24427503250E-01  0.25547462149E-01  0.00000000000E+00 0. -1.
     999901    1    3    3    0    0  0.91637697599E-01  0.26396771304E-01  0.62810835161E-01  0.88737785535E+00  0.88000000000E+00 0.  1.
        -11    1    4    4    0    0 -0.72949270857E-01 -0.21711247075E-01 -0.75464627199E-01  0.10718276656E+00  0.51100000000E-03 0. -1.
         11    1    4    4    0    0 -0.16904831298E-01 -0.11951107107E-01 -0.11773711212E-01  0.23821915939E-01  0.51100000000E-03 0.  1.
</event>
<event>
 8    1  0.1088021E+005  0.1043930E+01  0.7957747E-01            NaN
         13   -1    0    0    0    0  0.00000000000E+00  0.00000000000E+00  0.74505805969E-08  0.10566000000E+00  0.10566000000E+00 0. -1.
     999900   -1    0    0    0    0 -0.00000000000E+00 -0.00000000000E+00 -0.74505805969E-08  0.93827000000E+00  0.93827000000E+00 0. -1.
     999902    2    1    2    0    0  0.15693562925E-01 -0.54408688363E-02  0.16173660955E-01  0.10207464222E+01  0.10204831112E+01 0.  0.
     999903    2    3    3    0    0 -0.12097631356E+00  0.38583653269E-01 -0.46566464087E-02  0.12886598437E+00  0.21466038943E-01 0.  0.
         14    1    1    2    0    0 -0.15693562925E-01  0.54408688363E-02 -0.16173660955E-01  0.23183577801E-01  0.00000000000E+00 0.  1.
     999901    1    3    3    0    0  0.13666987649E+00 -0.44024522106E-01  0.20830307364E-01  0.89188043783E+00  0.88000000000E+00 0. -1.
        -11    1    4    4    0    0 -0.60228668363E-01  0.18381831328E-01  0.83888205411E-02  0.63529659584E-01  0.51100000000E-03 0.  1.
         11    1    4    4    0    0 -0.60747645199E-01  0.20201821941E-01 -0.13045466950E-01  0.65336324781E-01  0.51100000000E-03 0. -1.
</event>
<event>
 8    1  0.1088021E+005  0.1043930E+01  0.7957747E-01            NaN
         13   -1    0    0    0    0  0.00000000000E+00  0.00000000000E+00  0.74505805969E-08  0.10566000000E+00  0.10566000000E+00 0.  1.
     999900   -1    0    0    0    0 -0.00000000000E+00 -0.00000000000E+00 -0.74505805969E-08  0.93827000000E+00  0.93827000000E+00 0.  1.
     999902    2    1    2    0    0  0.84635989664E-02 -0.22789691631E-01 -0.19590155467E-02  0.10195406520E+01  0.10192488905E+01 0.  0.
     999903    2    3    3    0    0 -0.11421899030E+00  0.53659665246E-01  0.41177309910E-02  0.12772651853E+00  0.19281348697E-01 0.  0.
         14    1    1    2    0    0 -0.84635989664E-02  0.22789691631E-01  0.19590155467E-02  0.24389347962E-01  0.00000000000E+00 0. -1.
     999901    1    3    3    0    0  0.12268258927E+00 -0.76449356877E-01 -0.60767465378E-02  0.89181413351E+00  0.88000000000E+00 0.  1.
        -11    1    4    4    0    0 -0.75128870140E-01  0.25353906011E-01  0.50319919747E-02  0.79452814567E-01  0.51100000000E-03 0. -1.
         11    1    4    4    0    0 -0.39090120161E-01  0.28305759235E-01 -0.91426098361E-03  0.48273703962E-01  0.51100000000E-03 0.  1.
</event>
<event>
 8    1  0.1088021E+005  0.1043930E+01  0.7957747E-01            NaN
         13   -1    0    0    0    0  0.00000000000E+00  0.00000000000E+00  0.74505805969E-08  0.10566000000E+00  0.10566000000E+00 0.  1.
     999900   -1    0    0    0    0 -0.00000000000E+00 -0.00000000000E+00 -0.74505805969E-08  0.93827000000E+00  0.93827000000E+00 0.  1.
     999902    2    1    2    0    0 -0.40869686489E-02 -0.33670237749E-02  0.24393847372E-01  0.10189680299E+01  0.10186622335E+01 0.  0.
     999903    2    3    3    0    0 -0.10602323085E-01 -0.84347612092E-01  0.99113217049E-01  0.13207272055E+00  0.19820312827E-01 0.  0.
         14    1    1    2    0    0  0.40869686489E-02  0.33670237749E-02 -0.24393847372E-01  0.24961970103E-01  0.00000000000E+00 0. -1.
     999901    1    3    3    0    0  0.65153544357E-02  0.80980588317E-01 -0.74719369677E-01  0.88689530934E+00  0.88000000000E+00 0.  1.
        -11    1    4    4    0    0  0.53985300043E-02 -0.11665103732E-01  0.14978290215E-01  0.19744089497E-01  0.51100000000E-03 0.  1.
         11    1    4    4    0    0 -0.16000853089E-01 -0.72682508360E-01  0.84134926834E-01  0.11232863106E+00  0.51100000000E-03 0. -1.
</event>
<event>
 8    1  0.1088021E+005  0.1043930E+01  0.7957747E-01            NaN
         13   -1    0    0    0    0  0.00000000000E+00  0.00000000000E+00  0.74505805969E-08  0.10566000000E+00  0.10566000000E+00 0. -1.
     999900   -1    0    0    0    0 -0.00000000000E+00 -0.00000000000E+00 -0.74505805969E-08  0.93827000000E+00  0.93827000000E+00 0.  1.
     999902    2    1    2    0    0 -0.21261046880E-01 -0.24375561469E-02  0.89108978345E-02  0.10207485873E+01  0.10204853260E+01 0.  0.
     999903    2    3    3    0    0 -0.27171118822E-01  0.12345906631E+00  0.30347863686E-01  0.13151046846E+00  0.19839348103E-01 0.  0.
         14    1    1    2    0    0  0.21261046880E-01  0.24375561469E-02 -0.89108978345E-02  0.23181412697E-01  0.00000000000E+00 0.  1.
     999901    1    3    3    0    0  0.59100719414E-02 -0.12589662245E+00 -0.21436965852E-01  0.88923811884E+00  0.88000000000E+00 0. -1.
        -11    1    4    4    0    0 -0.15651011722E-01  0.52555701376E-01  0.22398906567E-01  0.59237049652E-01  0.51100000000E-03 0.  1.
         11    1    4    4    0    0 -0.11520107099E-01  0.70903364931E-01  0.79489571194E-02  0.72273418810E-01  0.51100000000E-03 0. -1.
</event>
<event>
 8    1  0.1088021E+005  0.1043930E+01  0.7957747E-01            NaN
         13   -1    0    0    0    0  0.00000000000E+00  0.00000000000E+00  0.74505805969E-08  0.10566000000E+00  0.10566000000E+00 0.  1.
     999900   -1    0    0    0    0 -0.00000000000E+00 -0.00000000000E+00 -0.74505805969E-08  0.93827000000E+00  0.93827000000E+00 0.  1.
     999902    2    1    2    0    0 -0.22234172732E-01 -0.56115158172E-02  0.69530021191E-02  0.10199677008E+01  0.10196861864E+01 0.  0.
     999903    2    3    3    0    0 -0.12103884941E+00 -0.31680515216E-01  0.41805074341E-01  0.13336935663E+00  0.19638302802E-01 0.  0.
         14    1    1    2    0    0  0.22234172732E-01  0.56115158172E-02 -0.69530021191E-02  0.23962299249E-01  0.00000000000E+00 0. -1.
     999901    1    3    3    0    0  0.98804676675E-01  0.26068999399E-01 -0.34852072222E-01  0.88659834412E+00  0.88000000000E+00 0.  1.
        -11    1    4    4    0    0 -0.46787993865E-01 -0.54720465793E-02  0.84857522625E-02  0.47867826107E-01  0.51100000000E-03 0.  1.
         11    1    4    4    0    0 -0.74250855541E-01 -0.26208468636E-01  0.33319322079E-01  0.85501530522E-01  0.51100000000E-03 0. -1.
</event>
<event>
 8    1  0.1088021E+005  0.1043930E+01  0.7957747E-01            NaN
         13   -1    0    0    0    0  0.00000000000E+00  0.00000000000E+00  0.74505805969E-08  0.10566000000E+00  0.10566000000E+00 0.  1.
     999900   -1    0    0    0    0 -0.00000000000E+00 -0.00000000000E+00 -0.74505805969E-08  0.93827000000E+00  0.93827000000E+00 0. -1.
     999902    2    1    2    0    0  0.23790051007E-01 -0.40059038651E-02  0.25771188793E-02  0.10196677797E+01  0.10193790883E+01 0.  0.
     999903    2    3    3    0    0  0.18868802563E-01 -0.38050629443E-01  0.12215695539E+00  0.13091438345E+00  0.20306942983E-01 0.  0.
         14    1    1    2    0    0 -0.23790051007E-01  0.40059038651E-02 -0.25771188793E-02  0.24262220311E-01  0.00000000000E+00 0.  1.
     999901    1    3    3    0    0  0.49212484438E-02  0.34044725578E-01 -0.11957983651E+00  0.88875339624E+00  0.88000000000E+00 0. -1.
        -11    1    4    4    0    0  0.13398295388E-01 -0.35421296051E-01  0.82323172786E-01  0.90617594493E-01  0.51100000000E-03 0. -1.
         11    1    4    4    0    0  0.54705071751E-02 -0.26293333918E-02  0.39833782603E-01  0.40296788957E-01  0.51100000000E-03 0.  1.
</event>
<event>
 8    1  0.1088021E+005  0.1043930E+01  0.7957747E-01            NaN
         13   -1    0    0    0    0  0.00000000000E+00  0.00000000000E+00  0.74505805969E-08  0.10566000000E+00  0.10566000000E+00 0. -1.
     999900   -1    0    0    0    0 -0.00000000000E+00 -0.00000000000E+00 -0.74505805969E-08  0.93827000000E+00  0.93827000000E+00 0. -1.
     999902    2    1    2    0    0 -0.11700565915E-02 -0.22019621850E-01 -0.48473695221E-02  0.10213528042E+01  0.10211032371E+01 0.  0.
     999903    2    3    3    0    0 -0.95691794932E-01 -0.39390675859E-01  0.79590213666E-01  0.13210266055E+00  0.20198164518E-01 0.  0.
         14    1    1    2    0    0  0.11700565915E-02  0.22019621850E-01  0.48473695221E-02  0.22577195799E-01  0.00000000000E+00 0.  1.
     999901    1    3    3    0    0  0.94521738341E-01  0.17371054009E-01 -0.84437583188E-01  0.88925014366E+00  0.88000000000E+00 0. -1.
        -11    1    4    4    0    0 -0.83304775231E-01 -0.34167515118E-01  0.59499679961E-01  0.10792394406E+00  0.51100000000E-03 0. -1.
         11    1    4    4    0    0 -0.12387019701E-01 -0.52231607410E-02  0.20090533705E-01  0.24178716483E-01  0.51100000000E-03 0.  1.
</event>
<event>
 8    1  0.1088021E+005  0.1043930E+01  0.7957747E-01            NaN
         13   -1    0    0    0    0  0.00000000000E+00  0.00000000000E+00  0.74505805969E-08  0.10566000000E+00  0.10566000000E+00 0.  1.
     999900   -1    0    0    0    0 -0.00000000000E+00 -0.00000000000E+00 -0.74505805969E-08  0.93827000000E+00  0.93827000000E+00 0. -1.
     999902    2    1    2    0    0 -0.30780498683E-03 -0.23602019139E-01 -0.44607615458E-02  0.10199081673E+01  0.10196252357E+01 0.  0.
     999903    2    3    3    0    0  0.29426716101E-01 -0.11818991880E+00  0.48361735210E-01  0.13276599796E+00  0.21287654972E-01 0.  0.
         14    1    1    2    0    0  0.30780498683E-03  0.23602019139E-01  0.44607615458E-02  0.24021832672E-01  0.00000000000E+00 0.  1.
     999901    1    3    3    0    0 -0.29734521088E-01  0.94587899666E-01 -0.52822496756E-01  0.88714216937E+00  0.88000000000E+00 0. -1.
        -11    1    4    4    0    0  0.15979614810E-01 -0.98520417274E-01  0.38673781215E-01  0.10703991398E+00  0.51100000000E-03 0. -1.
         11    1    4    4    0    0  0.13447101290E-01 -0.19669501531E-01  0.96879539952E-02  0.25726083985E-01  0.51100000000E-03 0.  1.
</event>
<event>
 8    1  0.1088021E+005  0.1043930E+01  0.7957747E-01            NaN
         13   -1    0    0    0    0  0.00000000000E+00  0.00000000000E+00  0.74505805969E-08  0.10566000000E+00  0.10566000000E+00 0.  1.
     999900   -1    0    0    0    0 -0.00000000000E+00 -0.00000000000E+00 -0.74505805969E-08  0.93827000000E+00  0.93827000000E+00 0. -1.
     999902    2    1    2    0    0  0.13909323998E-01  0.11167712019E-01  0.13207055464E-01  0.10217351042E+01  0.10214940087E+01 0.  0.
     999903    2    3    3    0    0  0.11437758051E+00  0.64380499692E-01  0.20835053385E-01  0.13438869062E+00  0.19978514747E-01 0.  0.
         14    1    1    2    0    0 -0.13909323998E-01 -0.11167712019E-01 -0.13207055464E-01  0.22194895806E-01  0.00000000000E+00 0. -1.
     999901    1    3    3    0    0 -0.10046825651E+00 -0.53212787674E-01 -0.76279979203E-02  0.88734641358E+00  0.88000000000E+00 0. -1.
        -11    1    4    4    0    0  0.69229613808E-01  0.46299042663E-01  0.20407375355E-01  0.85750002154E-01  0.51100000000E-03 0.  1.
         11    1    4    4    0    0  0.45147966703E-01  0.18081457030E-01  0.42767802939E-03  0.48638688461E-01  0.51100000000E-03 0. -1.
</event>
<event>
 8    1  0.1088021E+005  0.1043930E+01  0.7957747E-01            NaN
         13   -1    0    0    0    0  0.00000000000E+00  0.00000000000E+00  0.74505805969E-08  0.10566000000E+00  0.10566000000E+00 0.  1.
     999900   -1    0    0    0    0 -0.00000000000E+00 -0.00000000000E+00 -0.74505805969E-08  0.93827000000E+00  0.93827000000E+00 0. -1.
     999902    2    1    2    0    0  0.45926402060E-02  0.23609468488E-01 -0.86502047520E-02  0.10183697694E+01  0.10180489486E+01 0.  0.
     999903    2    3    3    0    0  0.93274025375E-01  0.58400361009E-01  0.66287875211E-01  0.13006210304E+00  0.20283546807E-01 0.  0.
         14    1    1    2    0    0 -0.45926402060E-02 -0.23609468488E-01  0.86502047520E-02  0.25560230606E-01  0.00000000000E+00 0. -1.
     999901    1    3    3    0    0 -0.88681385169E-01 -0.34790892521E-01 -0.74938079963E-01  0.88830766636E+00  0.88000000000E+00 0. -1.
        -11    1    4    4    0    0  0.14873113574E-01  0.16912026112E-02  0.11345507478E-01  0.18789660311E-01  0.51100000000E-03 0. -1.
         11    1    4    4    0    0  0.78400911801E-01  0.56709158398E-01  0.54942367733E-01  0.11127244273E+00  0.51100000000E-03 0.  1.
</event>
<event>
 7    1  0.1088021E+005  0.1043930E+01  0.7957747E-01            NaN
         13   -1    0    0    0    0  0.00000000000E+00  0.00000000000E+00  0.74505805969E-08  0.10566000000E+00  0.10566000000E+00 0. -1.
     999900   -1    0    0    0    0 -0.00000000000E+00 -0.00000000000E+00 -0.74505805969E-08  0.93827000000E+00  0.93827000000E+00 0. -1.
     999902    2    1    2    0    0  0.11929045481E-01  0.20074087960E-01 -0.36446249885E-02  0.10202962440E+01  0.10200224855E+01 0.  0.
         14    1    1    2    0    0 -0.11929045481E-01 -0.20074087960E-01  0.36446249885E-02  0.23633756045E-01  0.00000000000E+00 0. -1.
     999901    1    3    3    0    0 -0.59175782439E-01 -0.72363694741E-01 -0.85784312007E-03  0.88495141869E+00  0.88000000000E+00 0.  1.
        -11    1    3    3    0    0  0.40041208762E-01  0.52864830521E-01  0.32537391640E-01  0.73871047649E-01  0.51100000000E-03 0. -1.
         11    1    3    3    0    0  0.31063619159E-01  0.39572952180E-01 -0.35324173508E-01  0.61473777617E-01  0.51100000000E-03 0.  1.
</event>
<event>
 8    1  0.1088021E+005  0.1043930E+01  0.7957747E-01            NaN
         13   -1    0    0    0    0  0.00000000000E+00  0.00000000000E+00  0.74505805969E-08  0.10566000000E+00  0.10566000000E+00 0. -1.
     999900   -1    0    0    0    0 -0.00000000000E+00 -0.00000000000E+00 -0.74505805969E-08  0.93827000000E+00  0.93827000000E+00 0. -1.
     999902    2    1    2    0    0  0.12722775715E-01  0.26637270833E-02 -0.17274533660E-02  0.10308170843E+01  0.10307336769E+01 0.  0.
     999903    2    3    3    0    0  0.33623182018E-01 -0.13449546073E+00 -0.14409746217E-02  0.13994697485E+00  0.19066516123E-01 0.  0.
         14    1    1    2    0    0 -0.12722775715E-01 -0.26637270833E-02  0.17274533660E-02  0.13112915732E-01  0.00000000000E+00 0. -1.
     999901    1    3    3    0    0 -0.20900406302E-01  0.13715918781E+00 -0.28647874431E-03  0.89087010942E+00  0.88000000000E+00 0. -1.
        -11    1    4    4    0    0  0.29969285232E-01 -0.12534759576E+00 -0.61260830522E-02  0.12902700428E+00  0.51100000000E-03 0.  1.
         11    1    4    4    0    0  0.36538967852E-02 -0.91478649670E-02  0.46851084304E-02  0.10919970567E-01  0.51100000000E-03 0. -1.
</event>
<event>
 8    1  0.1088021E+005  0.1043930E+01  0.7957747E-01            NaN
         13   -1    0    0    0    0  0.00000000000E+00  0.00000000000E+00  0.74505805969E-08  0.10566000000E+00  0.10566000000E+00 0. -1.
     999900   -1    0    0    0    0 -0.00000000000E+00 -0.00000000000E+00 -0.74505805969E-08  0.93827000000E+00  0.93827000000E+00 0.  1.
     999902    2    1    2    0    0  0.20959574044E-01  0.64940516608E-02 -0.89859220523E-02  0.10202187527E+01  0.10199431750E+01 0.  0.
     999903    2    3    3    0    0  0.19659603415E-01 -0.17997756683E-01  0.12525447497E+00  0.12970091307E+00  0.20572411116E-01 0.  0.
         14    1    1    2    0    0 -0.20959574044E-01 -0.64940516608E-02  0.89859220523E-02  0.23711247251E-01  0.00000000000E+00 0. -1.
     999901    1    3    3    0    0  0.12999706289E-02  0.24491808344E-01 -0.13424039702E+00  0.89051783968E+00  0.88000000000E+00 0.  1.
        -11    1    4    4    0    0  0.56408599223E-02 -0.72788403790E-02  0.87922785597E-01  0.88405193094E-01  0.51100000000E-03 0.  1.
         11    1    4    4    0    0  0.14018743493E-01 -0.10718916304E-01  0.37331689371E-01  0.41295719973E-01  0.51100000000E-03 0. -1.
</event>
<event>
 8    1  0.1088021E+005  0.1043930E+01  0.7957747E-01            NaN
         13   -1    0    0    0    0  0.00000000000E+00  0.00000000000E+00  0.74505805969E-08  0.10566000000E+00  0.10566000000E+00 0.  1.
     999900   -1    0    0    0    0 -0.00000000000E+00 -0.00000000000E+00 -0.74505805969E-08  0.93827000000E+00  0.93827000000E+00 0.  1.
     999902    2    1    2    0    0  0.13824128639E-01 -0.93639177347E-02 -0.11985791031E-01  0.10233764437E+01  0.10231700235E+01 0.  0.
     999903    2    3    3    0    0 -0.10546868978E+00 -0.44085262383E-01  0.62945791543E-01  0.13149579570E+00  0.16180751848E-01 0.  0.
         14    1    1    2    0    0 -0.13824128639E-01  0.93639177347E-02  0.11985791031E-01  0.20553556252E-01  0.00000000000E+00 0.  1.
     999901    1    3    3    0    0  0.11929281842E+00  0.34721344649E-01 -0.74931582573E-01  0.89188064805E+00  0.88000000000E+00 0.  1.
        -11    1    4    4    0    0 -0.54120478029E-01 -0.29223414222E-01  0.27655726659E-01  0.67439857791E-01  0.51100000000E-03 0. -1.
         11    1    4    4    0    0 -0.51348211749E-01 -0.14861848161E-01  0.35290064883E-01  0.64055937906E-01  0.51100000000E-03 0.  1.
</event>
<event>
 8    1  0.1088021E+005  0.1043930E+01  0.7957747E-01            NaN
         13   -1    0    0    0    0  0.00000000000E+00  0.00000000000E+00  0.74505805969E-08  0.10566000000E+00  0.10566000000E+00 0.  1.
     999900   -1    0    0    0    0 -0.00000000000E+00 -0.00000000000E+00 -0.74505805969E-08  0.93827000000E+00  0.93827000000E+00 0. -1.
     999902    2    1    2    0    0  0.12861861487E-02 -0.81116615776E-02  0.22308219853E-01  0.10201579576E+01  0.10198809481E+01 0.  0.
     999903    2    3    3    0    0 -0.19245832753E-01  0.12154213434E+00 -0.32973656497E-01  0.12870534725E+00  0.18300598077E-01 0.  0.
         14    1    1    2    0    0 -0.12861861487E-02  0.81116615776E-02 -0.22308219853E-01  0.23772042431E-01  0.00000000000E+00 0. -1.
     999901    1    3    3    0    0  0.20532018901E-01 -0.12965379591E+00  0.55281876350E-01  0.89145261032E+00  0.88000000000E+00 0.  1.
        -11    1    4    4    0    0  0.63237312739E-03  0.18840810925E-01 -0.10938562748E-01  0.21801131349E-01  0.51100000000E-03 0. -1.
         11    1    4    4    0    0 -0.19878205880E-01  0.10270132341E+00 -0.22035093749E-01  0.10690421590E+00  0.51100000000E-03 0.  1.
</event>
<event>
 8    1  0.1088021E+005  0.1043930E+01  0.7957747E-01            NaN
         13   -1    0    0    0    0  0.00000000000E+00  0.00000000000E+00  0.74505805969E-08  0.10566000000E+00  0.10566000000E+00 0. -1.
     999900   -1    0    0    0    0 -0.00000000000E+00 -0.00000000000E+00 -0.74505805969E-08  0.93827000000E+00  0.93827000000E+00 0.  1.
     999902    2    1    2    0    0  0.15438355778E-01 -0.14902923534E-01  0.97875965088E-02  0.10203453227E+01  0.10200727133E+01 0.  0.
     999903    2    3    3    0    0 -0.26949245002E-01 -0.11181190482E+00 -0.60048645411E-01  0.13126424649E+00  0.19907253062E-01 0.  0.
         14    1    1    2    0    0 -0.15438355778E-01  0.14902923534E-01 -0.97875965088E-02  0.23584677323E-01  0.00000000000E+00 0.  1.
     999901    1    3    3    0    0  0.42387600780E-01  0.96908981286E-01  0.69836241920E-01  0.88908107619E+00  0.88000000000E+00 0. -1.
        -11    1    4    4    0    0 -0.21200579521E-01 -0.49136284080E-01 -0.23193567069E-01  0.58327023408E-01  0.51100000000E-03 0.  1.
         11    1    4    4    0    0 -0.57486654809E-02 -0.62675620740E-01 -0.36855078342E-01  0.72937223079E-01  0.51100000000E-03 0. -1.
</event>
<event>
 8    1  0.1088021E+005  0.1043930E+01  0.7957747E-01            NaN
         13   -1    0    0    0    0  0.00000000000E+00  0.00000000000E+00  0.74505805969E-08  0.10566000000E+00  0.10566000000E+00 0.  1.
     999900   -1    0    0    0    0 -0.00000000000E+00 -0.00000000000E+00 -0.74505805969E-08  0.93827000000E+00  0.93827000000E+00 0.  1.
     999902    2    1    2    0    0  0.71877800606E-02 -0.39996743455E-02 -0.12217853338E-01  0.10292012011E+01  0.10290958045E+01 0.  0.
     999903    2    3    3    0    0  0.12367413713E+00 -0.59821294085E-01 -0.16335740775E-01  0.13976200609E+00  0.19816218050E-01 0.  0.
         14    1    1    2    0    0 -0.71877800606E-02  0.39996743455E-02  0.12217853338E-01  0.14728798908E-01  0.00000000000E+00 0.  1.
     999901    1    3    3    0    0 -0.11648635707E+00  0.55821619740E-01  0.41178874368E-02  0.88943919500E+00  0.88000000000E+00 0.  1.
        -11    1    4    4    0    0  0.64848307786E-02 -0.78296500431E-02 -0.40989468074E-02  0.10973556213E-01  0.51100000000E-03 0. -1.
         11    1    4    4    0    0  0.11718930635E+00 -0.51991644042E-01 -0.12236793968E-01  0.12878844987E+00  0.51100000000E-03 0.  1.
</event>
<event>
 8    1  0.1088021E+005  0.1043930E+01  0.7957747E-01            NaN
         13   -1    0    0    0    0  0.00000000000E+00  0.00000000000E+00  0.74505805969E-08  0.10566000000E+00  0.10566000000E+00 0. -1.
     999900   -1    0    0    0    0 -0.00000000000E+00 -0.00000000000E+00 -0.74505805969E-08  0.93827000000E+00  0.93827000000E+00 0.  1.
     999902    2    1    2    0    0  0.10128885192E-01  0.19763266882E-01 -0.81470004228E-02  0.10202750925E+01  0.10200008381E+01 0.  0.
     999903    2    3    3    0    0 -0.65562975468E-01  0.11169585679E+00  0.18606503750E-01  0.13185142732E+00  0.16252037679E-01 0.  0.
         14    1    1    2    0    0 -0.10128885192E-01 -0.19763266882E-01  0.81470004228E-02  0.23654907503E-01  0.00000000000E+00 0. -1.
     999901    1    3    3    0    0  0.75691860659E-01 -0.91932589909E-01 -0.26753504173E-01  0.88842366518E+00  0.88000000000E+00 0.  1.
        -11    1    4    4    0    0 -0.56759587851E-01  0.10447227696E+00  0.19200407199E-01  0.12043680594E+00  0.51100000000E-03 0.  1.
         11    1    4    4    0    0 -0.88033876161E-02  0.72235798289E-02 -0.59390344874E-03  0.11414621385E-01  0.51100000000E-03 0. -1.
</event>
<event>
 8    1  0.1088021E+005  0.1043930E+01  0.7957747E-01            NaN
         13   -1    0    0    0    0  0.00000000000E+00  0.00000000000E+00  0.74505805969E-08  0.10566000000E+00  0.10566000000E+00 0. -1.
     999900   -1    0    0    0    0 -0.00000000000E+00 -0.00000000000E+00 -0.74505805969E-08  0.93827000000E+00  0.93827000000E+00 0. -1.
     999902    2    1    2    0    0  0.19156093476E-01  0.70061619899E-02 -0.16777836285E-02  0.10234639994E+01  0.10232593517E+01 0.  0.
     999903    2    3    3    0    0 -0.71541045409E-01 -0.10826326435E+00 -0.37349170600E-02  0.13132205808E+00  0.19811051131E-01 0.  0.
         14    1    1    2    0    0 -0.19156093476E-01 -0.70061619899E-02  0.16777836285E-02  0.20466000611E-01  0.00000000000E+00 0. -1.
     999901    1    3    3    0    0  0.90697138885E-01  0.11526942634E+00  0.20571334316E-02  0.89214194131E+00  0.88000000000E+00 0.  1.
        -11    1    4    4    0    0 -0.59683186668E-01 -0.74388412380E-01 -0.30478794038E-02  0.95421535080E-01  0.51100000000E-03 0. -1.
         11    1    4    4    0    0 -0.11857858741E-01 -0.33874851967E-01 -0.68703765626E-03  0.35900522997E-01  0.51100000000E-03 0.  1.
</event>
<event>
 8    1  0.1088021E+005  0.1043930E+01  0.7957747E-01            NaN
         13   -1    0    0    0    0  0.00000000000E+00  0.00000000000E+00  0.74505805969E-08  0.10566000000E+00  0.10566000000E+00 0.  1.
     999900   -1    0    0    0    0 -0.00000000000E+00 -0.00000000000E+00 -0.74505805969E-08  0.93827000000E+00  0.93827000000E+00 0.  1.
     999902    2    1    2    0    0 -0.59222092780E-02  0.21370016301E-02 -0.22223756770E-01  0.10208316298E+01  0.10205702728E+01 0.  0.
     999903    2    3    3    0    0 -0.14681020460E-01  0.12798981840E+00 -0.15005251782E-01  0.13180533379E+00  0.23464067417E-01 0.  0.
         14    1    1    2    0    0  0.59222092780E-02 -0.21370016301E-02  0.22223756770E-01  0.23098370152E-01  0.00000000000E+00 0.  1.
     999901    1    3    3    0    0  0.87588111815E-02 -0.12585281677E+00 -0.72185049877E-02  0.88902629605E+00  0.88000000000E+00 0.  1.
        -11    1    4    4    0    0  0.14605415708E-02  0.48949370943E-01  0.32871723282E-02  0.49084016953E-01  0.51100000000E-03 0.  1.
         11    1    4    4    0    0 -0.16141562030E-01  0.79040447457E-01 -0.18292424110E-01  0.82721316840E-01  0.51100000000E-03 0. -1.
</event>
<event>
 8    1  0.1088021E+005  0.1043930E+01  0.7957747E-01            NaN
         13   -1    0    0    0    0  0.00000000000E+00  0.00000000000E+00  0.74505805969E-08  0.10566000000E+00  0.10566000000E+00 0. -1.
     999900   -1    0    0    0    0 -0.00000000000E+00 -0.00000000000E+00 -0.74505805969E-08  0.93827000000E+00  0.93827000000E+00 0.  1.
     999902    2    1    2    0    0  0.10995674963E-01  0.42148624450E-02 -0.14438371374E-01  0.10252984005E+01  0.10251291009E+01 0.  0.
     999903    2    3    3    0    0 -0.37344123880E-01 -0.10126392548E+00 -0.79256852890E-01  0.13531865553E+00  0.19507014436E-01 0.  0.
         14    1    1    2    0    0 -0.10995674963E-01 -0.42148624450E-02  0.14438371374E-01  0.18631599535E-01  0.00000000000E+00 0. -1.
     999901    1    3    3    0    0  0.48339798842E-01  0.10547878792E+00  0.64818481516E-01  0.88997974494E+00  0.88000000000E+00 0. -1.
        -11    1    4    4    0    0 -0.21552493951E-01 -0.34907494108E-01 -0.23984473524E-01  0.47524301485E-01  0.51100000000E-03 0. -1.
         11    1    4    4    0    0 -0.15791629929E-01 -0.66356431369E-01 -0.55272379366E-01  0.87794354042E-01  0.51100000000E-03 0.  1.
</event>
<event>
 8    1  0.1088021E+005  0.1043930E+01  0.7957747E-01            NaN
         13   -1    0    0    0    0  0.00000000000E+00  0.00000000000E+00  0.74505805969E-08  0.10566000000E+00  0.10566000000E+00 0. -1.
     999900   -1    0    0    0    0 -0.00000000000E+00 -0.00000000000E+00 -0.74505805969E-08  0.93827000000E+00  0.93827000000E+00 0.  1.
     999902    2    1    2    0    0  0.95465330241E-02 -0.11267150929E-01 -0.18468561560E-01  0.10202831662E+01  0.10200091012E+01 0.  0.
     999903    2    3    3    0    0  0.72570284391E-01 -0.95759240438E-01 -0.54067567848E-01  0.13327798263E+00  0.20085827217E-01 0.  0.
         14    1    1    2    0    0 -0.95465330241E-02  0.11267150929E-01  0.18468561560E-01  0.23646833804E-01  0.00000000000E+00 0. -1.
     999901    1    3    3    0    0 -0.63023751367E-01  0.84492089510E-01  0.35599006287E-01  0.88700518357E+00  0.88000000000E+00 0. -1.
        -11    1    4    4    0    0  0.31947650372E-01 -0.58254747218E-01 -0.27015165048E-01  0.71724111715E-01  0.51100000000E-03 0.  1.
         11    1    4    4    0    0  0.40622634019E-01 -0.37504493220E-01 -0.27052402799E-01  0.61553870915E-01  0.51100000000E-03 0. -1.
</event>
<event>
 8    1  0.1088021E+005  0.1043930E+01  0.7957747E-01            NaN
         13   -1    0    0    0    0  0.00000000000E+00  0.00000000000E+00  0.74505805969E-08  0.10566000000E+00  0.10566000000E+00 0.  1.
     999900   -1    0    0    0    0 -0.00000000000E+00 -0.00000000000E+00 -0.74505805969E-08  0.93827000000E+00  0.93827000000E+00 0. -1.
     999902    2    1    2    0    0 -0.16324750260E-01  0.11364405622E-01  0.13738105886E-01  0.10197559904E+01  0.10194694195E+01 0.  0.
     999903    2    3    3    0    0  0.84082330111E-01 -0.11211685854E-01 -0.92761642434E-01  0.12738081254E+00  0.20630292263E-01 0.  0.
         14    1    1    2    0    0  0.16324750260E-01 -0.11364405622E-01 -0.13738105886E-01  0.24174009588E-01  0.00000000000E+00 0. -1.
     999901    1    3    3    0    0 -0.10040708037E+00  0.22576091477E-01  0.10649974832E+00  0.89237517788E+00  0.88000000000E+00 0. -1.
        -11    1    4    4    0    0  0.34271561762E-01  0.55775774747E-02 -0.37653189667E-01  0.51221803261E-01  0.51100000000E-03 0. -1.
         11    1    4    4    0    0  0.49810768349E-01 -0.16789263329E-01 -0.55108452767E-01  0.76159009277E-01  0.51100000000E-03 0.  1.
</event>
<event>
 8    1  0.1088021E+005  0.1043930E+01  0.7957747E-01            NaN
         13   -1    0    0    0    0  0.00000000000E+00  0.00000000000E+00  0.74505805969E-08  0.10566000000E+00  0.10566000000E+00 0. -1.
     999900   -1    0    0    0    0 -0.00000000000E+00 -0.00000000000E+00 -0.74505805969E-08  0.93827000000E+00  0.93827000000E+00 0.  1.
     999902    2    1    2    0    0 -0.11102490119E-02 -0.21336543146E-01  0.62143767768E-02  0.10216791752E+01  0.10214368496E+01 0.  0.
     999903    2    3    3    0    0  0.55809028205E-01  0.69533003323E-01 -0.92055203105E-01  0.12974084272E+00  0.20224729163E-01 0.  0.
         14    1    1    2    0    0  0.11102490119E-02  0.21336543146E-01 -0.62143767768E-02  0.22250824816E-01  0.00000000000E+00 0.  1.
     999901    1    3    3    0    0 -0.56919277217E-01 -0.90869546469E-01  0.98269579882E-01  0.89193833247E+00  0.88000000000E+00 0. -1.
        -11    1    4    4    0    0  0.30943885047E-01  0.39915881408E-01 -0.65998587091E-01  0.83107618360E-01  0.51100000000E-03 0.  1.
         11    1    4    4    0    0  0.24865143158E-01  0.29617121915E-01 -0.26056616014E-01  0.46633224357E-01  0.51100000000E-03 0. -1.
</event>
<event>
 8    1  0.1088021E+005  0.1043930E+01  0.7957747E-01            NaN
         13   -1    0    0    0    0  0.00000000000E+00  0.00000000000E+00  0.74505805969E-08  0.10566000000E+00  0.10566000000E+00 0.  1.
     999900   -1    0    0    0    0 -0.00000000000E+00 -0.00000000000E+00 -0.74505805969E-08  0.93827000000E+00  0.93827000000E+00 0.  1.
     999902    2    1    2    0    0 -0.21831363156E-01 -0.66137897932E-02 -0.77541698827E-02  0.10198368934E+01  0.10195522603E+01 0.  0.
     999903    2    3    3    0    0 -0.54629918430E-01 -0.10322094598E+00 -0.60421961854E-01  0.13237839630E+00  0.15304726604E-01 0.  0.
         14    1    1    2    0    0  0.21831363156E-01  0.66137897932E-02  0.77541698827E-02  0.24093106550E-01  0.00000000000E+00 0.  1.
     999901    1    3    3    0    0  0.32798555275E-01  0.96607156183E-01  0.52667791971E-01  0.88745849715E+00  0.88000000000E+00 0. -1.
        -11    1    4    4    0    0 -0.15990270421E-01 -0.46114536138E-01 -0.23801071744E-01  0.54304616088E-01  0.51100000000E-03 0.  1.
         11    1    4    4    0    0 -0.38639648009E-01 -0.57106409839E-01 -0.36620890110E-01  0.78073780211E-01  0.51100000000E-03 0. -1.
</event>
<event>
 8    1  0.1088021E+005  0.1043930E+01  0.7957747E-01            NaN
         13   -1    0    0    0    0  0.00000000000E+00  0.00000000000E+00  0.74505805969E-08  0.10566000000E+00  0.10566000000E+00 0. -1.
     999900   -1    0    0    0    0 -0.00000000000E+00 -0.00000000000E+00 -0.74505805969E-08  0.93827000000E+00  0.93827000000E+00 0.  1.
     999902    2    1    2    0    0  0.20445748384E-01 -0.67752264641E-02 -0.10022462767E-01  0.10201732729E+01  0.10198966245E+01 0.  0.
     999903    2    3    3    0    0  0.27184341519E-01  0.12571917358E+00 -0.32682427581E-02  0.13020372618E+00  0.19950685938E-01 0.  0.
         14    1    1    2    0    0 -0.20445748384E-01  0.67752264641E-02  0.10022462767E-01  0.23756727059E-01  0.00000000000E+00 0.  1.
     999901    1    3    3    0    0 -0.67385931343E-02 -0.13249440005E+00 -0.67542200091E-02  0.88996954676E+00  0.88000000000E+00 0.  1.
        -11    1    4    4    0    0  0.39063761200E-02  0.51760557875E-01  0.53683071140E-02  0.52187114964E-01  0.51100000000E-03 0. -1.
         11    1    4    4    0    0  0.23277965399E-01  0.73958615707E-01 -0.86365498721E-02  0.78016611212E-01  0.51100000000E-03 0.  1.
</event>
<event>
 8    1  0.1088021E+005  0.1043930E+01  0.7957747E-01            NaN
         13   -1    0    0    0    0  0.00000000000E+00  0.00000000000E+00  0.74505805969E-08  0.10566000000E+00  0.10566000000E+00 0.  1.
     999900   -1    0    0    0    0 -0.00000000000E+00 -0.00000000000E+00 -0.74505805969E-08  0.93827000000E+00  0.93827000000E+00 0. -1.
     999902    2    1    2    0    0 -0.17478322789E-01 -0.12949910245E-01 -0.35632075045E-02  0.10218871238E+01  0.10216493554E+01 0.  0.
     999903    2    3    3    0    0 -0.38397949485E-01  0.68882634507E-02  0.12466137503E+00  0.13212719693E+00  0.19881827052E-01 0.  0.
         14    1    1    2    0    0  0.17478322789E-01  0.12949910245E-01  0.35632075045E-02  0.22042876187E-01  0.00000000000E+00 0. -1.
     999901    1    3    3    0    0  0.20919626696E-01 -0.19838173695E-01 -0.12822458253E+00  0.88975992688E+00  0.88000000000E+00 0. -1.
        -11    1    4    4    0    0 -0.27935513963E-01 -0.16782724143E-02  0.10163685679E+00  0.10542068734E+00  0.51100000000E-03 0.  1.
         11    1    4    4    0    0 -0.10462435522E-01  0.85665358650E-02  0.23024518236E-01  0.26706509596E-01  0.51100000000E-03 0. -1.
</event>
<event>
 8    1  0.1088021E+005  0.1043930E+01  0.7957747E-01            NaN
         13   -1    0    0    0    0  0.00000000000E+00  0.00000000000E+00  0.74505805969E-08  0.10566000000E+00  0.10566000000E+00 0.  1.
     999900   -1    0    0    0    0 -0.00000000000E+00 -0.00000000000E+00 -0.74505805969E-08  0.93827000000E+00  0.93827000000E+00 0.  1.
     999902    2    1    2    0    0  0.10215108426E-01  0.19063856771E-01  0.84553093089E-02  0.10207077837E+01  0.10204435841E+01 0.  0.
     999903    2    3    3    0    0 -0.30380359648E-01 -0.11501707467E+00 -0.44176263829E-01  0.12807360851E+00  0.17303560074E-01 0.  0.
         14    1    1    2    0    0 -0.10215108426E-01 -0.19063856771E-01 -0.84553093089E-02  0.23222216317E-01  0.00000000000E+00 0. -1.
     999901    1    3    3    0    0  0.40595468074E-01  0.13408093144E+00  0.52631573138E-01  0.89263417518E+00  0.88000000000E+00 0.  1.
        -11    1    4    4    0    0 -0.11198057956E-01 -0.73765805971E-01 -0.24838678223E-01  0.78638487329E-01  0.51100000000E-03 0.  1.
         11    1    4    4    0    0 -0.19182301692E-01 -0.41251268701E-01 -0.19337585606E-01  0.49435121176E-01  0.51100000000E-03 0. -1.
</event>
<event>
 8    1  0.1088021E+005  0.1043930E+01  0.7957747E-01            NaN
         13   -1    0    0    0    0  0.00000000000E+00  0.00000000000E+00  0.74505805969E-08  0.10566000000E+00  0.10566000000E+00 0.  1.
     999900   -1    0    0    0    0 -0.00000000000E+00 -0.00000000000E+00 -0.74505805969E-08  0.93827000000E+00  0.93827000000E+00 0.  1.
     999902    2    1    2    0    0  0.17003368813E-02 -0.17611842368E-01  0.18996934512E-01  0.10179694211E+01  0.10176383398E+01 0.  0.
     999903    2    3    3    0    0 -0.51543648356E-01 -0.61269690594E-01  0.10224383573E+00  0.13136298289E+00  0.19791631011E-01 0.  0.
         14    1    1    2    0    0 -0.17003368813E-02  0.17611842368E-01 -0.18996934512E-01  0.25960578922E-01  0.00000000000E+00 0. -1.
     999901    1    3    3    0    0  0.53243985237E-01  0.43657848227E-01 -0.83246901215E-01  0.88660643819E+00  0.88000000000E+00 0.  1.
        -11    1    4    4    0    0 -0.21920455964E-01 -0.23518023976E-01  0.56809357567E-01  0.65277623039E-01  0.51100000000E-03 0.  1.
         11    1    4    4    0    0 -0.29623192391E-01 -0.37751666618E-01  0.45434478161E-01  0.66085359851E-01  0.51100000000E-03 0. -1.
</event>
<event>
 8    1  0.1088021E+005  0.1043930E+01  0.7957747E-01            NaN
         13   -1    0    0    0    0  0.00000000000E+00  0.00000000000E+00  0.74505805969E-08  0.10566000000E+00  0.10566000000E+00 0. -1.
     999900   -1    0    0    0    0 -0.00000000000E+00 -0.00000000000E+00 -0.74505805969E-08  0.93827000000E+00  0.93827000000E+00 0.  1.
     999902    2    1    2    0    0 -0.87782166177E-02  0.20664330944E-01  0.73935339671E-02  0.10202924027E+01  0.10200185543E+01 0.  0.
     999903    2    3    3    0    0 -0.32696255261E-01 -0.64669084854E-01 -0.10458775896E+00  0.12878038688E+00  0.19865877201E-01 0.  0.
         14    1    1    2    0    0  0.87782166177E-02 -0.20664330944E-01 -0.73935339671E-02  0.23637597274E-01  0.00000000000E+00 0. -1.
     999901    1    3    3    0    0  0.23918038644E-01  0.85333415798E-01  0.11198129293E+00  0.89151201584E+00  0.88000000000E+00 0. -1.
        -11    1    4    4    0    0 -0.23917884954E-01 -0.37614130787E-01 -0.48394565756E-01  0.65796528565E-01  0.51100000000E-03 0.  1.
         11    1    4    4    0    0 -0.87783703071E-02 -0.27054954067E-01 -0.56193193208E-01  0.62983858319E-01  0.51100000000E-03 0. -1.
</event>
<event>
 8    1  0.1088021E+005  0.1043930E+01  0.7957747E-01            NaN
         13   -1    0    0    0    0  0.00000000000E+00  0.00000000000E+00  0.74505805969E-08  0.10566000000E+00  0.10566000000E+00 0.  1.
     999900   -1    0    0    0    0 -0.00000000000E+00 -0.00000000000E+00 -0.74505805969E-08  0.93827000000E+00  0.93827000000E+00 0.  1.
     999902    2    1    2    0    0  0.59189634868E-02 -0.16871031530E-01  0.15670577316E-01  0.10201553743E+01  0.10198783040E+01 0.  0.
     999903    2    3    3    0    0  0.66647740025E-01  0.10838289001E+00 -0.65824604696E-02  0.12893613817E+00  0.19809766378E-01 0.  0.
         14    1    1    2    0    0 -0.59189634868E-02  0.16871031530E-01 -0.15670577316E-01  0.23774625698E-01  0.00000000000E+00 0. -1.
     999901    1    3    3    0    0 -0.60728776538E-01 -0.12525392154E+00  0.22253037786E-01  0.89121923613E+00  0.88000000000E+00 0. -1.
        -11    1    4    4    0    0  0.47020247016E-01  0.90517316367E-01 -0.82657068076E-02  0.10233704716E+00  0.51100000000E-03 0. -1.
         11    1    4    4    0    0  0.19627493009E-01  0.17865573640E-01  0.16832463380E-02  0.26599091009E-01  0.51100000000E-03 0.  1.
</event>
<event>
 8    1  0.1088021E+005  0.1043930E+01  0.7957747E-01            NaN
         13   -1    0    0    0    0  0.00000000000E+00  0.00000000000E+00  0.74505805969E-08  0.10566000000E+00  0.10566000000E+00 0. -1.
     999900   -1    0    0    0    0 -0.00000000000E+00 -0.00000000000E+00 -0.74505805969E-08  0.93827000000E+00  0.93827000000E+00 0. -1.
     999902    2    1    2    0    0 -0.35524064130E-02  0.23337075329E-01 -0.15730629585E-02  0.10202717413E+01  0.10199974083E+01 0.  0.
     999903    2    3    3    0    0  0.11218577707E+00 -0.15633024239E-01 -0.60526452561E-01  0.12988446721E+00  0.19403178543E-01 0.  0.
         14    1    1    2    0    0  0.35524064130E-02 -0.23337075329E-01  0.15730629585E-02  0.23658258670E-01  0.00000000000E+00 0.  1.
     999901    1    3    3    0    0 -0.11573818348E+00  0.38970099568E-01  0.58953389603E-01  0.89038727412E+00  0.88000000000E+00 0.  1.
        -11    1    4    4    0    0  0.94786394320E-01 -0.78661275516E-02 -0.44626608355E-01  0.10506251380E+00  0.51100000000E-03 0. -1.
         11    1    4    4    0    0  0.17399382752E-01 -0.77668966870E-02 -0.15899844206E-01  0.24821953409E-01  0.51100000000E-03 0.  1.
</event>
<event>
 8    1  0.1088021E+005  0.1043930E+01  0.7957747E-01            NaN
         13   -1    0    0    0    0  0.00000000000E+00  0.00000000000E+00  0.74505805969E-08  0.10566000000E+00  0.10566000000E+00 0. -1.
     999900   -1    0    0    0    0 -0.00000000000E+00 -0.00000000000E+00 -0.74505805969E-08  0.93827000000E+00  0.93827000000E+00 0.  1.
     999902    2    1    2    0    0  0.19715372852E-01  0.16174112610E-01  0.99108375230E-02  0.10165708599E+01  0.10162026327E+01 0.  0.
     999903    2    3    3    0    0 -0.87459287269E-01 -0.82978785549E-01  0.23454843291E-01  0.12443794097E+00  0.20001642380E-01 0.  0.
         14    1    1    2    0    0 -0.19715372852E-01 -0.16174112610E-01 -0.99108375230E-02  0.27359140079E-01  0.00000000000E+00 0.  1.
     999901    1    3    3    0    0  0.10717466012E+00  0.99152898160E-01 -0.13544005768E-01  0.89213291895E+00  0.88000000000E+00 0. -1.
        -11    1    4    4    0    0 -0.44076649324E-01 -0.30331687145E-01  0.15788977379E-01  0.55788127665E-01  0.51100000000E-03 0.  1.
         11    1    4    4    0    0 -0.43382637946E-01 -0.52647098405E-01  0.76658659118E-02  0.68649813304E-01  0.51100000000E-03 0. -1.
</event>
<event>
 8    1  0.1088021E+005  0.1043930E+01  0.7957747E-01            NaN
         13   -1    0    0    0    0  0.00000000000E+00  0.00000000000E+00  0.74505805969E-08  0.10566000000E+00  0.10566000000E+00 0.  1.
     999900   -1    0    0    0    0 -0.00000000000E+00 -0.00000000000E+00 -0.74505805969E-08  0.93827000000E+00  0.93827000000E+00 0. -1.
     999902    2    1    2    0    0  0.31668780195E-02 -0.15641354603E-01  0.21368533038E-01  0.10172598801E+01  0.10169102067E+01 0.  0.
     999903    2    3    3    0    0  0.31583822875E-01 -0.48669286559E-01  0.11577487543E+00  0.13113859918E+00  0.20670585196E-01 0.  0.
         14    1    1    2    0    0 -0.31668780195E-02  0.15641354603E-01 -0.21368533038E-01  0.26670119880E-01  0.00000000000E+00 0. -1.
     999901    1    3    3    0    0 -0.28416944855E-01  0.33027931956E-01 -0.94406342397E-01  0.88612128094E+00  0.88000000000E+00 0.  1.
        -11    1    4    4    0    0  0.39013432036E-02 -0.57036220039E-02  0.34033725101E-01  0.34731935564E-01  0.51100000000E-03 0.  1.
         11    1    4    4    0    0  0.27682479671E-01 -0.42965664555E-01  0.81741150334E-01  0.96406663620E-01  0.51100000000E-03 0. -1.
</event>
<event>
 8    1  0.1088021E+005  0.1043930E+01  0.7957747E-01            NaN
         13   -1    0    0    0    0  0.00000000000E+00  0.00000000000E+00  0.74505805969E-08  0.10566000000E+00  0.10566000000E+00 0.  1.
     999900   -1    0    0    0    0 -0.00000000000E+00 -0.00000000000E+00 -0.74505805969E-08  0.93827000000E+00  0.93827000000E+00 0. -1.
     999902    2    1    2    0    0  0.62333576767E-02  0.10655024269E-01 -0.20206878257E-01  0.10202508484E+01  0.10199760250E+01 0.  0.
     999903    2    3    3    0    0 -0.95943757974E-01 -0.57315123815E-01  0.59388950598E-01  0.12817708469E+00  0.20299987021E-01 0.  0.
         14    1    1    2    0    0 -0.62333576767E-02 -0.10655024269E-01  0.20206878257E-01  0.23679151569E-01  0.00000000000E+00 0.  1.
     999901    1    3    3    0    0  0.10217711565E+00  0.67970148084E-01 -0.79595828856E-01  0.89207376375E+00  0.88000000000E+00 0. -1.
        -11    1    4    4    0    0 -0.83367333732E-01 -0.51027175759E-01  0.43599681607E-01  0.10702839977E+00  0.51100000000E-03 0. -1.
         11    1    4    4    0    0 -0.12576424243E-01 -0.62879480559E-02  0.15789268991E-01  0.21148684918E-01  0.51100000000E-03 0.  1.
</event>
<event>
 8    1  0.1088021E+005  0.1043930E+01  0.7957747E-01            NaN
         13   -1    0    0    0    0  0.00000000000E+00  0.00000000000E+00  0.74505805969E-08  0.10566000000E+00  0.10566000000E+00 0.  1.
     999900   -1    0    0    0    0 -0.00000000000E+00 -0.00000000000E+00 -0.74505805969E-08  0.93827000000E+00  0.93827000000E+00 0. -1.
     999902    2    1    2    0    0 -0.13846849742E-01  0.14901009002E-01  0.11915573413E-01  0.10203555179E+01  0.10200831469E+01 0.  0.
     999903    2    3    3    0    0 -0.66260094193E-01 -0.96565748858E-01  0.54581148645E-01  0.13075316986E+00  0.20048583668E-01 0.  0.
         14    1    1    2    0    0  0.13846849742E-01 -0.14901009002E-01 -0.11915573413E-01  0.23574482111E-01  0.00000000000E+00 0. -1.
     999901    1    3    3    0    0  0.52413244451E-01  0.11146675786E+00 -0.42665575231E-01  0.88960234802E+00  0.88000000000E+00 0. -1.
        -11    1    4    4    0    0 -0.42756116650E-01 -0.49889740763E-01  0.22612008378E-01  0.69488385996E-01  0.51100000000E-03 0. -1.
         11    1    4    4    0    0 -0.23503977543E-01 -0.46676008095E-01  0.31969140267E-01  0.61264783868E-01  0.51100000000E-03 0.  1.
</event>
<event>
 8    1  0.1088021E+005  0.1043930E+01  0.7957747E-01            NaN
         13   -1    0    0    0    0  0.00000000000E+00  0.00000000000E+00  0.74505805969E-08  0.10566000000E+00  0.10566000000E+00 0.  1.
     999900   -1    0    0    0    0 -0.00000000000E+00 -0.00000000000E+00 -0.74505805969E-08  0.93827000000E+00  0.93827000000E+00 0.  1.
     999902    2    1    2    0    0  0.55430007940E-02  0.62152393281E-02 -0.21863598284E-01  0.10205340391E+01  0.10202658251E+01 0.  0.
     999903    2    3    3    0    0 -0.73551635119E-01 -0.46435786321E-01  0.91894148212E-01  0.12813899381E+00  0.20222313868E-01 0.  0.
         14    1    1    2    0    0 -0.55430007940E-02 -0.62152393281E-02  0.21863598284E-01  0.23395960925E-01  0.00000000000E+00 0.  1.
     999901    1    3    3    0    0  0.79094635913E-01  0.52651025649E-01 -0.11375774650E+00  0.89239504527E+00  0.88000000000E+00 0.  1.
        -11    1    4    4    0    0 -0.33552168482E-01 -0.26154379430E-01  0.31617190024E-01  0.53006673157E-01  0.51100000000E-03 0. -1.
         11    1    4    4    0    0 -0.39999466637E-01 -0.20281406892E-01  0.60276958187E-01  0.75132320649E-01  0.51100000000E-03 0.  1.
</event>
<event>
 8    1  0.1300794E+005  0.1043930E+01  0.7957747E-01            NaN
         13   -1    0    0    0    0  0.00000000000E+00  0.00000000000E+00  0.74505805969E-08  0.10566000000E+00  0.10566000000E+00 0. -1.
     999900   -1    0    0    0    0 -0.00000000000E+00 -0.00000000000E+00 -0.74505805969E-08  0.93827000000E+00  0.93827000000E+00 0.  1.
     999902    2    1    2    0    0  0.88405037795E-02  0.13568536749E-01  0.17510801464E-01  0.10200786297E+01  0.10197997465E+01 0.  0.
     999903    2    3    3    0    0 -0.94481551799E-01  0.88050773233E-01 -0.30417150422E-02  0.13067126711E+00  0.19647537259E-01 0.  0.
         14    1    1    2    0    0 -0.88405037795E-02 -0.13568536749E-01 -0.17510801464E-01  0.23851370286E-01  0.00000000000E+00 0. -1.
     999901    1    3    3    0    0  0.10332205558E+00 -0.74482236484E-01  0.20552516507E-01  0.88940736260E+00  0.88000000000E+00 0.  1.
        -11    1    4    4    0    0 -0.65745457091E-01  0.48682646101E-01 -0.41697670842E-02  0.81915280859E-01  0.51100000000E-03 0.  1.
         11    1    4    4    0    0 -0.28736094707E-01  0.39368127132E-01  0.11280520420E-02  0.48755986251E-01  0.51100000000E-03 0. -1.
</event>
<event>
 8    1  0.1088021E+005  0.1043930E+01  0.7957747E-01            NaN
         13   -1    0    0    0    0  0.00000000000E+00  0.00000000000E+00  0.74505805969E-08  0.10566000000E+00  0.10566000000E+00 0. -1.
     999900   -1    0    0    0    0 -0.00000000000E+00 -0.00000000000E+00 -0.74505805969E-08  0.93827000000E+00  0.93827000000E+00 0.  1.
     999902    2    1    2    0    0 -0.24881461636E-01 -0.63231308520E-02 -0.55549291919E-02  0.10176635508E+01  0.10173245186E+01 0.  0.
     999903    2    3    3    0    0  0.11705560154E+00  0.27532374862E-01 -0.23249716284E-01  0.12547218640E+00  0.27252059284E-01 0.  0.
         14    1    1    2    0    0  0.24881461636E-01  0.63231308520E-02  0.55549291919E-02  0.26266449231E-01  0.00000000000E+00 0. -1.
     999901    1    3    3    0    0 -0.14193706317E+00 -0.33855505714E-01  0.17694787092E-01  0.89219136437E+00  0.88000000000E+00 0. -1.
        -11    1    4    4    0    0  0.38761719710E-01  0.22498825355E-01 -0.95693246956E-02  0.45831224655E-01  0.51100000000E-03 0.  1.
         11    1    4    4    0    0  0.78293881827E-01  0.50335495063E-02 -0.13680391589E-01  0.79640961742E-01  0.51100000000E-03 0. -1.
</event>
<event>
 8    1  0.1088021E+005  0.1043930E+01  0.7957747E-01            NaN
         13   -1    0    0    0    0  0.00000000000E+00  0.00000000000E+00  0.74505805969E-08  0.10566000000E+00  0.10566000000E+00 0.  1.
     999900   -1    0    0    0    0 -0.00000000000E+00 -0.00000000000E+00 -0.74505805969E-08  0.93827000000E+00  0.93827000000E+00 0. -1.
     999902    2    1    2    0    0 -0.94031089622E-03 -0.12109184605E-01 -0.20490558464E-01  0.10201102703E+01  0.10198321352E+01 0.  0.
     999903    2    3    3    0    0  0.52281406246E-01 -0.10537879321E+00  0.53022514385E-01  0.13053961941E+00  0.19778010674E-01 0.  0.
         14    1    1    2    0    0  0.94031089622E-03  0.12109184605E-01  0.20490558464E-01  0.23819729691E-01  0.00000000000E+00 0.  1.
     999901    1    3    3    0    0 -0.53221717142E-01  0.93269608603E-01 -0.73513072849E-01  0.88957065090E+00  0.88000000000E+00 0. -1.
        -11    1    4    4    0    0  0.19453791228E-01 -0.28725275860E-01  0.24232167616E-01  0.42320804987E-01  0.51100000000E-03 0. -1.
         11    1    4    4    0    0  0.32827615018E-01 -0.76653517349E-01  0.28790346769E-01  0.88218814420E-01  0.51100000000E-03 0.  1.
</event>
<event>
 8    1  0.1088021E+005  0.1043930E+01  0.7957747E-01            NaN
         13   -1    0    0    0    0  0.00000000000E+00  0.00000000000E+00  0.74505805969E-08  0.10566000000E+00  0.10566000000E+00 0.  1.
     999900   -1    0    0    0    0 -0.00000000000E+00 -0.00000000000E+00 -0.74505805969E-08  0.93827000000E+00  0.93827000000E+00 0.  1.
     999902    2    1    2    0    0 -0.20236827541E-01 -0.68829117313E-03 -0.62960997515E-02  0.10227251938E+01  0.10225053439E+01 0.  0.
     999903    2    3    3    0    0  0.50381362158E-01 -0.11967706754E+00  0.10188567917E-01  0.13176110817E+00  0.19907299211E-01 0.  0.
         14    1    1    2    0    0  0.20236827541E-01  0.68829117313E-03  0.62960997515E-02  0.21204806194E-01  0.00000000000E+00 0. -1.
     999901    1    3    3    0    0 -0.70618189699E-01  0.11898877637E+00 -0.16484667669E-01  0.89096408563E+00  0.88000000000E+00 0.  1.
        -11    1    4    4    0    0  0.36860998155E-01 -0.72464177168E-01 -0.13383305808E-02  0.81313236360E-01  0.51100000000E-03 0. -1.
         11    1    4    4    0    0  0.13520364003E-01 -0.47212890376E-01  0.11526898498E-01  0.50447871813E-01  0.51100000000E-03 0.  1.
</event>
<event>
 8    1  0.1088021E+005  0.1043930E+01  0.7957747E-01            NaN
         13   -1    0    0    0    0  0.00000000000E+00  0.00000000000E+00  0.74505805969E-08  0.10566000000E+00  0.10566000000E+00 0. -1.
     999900   -1    0    0    0    0 -0.00000000000E+00 -0.00000000000E+00 -0.74505805969E-08  0.93827000000E+00  0.93827000000E+00 0.  1.
     999902    2    1    2    0    0  0.89073673714E-02  0.49731622289E-02  0.20486222319E-01  0.10210442219E+01  0.10207877077E+01 0.  0.
     999903    2    3    3    0    0  0.97292203953E-01  0.15375894504E-01  0.88416237645E-01  0.13395088790E+00  0.20572267946E-01 0.  0.
         14    1    1    2    0    0 -0.89073673714E-02 -0.49731622289E-02 -0.20486222319E-01  0.22885778137E-01  0.00000000000E+00 0.  1.
     999901    1    3    3    0    0 -0.88384836582E-01 -0.10402732275E-01 -0.67930015327E-01  0.88709333396E+00  0.88000000000E+00 0. -1.
        -11    1    4    4    0    0  0.48194951240E-01  0.59695513747E-02  0.57096017194E-01  0.74957355670E-01  0.51100000000E-03 0. -1.
         11    1    4    4    0    0  0.49097252713E-01  0.94063431289E-02  0.31320220452E-01  0.58993532232E-01  0.51100000000E-03 0.  1.
</event>
<event>
 8    1  0.1088021E+005  0.1043930E+01  0.7957747E-01            NaN
         13   -1    0    0    0    0  0.00000000000E+00  0.00000000000E+00  0.74505805969E-08  0.10566000000E+00  0.10566000000E+00 0. -1.
     999900   -1    0    0    0    0 -0.00000000000E+00 -0.00000000000E+00 -0.74505805969E-08  0.93827000000E+00  0.93827000000E+00 0. -1.
     999902    2    1    2    0    0  0.46429026347E-02  0.14559191643E-01 -0.19543642291E-01  0.10191211193E+01  0.10188191082E+01 0.  0.
     999903    2    3    3    0    0  0.60604048541E-01  0.89681848427E-01  0.68191938417E-01  0.12981093973E+00  0.22023963586E-01 0.  0.
         14    1    1    2    0    0 -0.46429026347E-02 -0.14559191643E-01  0.19543642291E-01  0.24808880671E-01  0.00000000000E+00 0. -1.
     999901    1    3    3    0    0 -0.55961145907E-01 -0.75122656784E-01 -0.87735580708E-01  0.88931017960E+00  0.88000000000E+00 0. -1.
        -11    1    4    4    0    0  0.28486142501E-01  0.34823843545E-01  0.40253576280E-01  0.60371946451E-01  0.51100000000E-03 0. -1.
         11    1    4    4    0    0  0.32117906040E-01  0.54858004882E-01  0.27938362136E-01  0.69438993281E-01  0.51100000000E-03 0.  1.
</event>
<event>
 8    1  0.1088021E+005  0.1043930E+01  0.7957747E-01            NaN
         13   -1    0    0    0    0  0.00000000000E+00  0.00000000000E+00  0.74505805969E-08  0.10566000000E+00  0.10566000000E+00 0.  1.
     999900   -1    0    0    0    0 -0.00000000000E+00 -0.00000000000E+00 -0.74505805969E-08  0.93827000000E+00  0.93827000000E+00 0.  1.
     999902    2    1    2    0    0  0.70505879524E-02 -0.42138423165E-02  0.22423939255E-01  0.10200490388E+01  0.10197694549E+01 0.  0.
     999903    2    3    3    0    0 -0.73196784733E-01  0.50017891933E-01  0.95335938979E-01  0.13173778615E+00  0.20157981817E-01 0.  0.
         14    1    1    2    0    0 -0.70505879524E-02  0.42138423165E-02 -0.22423939255E-01  0.23880961229E-01  0.00000000000E+00 0. -1.
     999901    1    3    3    0    0  0.80247372685E-01 -0.54231734249E-01 -0.72911999725E-01  0.88831125262E+00  0.88000000000E+00 0. -1.
        -11    1    4    4    0    0 -0.19678286725E-01  0.12540741229E-01  0.39075995593E-01  0.45515928109E-01  0.51100000000E-03 0.  1.
         11    1    4    4    0    0 -0.53518498008E-01  0.37477150703E-01  0.56259943386E-01  0.86221858045E-01  0.51100000000E-03 0. -1.
</event>
<event>
 8    1  0.1088021E+005  0.1043930E+01  0.7957747E-01            NaN
         13   -1    0    0    0    0  0.00000000000E+00  0.00000000000E+00  0.74505805969E-08  0.10566000000E+00  0.10566000000E+00 0. -1.
     999900   -1    0    0    0    0 -0.00000000000E+00 -0.00000000000E+00 -0.74505805969E-08  0.93827000000E+00  0.93827000000E+00 0.  1.
     999902    2    1    2    0    0  0.90865790972E-04  0.10001614120E-01 -0.21414125876E-01  0.10202951670E+01  0.10200213834E+01 0.  0.
     999903    2    3    3    0    0  0.38694049376E-01  0.23203065993E-02 -0.12589097796E+00  0.13324126740E+00  0.20052025484E-01 0.  0.
         14    1    1    2    0    0 -0.90865790972E-04 -0.10001614120E-01  0.21414125876E-01  0.23634832951E-01  0.00000000000E+00 0. -1.
     999901    1    3    3    0    0 -0.38603183585E-01  0.76813075211E-02  0.10447685208E+00  0.88705389965E+00  0.88000000000E+00 0. -1.
        -11    1    4    4    0    0  0.15948194787E-01 -0.69572524721E-02 -0.35028250479E-01  0.39115057607E-01  0.51100000000E-03 0.  1.
         11    1    4    4    0    0  0.22745854590E-01  0.92775590714E-02 -0.90862727479E-01  0.94126209789E-01  0.51100000000E-03 0. -1.
</event>
<event>
 8    1  0.1088021E+005  0.1043930E+01  0.7957747E-01            NaN
         13   -1    0    0    0    0  0.00000000000E+00  0.00000000000E+00  0.74505805969E-08  0.10566000000E+00  0.10566000000E+00 0. -1.
     999900   -1    0    0    0    0 -0.00000000000E+00 -0.00000000000E+00 -0.74505805969E-08  0.93827000000E+00  0.93827000000E+00 0.  1.
     999902    2    1    2    0    0 -0.16175684775E-01  0.13667066113E-01 -0.65382450062E-02  0.10217671906E+01  0.10215267993E+01 0.  0.
     999903    2    3    3    0    0 -0.30156102325E-01  0.10451197052E+00  0.74434255265E-01  0.13328264116E+00  0.19790441858E-01 0.  0.
         14    1    1    2    0    0  0.16175684775E-01 -0.13667066113E-01  0.65382450062E-02  0.22162809430E-01  0.00000000000E+00 0.  1.
     999901    1    3    3    0    0  0.13980417550E-01 -0.90844904409E-01 -0.80972500271E-01  0.88848454941E+00  0.88000000000E+00 0. -1.
        -11    1    4    4    0    0  0.73360440626E-03  0.87875194548E-02  0.13196475133E-02  0.89309161990E-02  0.51100000000E-03 0. -1.
         11    1    4    4    0    0 -0.30889706732E-01  0.95724451067E-01  0.73114607752E-01  0.12435172497E+00  0.51100000000E-03 0.  1.
</event>
<event>
 8    1  0.1088021E+005  0.1043930E+01  0.7957747E-01            NaN
         13   -1    0    0    0    0  0.00000000000E+00  0.00000000000E+00  0.74505805969E-08  0.10566000000E+00  0.10566000000E+00 0.  1.
     999900   -1    0    0    0    0 -0.00000000000E+00 -0.00000000000E+00 -0.74505805969E-08  0.93827000000E+00  0.93827000000E+00 0. -1.
     999902    2    1    2    0    0 -0.19110108601E-01 -0.38535900082E-02 -0.13629201440E-01  0.10201434168E+01  0.10198660644E+01 0.  0.
     999903    2    3    3    0    0  0.10442357799E+00 -0.21215257774E-01 -0.70844418668E-01  0.12950567886E+00  0.19960420748E-01 0.  0.
         14    1    1    2    0    0  0.19110108601E-01  0.38535900082E-02  0.13629201440E-01  0.23786583163E-01  0.00000000000E+00 0.  1.
     999901    1    3    3    0    0 -0.12353368659E+00  0.17361667766E-01  0.57215217229E-01  0.89063773798E+00  0.88000000000E+00 0. -1.
        -11    1    4    4    0    0  0.43017309874E-01 -0.18574208217E-01 -0.28094212723E-01  0.54635483609E-01  0.51100000000E-03 0. -1.
         11    1    4    4    0    0  0.61406268120E-01 -0.26410495576E-02 -0.42750205946E-01  0.74870195248E-01  0.51100000000E-03 0.  1.
</event>
<event>
 8    1  0.1088021E+005  0.1043930E+01  0.7957747E-01            NaN
         13   -1    0    0    0    0  0.00000000000E+00  0.00000000000E+00  0.74505805969E-08  0.10566000000E+00  0.10566000000E+00 0.  1.
     999900   -1    0    0    0    0 -0.00000000000E+00 -0.00000000000E+00 -0.74505805969E-08  0.93827000000E+00  0.93827000000E+00 0.  1.
     999902    2    1    2    0    0 -0.20361131120E-01 -0.11653897261E-01  0.34936244458E-02  0.10202109276E+01  0.10199351658E+01 0.  0.
     999903    2    3    3    0    0 -0.18058240390E-01  0.51245409948E-01 -0.11627699037E+00  0.12987019156E+00  0.19842784058E-01 0.  0.
         14    1    1    2    0    0  0.20361131120E-01  0.11653897261E-01 -0.34936244458E-02  0.23719072360E-01  0.00000000000E+00 0. -1.
     999901    1    3    3    0    0 -0.23028907297E-02 -0.62899307209E-01  0.11977061482E+00  0.89034073608E+00  0.88000000000E+00 0. -1.
        -11    1    4    4    0    0 -0.10250604321E-01  0.60474792528E-02 -0.26463705225E-01  0.29021297516E-01  0.51100000000E-03 0.  1.
         11    1    4    4    0    0 -0.78076360697E-02  0.45197930695E-01 -0.89813285144E-01  0.10084889404E+00  0.51100000000E-03 0. -1.
</event>
<event>
 8    1  0.1088021E+005  0.1043930E+01  0.7957747E-01            NaN
         13   -1    0    0    0    0  0.00000000000E+00  0.00000000000E+00  0.74505805969E-08  0.10566000000E+00  0.10566000000E+00 0. -1.
     999900   -1    0    0    0    0 -0.00000000000E+00 -0.00000000000E+00 -0.74505805969E-08  0.93827000000E+00  0.93827000000E+00 0. -1.
     999902    2    1    2    0    0  0.44304929364E-02 -0.12511849700E-01  0.19505812342E-01  0.10203365186E+01  0.10200637033E+01 0.  0.
     999903    2    3    3    0    0  0.11524660377E+00  0.46801696626E-01 -0.31253914487E-01  0.12995746611E+00  0.20975160097E-01 0.  0.
         14    1    1    2    0    0 -0.44304929364E-02  0.12511849700E-01 -0.19505812342E-01  0.23593481424E-01  0.00000000000E+00 0.  1.
     999901    1    3    3    0    0 -0.11081611083E+00 -0.59313546326E-01  0.50759726829E-01  0.89037905246E+00  0.88000000000E+00 0.  1.
        -11    1    4    4    0    0  0.95530362602E-01  0.29846299707E-01 -0.26260308787E-01  0.10347326574E+00  0.51100000000E-03 0. -1.
         11    1    4    4    0    0  0.19716241164E-01  0.16955396919E-01 -0.49936056998E-02  0.26484200370E-01  0.51100000000E-03 0.  1.
</event>
<event>
 8    1  0.1088021E+005  0.1043930E+01  0.7957747E-01            NaN
         13   -1    0    0    0    0  0.00000000000E+00  0.00000000000E+00  0.74505805969E-08  0.10566000000E+00  0.10566000000E+00 0. -1.
     999900   -1    0    0    0    0 -0.00000000000E+00 -0.00000000000E+00 -0.74505805969E-08  0.93827000000E+00  0.93827000000E+00 0. -1.
     999902    2    1    2    0    0  0.12226207273E-01  0.19900857289E-01 -0.24395293215E-02  0.10204464830E+01  0.10201762344E+01 0.  0.
     999903    2    3    3    0    0 -0.77727830645E-01 -0.63067357589E-01 -0.77475165270E-01  0.12881550541E+00  0.23914973366E-01 0.  0.
         14    1    1    2    0    0 -0.12226207273E-01 -0.19900857289E-01  0.24395293215E-02  0.23483516951E-01  0.00000000000E+00 0. -1.
     999901    1    3    3    0    0  0.89954037917E-01  0.82968214878E-01  0.75035635948E-01  0.89163097764E+00  0.88000000000E+00 0.  1.
        -11    1    4    4    0    0 -0.44490600085E-01 -0.49354416826E-01 -0.44073624679E-01  0.79737177461E-01  0.51100000000E-03 0. -1.
         11    1    4    4    0    0 -0.33237230560E-01 -0.13712940763E-01 -0.33401540591E-01  0.49078327951E-01  0.51100000000E-03 0.  1.
</event>
<event>
 8    1  0.1088021E+005  0.1043930E+01  0.7957747E-01            NaN
         13   -1    0    0    0    0  0.00000000000E+00  0.00000000000E+00  0.74505805969E-08  0.10566000000E+00  0.10566000000E+00 0.  1.
     999900   -1    0    0    0    0 -0.00000000000E+00 -0.00000000000E+00 -0.74505805969E-08  0.93827000000E+00  0.93827000000E+00 0.  1.
     999902    2    1    2    0    0 -0.18768607042E-01 -0.77759383031E-02  0.13431170257E-01  0.10195759005E+01  0.10192849919E+01 0.  0.
     999903    2    3    3    0    0  0.62636942026E-01  0.68814390831E-01 -0.84239953873E-01  0.12714518029E+00  0.20266231761E-01 0.  0.
         14    1    1    2    0    0  0.18768607042E-01  0.77759383031E-02 -0.13431170257E-01  0.24354099475E-01  0.00000000000E+00 0. -1.
     999901    1    3    3    0    0 -0.81405549068E-01 -0.76590329134E-01  0.97671124130E-01  0.89243072024E+00  0.88000000000E+00 0. -1.
        -11    1    4    4    0    0  0.41030999382E-01  0.32331266320E-01 -0.53466480953E-01  0.74751450813E-01  0.51100000000E-03 0. -1.
         11    1    4    4    0    0  0.21605942644E-01  0.36483124510E-01 -0.30773472920E-01  0.52393729473E-01  0.51100000000E-03 0.  1.
</event>
<event>
 8    1  0.1088021E+005  0.1043930E+01  0.7957747E-01            NaN
         13   -1    0    0    0    0  0.00000000000E+00  0.00000000000E+00  0.74505805969E-08  0.10566000000E+00  0.10566000000E+00 0.  1.
     999900   -1    0    0    0    0 -0.00000000000E+00 -0.00000000000E+00 -0.74505805969E-08  0.93827000000E+00  0.93827000000E+00 0. -1.
     999902    2    1    2    0    0 -0.67987571720E-02  0.57830656961E-02 -0.21985904958E-01  0.10202013893E+01  0.10199254031E+01 0.  0.
     999903    2    3    3    0    0  0.32015749458E-01 -0.11108420077E+00 -0.57595737509E-01  0.13091370579E+00  0.21364023753E-01 0.  0.
         14    1    1    2    0    0  0.67987571720E-02 -0.57830656961E-02  0.21985904958E-01  0.23728610679E-01  0.00000000000E+00 0.  1.
     999901    1    3    3    0    0 -0.38814506630E-01  0.11686726647E+00  0.35609832551E-01  0.88928768353E+00  0.88000000000E+00 0. -1.
        -11    1    4    4    0    0  0.47640800082E-02 -0.99860990464E-02 -0.13069995371E-01  0.17131973981E-01  0.51100000000E-03 0. -1.
         11    1    4    4    0    0  0.27251669450E-01 -0.10109810173E+00 -0.44525742138E-01  0.11378173181E+00  0.51100000000E-03 0.  1.
</event>
<event>
 8    1  0.1088021E+005  0.1043930E+01  0.7957747E-01            NaN
         13   -1    0    0    0    0  0.00000000000E+00  0.00000000000E+00  0.74505805969E-08  0.10566000000E+00  0.10566000000E+00 0. -1.
     999900   -1    0    0    0    0 -0.00000000000E+00 -0.00000000000E+00 -0.74505805969E-08  0.93827000000E+00  0.93827000000E+00 0. -1.
     999902    2    1    2    0    0  0.20770205226E-01 -0.87887553322E-02 -0.90113147221E-02  0.10196432250E+01  0.10193539419E+01 0.  0.
     999903    2    3    3    0    0 -0.11107485516E+00  0.53329694747E-02 -0.60889003987E-01  0.12819842152E+00  0.19007905255E-01 0.  0.
         14    1    1    2    0    0 -0.20770205226E-01  0.87887553322E-02  0.90113147221E-02  0.24286774970E-01  0.00000000000E+00 0. -1.
     999901    1    3    3    0    0  0.13184506038E+00 -0.14121724807E-01  0.51877689265E-01  0.89144480351E+00  0.88000000000E+00 0.  1.
        -11    1    4    4    0    0 -0.80967059420E-01  0.37476796713E-02 -0.34366107505E-01  0.88039765334E-01  0.51100000000E-03 0.  1.
         11    1    4    4    0    0 -0.30107795738E-01  0.15852898034E-02 -0.26522896481E-01  0.40158656187E-01  0.51100000000E-03 0. -1.
</event>
<event>
 8    1  0.1088021E+005  0.1043930E+01  0.7957747E-01            NaN
         13   -1    0    0    0    0  0.00000000000E+00  0.00000000000E+00  0.74505805969E-08  0.10566000000E+00  0.10566000000E+00 0.  1.
     999900   -1    0    0    0    0 -0.00000000000E+00 -0.00000000000E+00 -0.74505805969E-08  0.93827000000E+00  0.93827000000E+00 0.  1.
     999902    2    1    2    0    0 -0.22148166477E-01  0.13625341245E-02 -0.46441622906E-02  0.10212591813E+01  0.10210075168E+01 0.  0.
     999903    2    3    3    0    0 -0.12843594782E+00 -0.31712563557E-01  0.85405508650E-02  0.13414876471E+00  0.20529751204E-01 0.  0.
         14    1    1    2    0    0  0.22148166477E-01 -0.13625341245E-02  0.46441622906E-02  0.22670818708E-01  0.00000000000E+00 0.  1.
     999901    1    3    3    0    0  0.10628778134E+00  0.33075097682E-01 -0.13184713156E-01  0.88711041658E+00  0.88000000000E+00 0. -1.
        -11    1    4    4    0    0 -0.56002737774E-01 -0.36505588582E-02  0.57523515342E-02  0.56417939410E-01  0.51100000000E-03 0. -1.
         11    1    4    4    0    0 -0.72433210044E-01 -0.28062004699E-01  0.27881993308E-02  0.77730825298E-01  0.51100000000E-03 0.  1.
</event>
<event>
 8    1  0.1088021E+005  0.1043930E+01  0.7957747E-01            NaN
         13   -1    0    0    0    0  0.00000000000E+00  0.00000000000E+00  0.74505805969E-08  0.10566000000E+00  0.10566000000E+00 0.  1.
     999900   -1    0    0    0    0 -0.00000000000E+00 -0.00000000000E+00 -0.74505805969E-08  0.93827000000E+00  0.93827000000E+00 0.  1.
     999902    2    1    2    0    0  0.22328538863E-01 -0.66134254690E-02  0.45902311664E-02  0.10201945567E+01  0.10199184097E+01 0.  0.
     999903    2    3    3    0    0  0.87665543635E-01 -0.98000689729E-01  0.51718992719E-02  0.13305257567E+00  0.19668671051E-01 0.  0.
         14    1    1    2    0    0 -0.22328538863E-01  0.66134254690E-02 -0.45902311664E-02  0.23735443252E-01  0.00000000000E+00 0.  1.
     999901    1    3    3    0    0 -0.65337004772E-01  0.91387264260E-01 -0.58166810553E-03  0.88714198108E+00  0.88000000000E+00 0. -1.
        -11    1    4    4    0    0  0.38001163330E-02 -0.11732459342E-01 -0.20858685101E-02  0.12518125052E-01  0.51100000000E-03 0.  1.
         11    1    4    4    0    0  0.83865427302E-01 -0.86268230386E-01  0.72577677820E-02  0.12053445061E+00  0.51100000000E-03 0. -1.
</event>
<event>
 7    1  0.1649012E+005  0.1043930E+01  0.7957747E-01            NaN
         13   -1    0    0    0    0  0.00000000000E+00  0.00000000000E+00  0.74505805969E-08  0.10566000000E+00  0.10566000000E+00 0. -1.
     999900   -1    0    0    0    0 -0.00000000000E+00 -0.00000000000E+00 -0.74505805969E-08  0.93827000000E+00  0.93827000000E+00 0. -1.
     999903    2    1    2    0    0  0.67371192494E-01  0.10100633539E-01  0.70459481650E-01  0.10012862934E+00  0.20501304424E-01 0.  0.
         14    1    1    2    0    0  0.14536380721E-01  0.67328556117E-02 -0.57555365303E-01  0.59743265598E-01  0.00000000000E+00 0.  1.
     999901    1    1    2    0    0 -0.81907573216E-01 -0.16833489151E-01 -0.12904116347E-01  0.88405810506E+00  0.88000000000E+00 0. -1.
        -11    1    3    3    0    0  0.23908768296E-01 -0.18341916715E-02  0.36578648966E-01  0.43740737782E-01  0.51100000000E-03 0.  1.
         11    1    3    3    0    0  0.43462424198E-01  0.11934825211E-01  0.33880832684E-01  0.56387891558E-01  0.51100000000E-03 0. -1.
</event>
<event>
 8    1  0.1088021E+005  0.1043930E+01  0.7957747E-01            NaN
         13   -1    0    0    0    0  0.00000000000E+00  0.00000000000E+00  0.74505805969E-08  0.10566000000E+00  0.10566000000E+00 0. -1.
     999900   -1    0    0    0    0 -0.00000000000E+00 -0.00000000000E+00 -0.74505805969E-08  0.93827000000E+00  0.93827000000E+00 0. -1.
     999902    2    1    2    0    0  0.20150172462E-01 -0.59453810414E-02  0.10209404151E-01  0.10205717265E+01  0.10203043860E+01 0.  0.
     999903    2    3    3    0    0  0.10619734712E+00 -0.68824786427E-01 -0.35506667850E-01  0.13296376402E+00  0.20097545059E-01 0.  0.
         14    1    1    2    0    0 -0.20150172462E-01  0.59453810414E-02 -0.10209404151E-01  0.23358273461E-01  0.00000000000E+00 0.  1.
     999901    1    3    3    0    0 -0.86047174663E-01  0.62879405385E-01  0.45716072000E-01  0.88760796252E+00  0.88000000000E+00 0.  1.
        -11    1    4    4    0    0  0.66114689231E-01 -0.53722401543E-01 -0.21044000761E-01  0.87751693139E-01  0.51100000000E-03 0.  1.
         11    1    4    4    0    0  0.40082657894E-01 -0.15102384883E-01 -0.14462667088E-01  0.45212070881E-01  0.51100000000E-03 0. -1.
</event>
<event>
 8    1  0.1088021E+005  0.1043930E+01  0.7957747E-01            NaN
         13   -1    0    0    0    0  0.00000000000E+00  0.00000000000E+00  0.74505805969E-08  0.10566000000E+00  0.10566000000E+00 0.  1.
     999900   -1    0    0    0    0 -0.00000000000E+00 -0.00000000000E+00 -0.74505805969E-08  0.93827000000E+00  0.93827000000E+00 0.  1.
     999902    2    1    2    0    0 -0.72862765697E-02  0.16253726103E-01  0.15681682970E-01  0.10201984046E+01  0.10199223481E+01 0.  0.
     999903    2    3    3    0    0  0.22941622761E-01  0.10983886210E+00 -0.64661541749E-01  0.13108258689E+00  0.20264153648E-01 0.  0.
         14    1    1    2    0    0  0.72862765697E-02 -0.16253726103E-01 -0.15681682970E-01  0.23731595379E-01  0.00000000000E+00 0. -1.
     999901    1    3    3    0    0 -0.30227899331E-01 -0.93585135995E-01  0.80343224719E-01  0.88911581773E+00  0.88000000000E+00 0.  1.
        -11    1    4    4    0    0  0.43556153422E-02  0.54011670038E-01 -0.22399853035E-01  0.58636562163E-01  0.51100000000E-03 0.  1.
         11    1    4    4    0    0  0.18586007419E-01  0.55827192060E-01 -0.42261688714E-01  0.72446024729E-01  0.51100000000E-03 0. -1.
</event>
<event>
 8    1  0.1088021E+005  0.1043930E+01  0.7957747E-01            NaN
         13   -1    0    0    0    0  0.00000000000E+00  0.00000000000E+00  0.74505805969E-08  0.10566000000E+00  0.10566000000E+00 0.  1.
     999900   -1    0    0    0    0 -0.00000000000E+00 -0.00000000000E+00 -0.74505805969E-08  0.93827000000E+00  0.93827000000E+00 0. -1.
     999902    2    1    2    0    0  0.14990601272E-01  0.41261658015E-02 -0.22636370239E-01  0.10164682333E+01  0.10160972004E+01 0.  0.
     999903    2    3    3    0    0 -0.47694385801E-01 -0.81305687364E-01  0.78614558683E-01  0.12434729997E+00  0.19915645574E-01 0.  0.
         14    1    1    2    0    0 -0.14990601272E-01 -0.41261658015E-02  0.22636370239E-01  0.27461766664E-01  0.00000000000E+00 0.  1.
     999901    1    3    3    0    0  0.62684987073E-01  0.85431853165E-01 -0.10125092892E+00  0.89212093336E+00  0.88000000000E+00 0. -1.
        -11    1    4    4    0    0 -0.42502291558E-01 -0.57199454751E-01  0.53189983442E-01  0.88925012629E-01  0.51100000000E-03 0. -1.
         11    1    4    4    0    0 -0.51920942437E-02 -0.24106232612E-01  0.25424575241E-01  0.35422287342E-01  0.51100000000E-03 0.  1.
</event>
<event>
 8    1  0.1088021E+005  0.1043930E+01  0.7957747E-01            NaN
         13   -1    0    0    0    0  0.00000000000E+00  0.00000000000E+00  0.74505805969E-08  0.10566000000E+00  0.10566000000E+00 0. -1.
     999900   -1    0    0    0    0 -0.00000000000E+00 -0.00000000000E+00 -0.74505805969E-08  0.93827000000E+00  0.93827000000E+00 0. -1.
     999902    2    1    2    0    0 -0.17944086899E-01 -0.51093835075E-02  0.14200021569E-01  0.10204835362E+01  0.10202141495E+01 0.  0.
     999903    2    3    3    0    0 -0.40389877083E-01 -0.95083434288E-01  0.80659558286E-01  0.13311889107E+00  0.23291053459E-01 0.  0.
         14    1    1    2    0    0  0.17944086899E-01  0.51093835075E-02 -0.14200021569E-01  0.23446463849E-01  0.00000000000E+00 0.  1.
     999901    1    3    3    0    0  0.22445790184E-01  0.89974050781E-01 -0.66459536717E-01  0.88736464508E+00  0.88000000000E+00 0. -1.
        -11    1    4    4    0    0 -0.82521493584E-02 -0.27885023042E-01  0.10887717281E-01  0.31056013712E-01  0.51100000000E-03 0.  1.
         11    1    4    4    0    0 -0.32137727724E-01 -0.67198411246E-01  0.69771841005E-01  0.10206287736E+00  0.51100000000E-03 0. -1.
</event>
<event>
 8    1  0.1088021E+005  0.1043930E+01  0.7957747E-01            NaN
         13   -1    0    0    0    0  0.00000000000E+00  0.00000000000E+00  0.74505805969E-08  0.10566000000E+00  0.10566000000E+00 0.  1.
     999900   -1    0    0    0    0 -0.00000000000E+00 -0.00000000000E+00 -0.74505805969E-08  0.93827000000E+00  0.93827000000E+00 0. -1.
     999902    2    1    2    0    0  0.11358740426E-01 -0.35747097653E-02  0.19874587152E-01  0.10207610823E+01  0.10204981080E+01 0.  0.
     999903    2    3    3    0    0  0.66908508669E-02  0.77317481687E-01 -0.10074303970E+00  0.12884519626E+00  0.20716276001E-01 0.  0.
         14    1    1    2    0    0 -0.11358740426E-01  0.35747097653E-02 -0.19874587152E-01  0.23168917723E-01  0.00000000000E+00 0. -1.
     999901    1    3    3    0    0  0.46678895594E-02 -0.80892191453E-01  0.12061762685E+00  0.89191588602E+00  0.88000000000E+00 0.  1.
        -11    1    4    4    0    0 -0.35846033773E-02  0.23446313820E-01 -0.43628657304E-01  0.49661855305E-01  0.51100000000E-03 0.  1.
         11    1    4    4    0    0  0.10275454244E-01  0.53871167867E-01 -0.57114382391E-01  0.79183340951E-01  0.51100000000E-03 0. -1.
</event>
<event>
 8    1  0.1088021E+005  0.1043930E+01  0.7957747E-01            NaN
         13   -1    0    0    0    0  0.00000000000E+00  0.00000000000E+00  0.74505805969E-08  0.10566000000E+00  0.10566000000E+00 0.  1.
     999900   -1    0    0    0    0 -0.00000000000E+00 -0.00000000000E+00 -0.74505805969E-08  0.93827000000E+00  0.93827000000E+00 0. -1.
     999902    2    1    2    0    0 -0.80238266928E-02  0.20823673530E-01  0.11047977002E-01  0.10190288962E+01  0.10187246077E+01 0.  0.
     999903    2    3    3    0    0 -0.85163649681E-01 -0.19204209281E-01 -0.92317421513E-01  0.12872715562E+00  0.20652491316E-01 0.  0.
         14    1    1    2    0    0  0.80238266928E-02 -0.20823673530E-01 -0.11047977002E-01  0.24901103789E-01  0.00000000000E+00 0.  1.
     999901    1    3    3    0    0  0.77139822988E-01  0.40027882811E-01  0.10336539851E+00  0.89030174059E+00  0.88000000000E+00 0.  1.
        -11    1    4    4    0    0 -0.48656481587E-01 -0.32221100480E-02 -0.40732475465E-01  0.63539207361E-01  0.51100000000E-03 0. -1.
         11    1    4    4    0    0 -0.36507168094E-01 -0.15982099233E-01 -0.51584946048E-01  0.65187948256E-01  0.51100000000E-03 0.  1.
</event>
<event>
 8    1  0.1088021E+005  0.1043930E+01  0.7957747E-01            NaN
         13   -1    0    0    0    0  0.00000000000E+00  0.00000000000E+00  0.74505805969E-08  0.10566000000E+00  0.10566000000E+00 0. -1.
     999900   -1    0    0    0    0 -0.00000000000E+00 -0.00000000000E+00 -0.74505805969E-08  0.93827000000E+00  0.93827000000E+00 0. -1.
     999902    2    1    2    0    0 -0.10296321579E-01 -0.15636463968E-01 -0.14636547149E-01  0.10201657042E+01  0.10198888774E+01 0.  0.
     999903    2    3    3    0    0 -0.51455572457E-01  0.89274334739E-01 -0.78014004662E-01  0.13071808810E+00  0.19581901191E-01 0.  0.
         14    1    1    2    0    0  0.10296321579E-01  0.15636463968E-01  0.14636547149E-01  0.23764295822E-01  0.00000000000E+00 0. -1.
     999901    1    3    3    0    0  0.41159250879E-01 -0.10491079871E+00  0.63377457513E-01  0.88944761607E+00  0.88000000000E+00 0.  1.
        -11    1    4    4    0    0 -0.93973538377E-02  0.34481147198E-01 -0.24391883499E-01  0.43272218257E-01  0.51100000000E-03 0. -1.
         11    1    4    4    0    0 -0.42058218619E-01  0.54793187541E-01 -0.53622121163E-01  0.87445869848E-01  0.51100000000E-03 0.  1.
</event>
<event>
 8    1  0.1088021E+005  0.1043930E+01  0.7957747E-01            NaN
         13   -1    0    0    0    0  0.00000000000E+00  0.00000000000E+00  0.74505805969E-08  0.10566000000E+00  0.10566000000E+00 0.  1.
     999900   -1    0    0    0    0 -0.00000000000E+00 -0.00000000000E+00 -0.74505805969E-08  0.93827000000E+00  0.93827000000E+00 0. -1.
     999902    2    1    2    0    0 -0.85043387849E-02 -0.10121898453E-01 -0.20011663405E-01  0.10199457702E+01  0.10196637342E+01 0.  0.
     999903    2    3    3    0    0  0.52820227984E-01  0.69804654987E-01 -0.95397179189E-01  0.13099586587E+00  0.19915540050E-01 0.  0.
         14    1    1    2    0    0  0.85043387849E-02  0.10121898453E-01  0.20011663405E-01  0.23984229791E-01  0.00000000000E+00 0.  1.
     999901    1    3    3    0    0 -0.61324566769E-01 -0.79926553440E-01  0.75385515784E-01  0.88894990434E+00  0.88000000000E+00 0.  1.
        -11    1    4    4    0    0  0.28546780348E-01  0.42988625950E-01 -0.69237309088E-01  0.86353961808E-01  0.51100000000E-03 0.  1.
         11    1    4    4    0    0  0.24273447637E-01  0.26816029037E-01 -0.26159870101E-01  0.44641904061E-01  0.51100000000E-03 0. -1.
</event>
<event>
 8    1  0.1088021E+005  0.1043930E+01  0.7957747E-01            NaN
         13   -1    0    0    0    0  0.00000000000E+00  0.00000000000E+00  0.74505805969E-08  0.10566000000E+00  0.10566000000E+00 0.  1.
     999900   -1    0    0    0    0 -0.00000000000E+00 -0.00000000000E+00 -0.74505805969E-08  0.93827000000E+00  0.93827000000E+00 0.  1.
     999902    2    1    2    0    0  0.72225887971E-02 -0.55985140384E-02 -0.19624644169E-01  0.10222820022E+01  0.10220527659E+01 0.  0.
     999903    2    3    3    0    0 -0.42846330425E-01  0.88080778730E-01 -0.88102775950E-01  0.13325334066E+00  0.20008049772E-01 0.  0.
         14    1    1    2    0    0 -0.72225887971E-02  0.55985140384E-02  0.19624644169E-01  0.21647997763E-01  0.00000000000E+00 0.  1.
     999901    1    3    3    0    0  0.50068919222E-01 -0.93679292768E-01  0.68478131780E-01  0.88902866157E+00  0.88000000000E+00 0. -1.
        -11    1    4    4    0    0 -0.21644298927E-01  0.46966471647E-01 -0.59625723053E-01  0.78929165114E-01  0.51100000000E-03 0. -1.
         11    1    4    4    0    0 -0.21202031498E-01  0.41114307083E-01 -0.28477052896E-01  0.54324175550E-01  0.51100000000E-03 0.  1.
</event>
<event>
 8    1  0.1088021E+005  0.1043930E+01  0.7957747E-01            NaN
         13   -1    0    0    0    0  0.00000000000E+00  0.00000000000E+00  0.74505805969E-08  0.10566000000E+00  0.10566000000E+00 0. -1.
     999900   -1    0    0    0    0 -0.00000000000E+00 -0.00000000000E+00 -0.74505805969E-08  0.93827000000E+00  0.93827000000E+00 0.  1.
     999902    2    1    2    0    0  0.18619746034E-01  0.13273914431E-01  0.33062763102E-03  0.10210607835E+01  0.10208046447E+01 0.  0.
     999903    2    3    3    0    0 -0.29283015780E-01  0.12219814172E+00 -0.36115649602E-01  0.13230463420E+00  0.20255745646E-01 0.  0.
         14    1    1    2    0    0 -0.18619746034E-01 -0.13273914431E-01 -0.33062763102E-03  0.22869216456E-01  0.00000000000E+00 0. -1.
     999901    1    3    3    0    0  0.47902761814E-01 -0.10892422728E+00  0.36446277233E-01  0.88875614935E+00  0.88000000000E+00 0. -1.
        -11    1    4    4    0    0 -0.20301349302E-01  0.78772913793E-01 -0.13286912354E-01  0.82426451408E-01  0.51100000000E-03 0. -1.
         11    1    4    4    0    0 -0.89816664787E-02  0.43425227923E-01 -0.22828737248E-01  0.49878182788E-01  0.51100000000E-03 0.  1.
</event>
<event>
 8    1  0.1088021E+005  0.1043930E+01  0.7957747E-01            NaN
         13   -1    0    0    0    0  0.00000000000E+00  0.00000000000E+00  0.74505805969E-08  0.10566000000E+00  0.10566000000E+00 0. -1.
     999900   -1    0    0    0    0 -0.00000000000E+00 -0.00000000000E+00 -0.74505805969E-08  0.93827000000E+00  0.93827000000E+00 0.  1.
     999902    2    1    2    0    0  0.13548854881E-01  0.19181455694E-01  0.12877208841E-02  0.10204106901E+01  0.10201396074E+01 0.  0.
     999903    2    3    3    0    0 -0.69312674946E-01  0.39573724821E-01  0.10194034298E+00  0.13057203729E+00  0.16938027979E-01 0.  0.
         14    1    1    2    0    0 -0.13548854881E-01 -0.19181455694E-01 -0.12877208841E-02  0.23519309858E-01  0.00000000000E+00 0.  1.
     999901    1    3    3    0    0  0.82861529827E-01 -0.20392269128E-01 -0.10065262210E+00  0.88983865285E+00  0.88000000000E+00 0.  1.
        -11    1    4    4    0    0 -0.33537689569E-01  0.11271589343E-01  0.52382551164E-01  0.63214065962E-01  0.51100000000E-03 0.  1.
         11    1    4    4    0    0 -0.35774985377E-01  0.28302135478E-01  0.49557791817E-01  0.67357971333E-01  0.51100000000E-03 0. -1.
</event>
<event>
 8    1  0.1088021E+005  0.1043930E+01  0.7957747E-01            NaN
         13   -1    0    0    0    0  0.00000000000E+00  0.00000000000E+00  0.74505805969E-08  0.10566000000E+00  0.10566000000E+00 0.  1.
     999900   -1    0    0    0    0 -0.00000000000E+00 -0.00000000000E+00 -0.74505805969E-08  0.93827000000E+00  0.93827000000E+00 0.  1.
     999902    2    1    2    0    0 -0.27070256663E-01 -0.19621083102E-02 -0.14680034781E-01  0.10130730383E+01  0.10126029966E+01 0.  0.
     999903    2    3    3    0    0  0.90089372990E-01  0.40574515676E-01  0.67064021266E-01  0.12053853817E+00  0.16418580578E-01 0.  0.
         14    1    1    2    0    0  0.27070256663E-01  0.19621083102E-02  0.14680034781E-01  0.30856961710E-01  0.00000000000E+00 0.  1.
     999901    1    3    3    0    0 -0.11715962965E+00 -0.42536623986E-01 -0.81744056047E-01  0.89253450012E+00  0.88000000000E+00 0. -1.
        -11    1    4    4    0    0  0.72577509556E-01  0.25596052406E-01  0.54329288137E-01  0.94205018246E-01  0.51100000000E-03 0. -1.
         11    1    4    4    0    0  0.17511863434E-01  0.14978463270E-01  0.12734733129E-01  0.26333519927E-01  0.51100000000E-03 0.  1.
</event>
<event>
 8    1  0.1088021E+005  0.1043930E+01  0.7957747E-01            NaN
         13   -1    0    0    0    0  0.00000000000E+00  0.00000000000E+00  0.74505805969E-08  0.10566000000E+00  0.10566000000E+00 0.  1.
     999900   -1    0    0    0    0 -0.00000000000E+00 -0.00000000000E+00 -0.74505805969E-08  0.93827000000E+00  0.93827000000E+00 0. -1.
     999902    2    1    2    0    0 -0.26372579001E-02 -0.52018778008E-02  0.23254636707E-01  0.10199551634E+01  0.10196733509E+01 0.  0.
     999903    2    3    3    0    0 -0.58697999705E-01 -0.10675355311E+00 -0.40953579187E-01  0.13002356798E+00  0.19676288011E-01 0.  0.
         14    1    1    2    0    0  0.26372579001E-02  0.52018778008E-02 -0.23254636707E-01  0.23974836605E-01  0.00000000000E+00 0. -1.
     999901    1    3    3    0    0  0.56060741805E-01  0.10155167531E+00  0.64208215894E-01  0.88993159542E+00  0.88000000000E+00 0. -1.
        -11    1    4    4    0    0 -0.22924802060E-01 -0.57280229975E-01 -0.13909304777E-01  0.63247934163E-01  0.51100000000E-03 0. -1.
         11    1    4    4    0    0 -0.35773197645E-01 -0.49473323139E-01 -0.27044274410E-01  0.66775633816E-01  0.51100000000E-03 0.  1.
</event>
<event>
 8    1  0.1088021E+005  0.1043930E+01  0.7957747E-01            NaN
         13   -1    0    0    0    0  0.00000000000E+00  0.00000000000E+00  0.74505805969E-08  0.10566000000E+00  0.10566000000E+00 0. -1.
     999900   -1    0    0    0    0 -0.00000000000E+00 -0.00000000000E+00 -0.74505805969E-08  0.93827000000E+00  0.93827000000E+00 0. -1.
     999902    2    1    2    0    0 -0.19737499029E-01  0.17578969171E-01  0.14987116544E-02  0.10174567085E+01  0.10171122448E+01 0.  0.
     999903    2    3    3    0    0 -0.85107760875E-01  0.72874774702E-01 -0.64662759035E-01  0.13082925720E+00  0.19518155220E-01 0.  0.
         14    1    1    2    0    0  0.19737499029E-01 -0.17578969171E-01 -0.14987116544E-02  0.26473291478E-01  0.00000000000E+00 0. -1.
     999901    1    3    3    0    0  0.65370261845E-01 -0.55295805531E-01  0.66161470690E-01  0.88662745133E+00  0.88000000000E+00 0.  1.
        -11    1    4    4    0    0 -0.59479942227E-01  0.58319750778E-01 -0.40061694622E-01  0.92435152162E-01  0.51100000000E-03 0. -1.
         11    1    4    4    0    0 -0.25627818648E-01  0.14555023924E-01 -0.24601064413E-01  0.38394105033E-01  0.51100000000E-03 0.  1.
</event>
<event>
 7    1  0.1688779E+005  0.1043930E+01  0.7957747E-01            NaN
         13   -1    0    0    0    0  0.00000000000E+00  0.00000000000E+00  0.74505805969E-08  0.10566000000E+00  0.10566000000E+00 0. -1.
     999900   -1    0    0    0    0 -0.00000000000E+00 -0.00000000000E+00 -0.74505805969E-08  0.93827000000E+00  0.93827000000E+00 0.  1.
     999903    2    1    2    0    0 -0.33788419920E-01  0.81487902089E-01  0.16118698585E-01  0.91917432506E-01  0.20175887757E-01 0.  0.
         14    1    1    2    0    0  0.25434680745E-01  0.36922218266E-01 -0.45067434650E-01  0.63570801884E-01  0.00000000000E+00 0.  1.
     999901    1    1    2    0    0  0.83537391752E-02 -0.11841012036E+00  0.28948736065E-01  0.88844176561E+00  0.88000000000E+00 0. -1.
        -11    1    3    3    0    0 -0.30668263766E-01  0.50234078487E-01  0.74336157649E-02  0.59325583083E-01  0.51100000000E-03 0.  1.
         11    1    3    3    0    0 -0.31201561545E-02  0.31253823602E-01  0.86850828197E-02  0.32591849422E-01  0.51100000000E-03 0. -1.
</event>
<event>
 8    1  0.1088021E+005  0.1043930E+01  0.7957747E-01            NaN
         13   -1    0    0    0    0  0.00000000000E+00  0.00000000000E+00  0.74505805969E-08  0.10566000000E+00  0.10566000000E+00 0. -1.
     999900   -1    0    0    0    0 -0.00000000000E+00 -0.00000000000E+00 -0.74505805969E-08  0.93827000000E+00  0.93827000000E+00 0. -1.
     999902    2    1    2    0    0  0.11937211265E-01 -0.18536198065E-01 -0.57499244465E-02  0.10211451523E+01  0.10208909211E+01 0.  0.
     999903    2    3    3    0    0  0.60793376393E-01 -0.11599987264E+00 -0.21286212296E-01  0.13428131332E+00  0.20653406693E-01 0.  0.
         14    1    1    2    0    0 -0.11937211265E-01  0.18536198065E-01  0.57499244465E-02  0.22784847654E-01  0.00000000000E+00 0. -1.
     999901    1    3    3    0    0 -0.48856165128E-01  0.97463674571E-01  0.15536287849E-01  0.88686383903E+00  0.88000000000E+00 0. -1.
        -11    1    4    4    0    0  0.76858491066E-02 -0.13837838848E-01  0.41306207813E-02  0.16367077000E-01  0.51100000000E-03 0.  1.
         11    1    4    4    0    0  0.53107527286E-01 -0.10216203379E+00 -0.25416833077E-01  0.11791423632E+00  0.51100000000E-03 0. -1.
</event>
<event>
 8    1  0.1088021E+005  0.1043930E+01  0.7957747E-01            NaN
         13   -1    0    0    0    0  0.00000000000E+00  0.00000000000E+00  0.74505805969E-08  0.10566000000E+00  0.10566000000E+00 0. -1.
     999900   -1    0    0    0    0 -0.00000000000E+00 -0.00000000000E+00 -0.74505805969E-08  0.93827000000E+00  0.93827000000E+00 0. -1.
     999902    2    1    2    0    0  0.21821040476E-01  0.83043424919E-02  0.39145672494E-02  0.10202563068E+01  0.10199816115E+01 0.  0.
     999903    2    3    3    0    0  0.12307428976E+00  0.18576248154E-01 -0.42659023453E-01  0.13316734179E+00  0.20527806546E-01 0.  0.
         14    1    1    2    0    0 -0.21821040476E-01 -0.83043424919E-02 -0.39145672494E-02  0.23673693172E-01  0.00000000000E+00 0. -1.
     999901    1    3    3    0    0 -0.10125324929E+00 -0.10271905662E-01  0.46573590702E-01  0.88708896504E+00  0.88000000000E+00 0.  1.
        -11    1    4    4    0    0  0.63035440454E-01 -0.38597538928E-03 -0.18130673578E-01  0.65594193154E-01  0.51100000000E-03 0. -1.
         11    1    4    4    0    0  0.60038849310E-01  0.18962223543E-01 -0.24528349875E-01  0.67573148638E-01  0.51100000000E-03 0.  1.
</event>
<event>
 8    1  0.1088021E+005  0.1043930E+01  0.7957747E-01            NaN
         13   -1    0    0    0    0  0.00000000000E+00  0.00000000000E+00  0.74505805969E-08  0.10566000000E+00  0.10566000000E+00 0.  1.
     999900   -1    0    0    0    0 -0.00000000000E+00 -0.00000000000E+00 -0.74505805969E-08  0.93827000000E+00  0.93827000000E+00 0. -1.
     999902    2    1    2    0    0  0.17441044094E-01  0.27698199632E-02  0.18940124853E-01  0.10180342426E+01  0.10177048339E+01 0.  0.
     999903    2    3    3    0    0 -0.25937599003E-02 -0.33100288866E-02  0.12918722010E+00  0.13090810730E+00  0.20734291354E-01 0.  0.
         14    1    1    2    0    0 -0.17441044094E-01 -0.27698199632E-02 -0.18940124853E-01  0.25895757397E-01  0.00000000000E+00 0. -1.
     999901    1    3    3    0    0  0.20034803994E-01  0.60798488498E-02 -0.11024709524E+00  0.88712613531E+00  0.88000000000E+00 0. -1.
        -11    1    4    4    0    0 -0.80359629011E-02 -0.66237019351E-02  0.35405961396E-01  0.36909258330E-01  0.51100000000E-03 0.  1.
         11    1    4    4    0    0  0.54422030008E-02  0.33136730485E-02  0.93781258701E-01  0.93998848967E-01  0.51100000000E-03 0. -1.
</event>
<event>
 8    1  0.1088021E+005  0.1043930E+01  0.7957747E-01            NaN
         13   -1    0    0    0    0  0.00000000000E+00  0.00000000000E+00  0.74505805969E-08  0.10566000000E+00  0.10566000000E+00 0. -1.
     999900   -1    0    0    0    0 -0.00000000000E+00 -0.00000000000E+00 -0.74505805969E-08  0.93827000000E+00  0.93827000000E+00 0.  1.
     999902    2    1    2    0    0  0.67985497854E-02  0.28939319953E-02  0.21562241081E-01  0.10211369010E+01  0.10208824836E+01 0.  0.
     999903    2    3    3    0    0  0.24535653588E-01  0.50597574054E-01 -0.11473832193E+00  0.12919066619E+00  0.19058670291E-01 0.  0.
         14    1    1    2    0    0 -0.67985497854E-02 -0.28939319953E-02 -0.21562241081E-01  0.22793098999E-01  0.00000000000E+00 0.  1.
     999901    1    3    3    0    0 -0.17737103802E-01 -0.47703642058E-01  0.13630056301E+00  0.89194623481E+00  0.88000000000E+00 0. -1.
        -11    1    4    4    0    0  0.58963785788E-02  0.14068983409E-01 -0.52346602109E-01  0.54526428893E-01  0.51100000000E-03 0.  1.
         11    1    4    4    0    0  0.18639275009E-01  0.36528590644E-01 -0.62391719824E-01  0.74664237296E-01  0.51100000000E-03 0. -1.
</event>
<event>
 8    1  0.1088021E+005  0.1043930E+01  0.7957747E-01            NaN
         13   -1    0    0    0    0  0.00000000000E+00  0.00000000000E+00  0.74505805969E-08  0.10566000000E+00  0.10566000000E+00 0.  1.
     999900   -1    0    0    0    0 -0.00000000000E+00 -0.00000000000E+00 -0.74505805969E-08  0.93827000000E+00  0.93827000000E+00 0.  1.
     999902    2    1    2    0    0  0.36874802651E-02  0.16807710855E-01  0.17476104912E-01  0.10194042809E+01  0.10191092076E+01 0.  0.
     999903    2    3    3    0    0 -0.70380252155E-01  0.10622532495E+00  0.27090387244E-01  0.13172530000E+00  0.19505538283E-01 0.  0.
         14    1    1    2    0    0 -0.36874802651E-02 -0.16807710855E-01 -0.17476104912E-01  0.24525719108E-01  0.00000000000E+00 0. -1.
     999901    1    3    3    0    0  0.74067732420E-01 -0.89417614098E-01 -0.96142823319E-02  0.88767898089E+00  0.88000000000E+00 0. -1.
        -11    1    4    4    0    0 -0.35901294837E-01  0.54181736841E-01  0.23762051168E-01  0.69205922974E-01  0.51100000000E-03 0. -1.
         11    1    4    4    0    0 -0.34478957317E-01  0.52043588113E-01  0.33283360759E-02  0.62519377023E-01  0.51100000000E-03 0.  1.
</event>
<event>
 8    1  0.1088021E+005  0.1043930E+01  0.7957747E-01            NaN
         13   -1    0    0    0    0  0.00000000000E+00  0.00000000000E+00  0.74505805969E-08  0.10566000000E+00  0.10566000000E+00 0. -1.
     999900   -1    0    0    0    0 -0.00000000000E+00 -0.00000000000E+00 -0.74505805969E-08  0.93827000000E+00  0.93827000000E+00 0. -1.
     999902    2    1    2    0    0 -0.74572438910E-02 -0.16033692952E-01 -0.18394614083E-01  0.10184142867E+01  0.10180945967E+01 0.  0.
     999903    2    3    3    0    0 -0.12145867602E+00 -0.41564975734E-01  0.51003368535E-02  0.13038265124E+00  0.22220826259E-01 0.  0.
         14    1    1    2    0    0  0.74572438910E-02  0.16033692952E-01  0.18394614083E-01  0.25515713265E-01  0.00000000000E+00 0. -1.
     999901    1    3    3    0    0  0.11400143213E+00  0.25531282782E-01 -0.23494950937E-01  0.88803163550E+00  0.88000000000E+00 0.  1.
        -11    1    4    4    0    0 -0.68785533808E-01 -0.22865614907E-01  0.13868227345E-01  0.73802946127E-01  0.51100000000E-03 0. -1.
         11    1    4    4    0    0 -0.52673142210E-01 -0.18699360827E-01 -0.87678904913E-02  0.56579705110E-01  0.51100000000E-03 0.  1.
</event>
<event>
 8    1  0.1088021E+005  0.1043930E+01  0.7957747E-01            NaN
         13   -1    0    0    0    0  0.00000000000E+00  0.00000000000E+00  0.74505805969E-08  0.10566000000E+00  0.10566000000E+00 0. -1.
     999900   -1    0    0    0    0 -0.00000000000E+00 -0.00000000000E+00 -0.74505805969E-08  0.93827000000E+00  0.93827000000E+00 0.  1.
     999902    2    1    2    0    0 -0.11719748270E-01 -0.23320110664E-02  0.26699130364E-01  0.10146787720E+01  0.10142570562E+01 0.  0.
     999903    2    3    3    0    0 -0.93166228771E-01 -0.69933979540E-01  0.49035242368E-01  0.12805458038E+00  0.20562414387E-01 0.  0.
         14    1    1    2    0    0  0.11719748270E-01  0.23320110664E-02 -0.26699130364E-01  0.29251227963E-01  0.00000000000E+00 0.  1.
     999901    1    3    3    0    0  0.81446480501E-01  0.67601968473E-01 -0.22336112004E-01  0.88662419165E+00  0.88000000000E+00 0.  1.
        -11    1    4    4    0    0 -0.87389235879E-01 -0.70681318745E-01  0.47401347761E-01  0.12198309825E+00  0.51100000000E-03 0. -1.
         11    1    4    4    0    0 -0.57769928916E-02  0.74733920564E-03  0.16338946070E-02  0.60714821374E-02  0.51100000000E-03 0.  1.
</event>
<event>
 8    1  0.1088021E+005  0.1043930E+01  0.7957747E-01            NaN
         13   -1    0    0    0    0  0.00000000000E+00  0.00000000000E+00  0.74505805969E-08  0.10566000000E+00  0.10566000000E+00 0.  1.
     999900   -1    0    0    0    0 -0.00000000000E+00 -0.00000000000E+00 -0.74505805969E-08  0.93827000000E+00  0.93827000000E+00 0. -1.
     999902    2    1    2    0    0 -0.16346832581E-02  0.23607123258E-01  0.26171118772E-02  0.10201220658E+01  0.10198442093E+01 0.  0.
     999903    2    3    3    0    0 -0.87288243775E-01  0.95979633781E-01 -0.19557316368E-01  0.13272924521E+00  0.20080744715E-01 0.  0.
         14    1    1    2    0    0  0.16346832581E-02 -0.23607123258E-01 -0.26171118772E-02  0.23807934233E-01  0.00000000000E+00 0. -1.
     999901    1    3    3    0    0  0.85653560517E-01 -0.72372510523E-01  0.22174428245E-01  0.88739282056E+00  0.88000000000E+00 0. -1.
        -11    1    4    4    0    0 -0.63459917443E-01  0.80560893427E-01 -0.11354475236E-01  0.10318141257E+00  0.51100000000E-03 0.  1.
         11    1    4    4    0    0 -0.23828326332E-01  0.15418740354E-01 -0.82028411325E-02  0.29547832637E-01  0.51100000000E-03 0. -1.
</event>
<event>
 8    1  0.1088021E+005  0.1043930E+01  0.7957747E-01            NaN
         13   -1    0    0    0    0  0.00000000000E+00  0.00000000000E+00  0.74505805969E-08  0.10566000000E+00  0.10566000000E+00 0.  1.
     999900   -1    0    0    0    0 -0.00000000000E+00 -0.00000000000E+00 -0.74505805969E-08  0.93827000000E+00  0.93827000000E+00 0.  1.
     999902    2    1    2    0    0 -0.10984962536E-01 -0.11596301740E-01  0.18106124098E-01  0.10197851176E+01  0.10194992451E+01 0.  0.
     999903    2    3    3    0    0 -0.11511915485E+00  0.30354693345E-01  0.53208989341E-01  0.13195854268E+00  0.20199832132E-01 0.  0.
         14    1    1    2    0    0  0.10984962536E-01  0.11596301740E-01 -0.18106124098E-01  0.24144882394E-01  0.00000000000E+00 0. -1.
     999901    1    3    3    0    0  0.10413419231E+00 -0.41950995085E-01 -0.35102865243E-01  0.88782657493E+00  0.88000000000E+00 0. -1.
        -11    1    4    4    0    0 -0.71388472330E-01  0.28450715276E-01  0.36823569535E-01  0.85217331427E-01  0.51100000000E-03 0.  1.
         11    1    4    4    0    0 -0.43730682519E-01  0.19039780683E-02  0.16385419806E-01  0.46741211252E-01  0.51100000000E-03 0. -1.
</event>
<event>
 8    1  0.1088021E+005  0.1043930E+01  0.7957747E-01            NaN
         13   -1    0    0    0    0  0.00000000000E+00  0.00000000000E+00  0.74505805969E-08  0.10566000000E+00  0.10566000000E+00 0.  1.
     999900   -1    0    0    0    0 -0.00000000000E+00 -0.00000000000E+00 -0.74505805969E-08  0.93827000000E+00  0.93827000000E+00 0. -1.
     999902    2    1    2    0    0 -0.17007730636E-01  0.28101494932E-01  0.55157162094E-03  0.10110778897E+01  0.10105440307E+01 0.  0.
     999903    2    3    3    0    0 -0.41319236011E-01  0.69552098429E-01 -0.92943639840E-01  0.12482140518E+00  0.19927100717E-01 0.  0.
         14    1    1    2    0    0  0.17007730636E-01 -0.28101494932E-01 -0.55157162094E-03  0.32852110284E-01  0.00000000000E+00 0.  1.
     999901    1    3    3    0    0  0.24311505375E-01 -0.41450603497E-01  0.93495211461E-01  0.88625648454E+00  0.88000000000E+00 0.  1.
        -11    1    4    4    0    0 -0.26298030214E-01  0.27948284342E-01 -0.51304966938E-01  0.64071473717E-01  0.51100000000E-03 0. -1.
         11    1    4    4    0    0 -0.15021205797E-01  0.41603814087E-01 -0.41638672902E-01  0.60749931459E-01  0.51100000000E-03 0.  1.
</event>
<event>
 8    1  0.1088021E+005  0.1043930E+01  0.7957747E-01            NaN
         13   -1    0    0    0    0  0.00000000000E+00  0.00000000000E+00  0.74505805969E-08  0.10566000000E+00  0.10566000000E+00 0.  1.
     999900   -1    0    0    0    0 -0.00000000000E+00 -0.00000000000E+00 -0.74505805969E-08  0.93827000000E+00  0.93827000000E+00 0.  1.
     999902    2    1    2    0    0 -0.86124923286E-02 -0.18267177417E-01  0.10450153403E-01  0.10211908157E+01  0.10209376140E+01 0.  0.
     999903    2    3    3    0    0 -0.11188023585E+00  0.90641249902E-02  0.68254301986E-01  0.13284823174E+00  0.19765055054E-01 0.  0.
         14    1    1    2    0    0  0.86124923286E-02  0.18267177417E-01 -0.10450153403E-01  0.22739184265E-01  0.00000000000E+00 0. -1.
     999901    1    3    3    0    0  0.10326774352E+00 -0.27331302407E-01 -0.57804148583E-01  0.88834258399E+00  0.88000000000E+00 0.  1.
        -11    1    4    4    0    0 -0.10036411977E+00  0.13938045889E-01  0.58705467636E-01  0.11710601484E+00  0.51100000000E-03 0.  1.
         11    1    4    4    0    0 -0.11516116080E-01 -0.48739208984E-02  0.95488343503E-02  0.15742216901E-01  0.51100000000E-03 0. -1.
</event>
<event>
 8    1  0.1088021E+005  0.1043930E+01  0.7957747E-01            NaN
         13   -1    0    0    0    0  0.00000000000E+00  0.00000000000E+00  0.74505805969E-08  0.10566000000E+00  0.10566000000E+00 0.  1.
     999900   -1    0    0    0    0 -0.00000000000E+00 -0.00000000000E+00 -0.74505805969E-08  0.93827000000E+00  0.93827000000E+00 0. -1.
     999902    2    1    2    0    0 -0.94903016844E-02  0.18225800563E-01 -0.79251782766E-02  0.10219060566E+01  0.10216687009E+01 0.  0.
     999903    2    3    3    0    0 -0.10719194870E+00 -0.53115052557E-01  0.51229759336E-01  0.13166202500E+00  0.19976934483E-01 0.  0.
         14    1    1    2    0    0  0.94903016844E-02 -0.18225800563E-01  0.79251782766E-02  0.22023943401E-01  0.00000000000E+00 0. -1.
     999901    1    3    3    0    0  0.97701647015E-01  0.71340853120E-01 -0.59154937612E-01  0.89024403160E+00  0.88000000000E+00 0. -1.
        -11    1    4    4    0    0 -0.38656259227E-01 -0.30072297944E-01  0.20830262058E-01  0.53224152595E-01  0.51100000000E-03 0. -1.
         11    1    4    4    0    0 -0.68535689473E-01 -0.23042754612E-01  0.30399497278E-01  0.78437872405E-01  0.51100000000E-03 0.  1.
</event>
<event>
 8    1  0.1088021E+005  0.1043930E+01  0.7957747E-01            NaN
         13   -1    0    0    0    0  0.00000000000E+00  0.00000000000E+00  0.74505805969E-08  0.10566000000E+00  0.10566000000E+00 0.  1.
     999900   -1    0    0    0    0 -0.00000000000E+00 -0.00000000000E+00 -0.74505805969E-08  0.93827000000E+00  0.93827000000E+00 0.  1.
     999902    2    1    2    0    0 -0.16291005995E-01  0.14104232952E-01 -0.86619583300E-02  0.10207059653E+01  0.10204417239E+01 0.  0.
     999903    2    3    3    0    0 -0.10272955087E-01  0.13018604334E+00 -0.16118040461E-01  0.13303102664E+00  0.19583751813E-01 0.  0.
         14    1    1    2    0    0  0.16291005995E-01 -0.14104232952E-01  0.86619583300E-02  0.23224034653E-01  0.00000000000E+00 0.  1.
     999901    1    3    3    0    0 -0.60180509073E-02 -0.11608181039E+00  0.74560821311E-02  0.88767493870E+00  0.88000000000E+00 0.  1.
        -11    1    4    4    0    0 -0.13105605180E-02  0.28307049290E-01 -0.11699786204E-01  0.30661910029E-01  0.51100000000E-03 0. -1.
         11    1    4    4    0    0 -0.89623945693E-02  0.10187899405E+00 -0.44182542567E-02  0.10236911662E+00  0.51100000000E-03 0.  1.
</event>
<event>
 8    1  0.1088021E+005  0.1043930E+01  0.7957747E-01            NaN
         13   -1    0    0    0    0  0.00000000000E+00  0.00000000000E+00  0.74505805969E-08  0.10566000000E+00  0.10566000000E+00 0.  1.
     999900   -1    0    0    0    0 -0.00000000000E+00 -0.00000000000E+00 -0.74505805969E-08  0.93827000000E+00  0.93827000000E+00 0.  1.
     999902    2    1    2    0    0  0.18244528433E-01 -0.14354760055E-01 -0.44597035841E-02  0.10202908183E+01  0.10200169327E+01 0.  0.
     999903    2    3    3    0    0  0.20373878743E-02  0.57154705311E-01 -0.11675913446E+00  0.13012935139E+00  0.54901116402E-02 0.  0.
         14    1    1    2    0    0 -0.18244528433E-01  0.14354760055E-01  0.44597035841E-02  0.23639181670E-01  0.00000000000E+00 0.  1.
     999901    1    3    3    0    0  0.16207140558E-01 -0.71509465366E-01  0.11229943088E+00  0.89016146694E+00  0.88000000000E+00 0.  1.
        -11    1    4    4    0    0  0.24759142760E-04  0.20834250340E-01 -0.48297315090E-01  0.52601885576E-01  0.51100000000E-03 0.  1.
         11    1    4    4    0    0  0.20126287315E-02  0.36320454971E-01 -0.68461819371E-01  0.77527465819E-01  0.51100000000E-03 0. -1.
</event>
<event>
 8    1  0.1088021E+005  0.1043930E+01  0.7957747E-01            NaN
         13   -1    0    0    0    0  0.00000000000E+00  0.00000000000E+00  0.74505805969E-08  0.10566000000E+00  0.10566000000E+00 0.  1.
     999900   -1    0    0    0    0 -0.00000000000E+00 -0.00000000000E+00 -0.74505805969E-08  0.93827000000E+00  0.93827000000E+00 0. -1.
     999902    2    1    2    0    0  0.20041354881E-01  0.91453028610E-02  0.41014803896E-02  0.10215220860E+01  0.10212762885E+01 0.  0.
     999903    2    3    3    0    0  0.69993445899E-01  0.10822235937E+00 -0.30260528326E-01  0.13388915386E+00  0.19986105426E-01 0.  0.
         14    1    1    2    0    0 -0.20041354881E-01 -0.91453028610E-02 -0.41014803896E-02  0.22407914032E-01  0.00000000000E+00 0.  1.
     999901    1    3    3    0    0 -0.49952091018E-01 -0.99077056508E-01  0.34362008716E-01  0.88763293211E+00  0.88000000000E+00 0.  1.
        -11    1    4    4    0    0  0.12098753542E-01  0.34462588931E-01 -0.58337805790E-02  0.36991133937E-01  0.51100000000E-03 0.  1.
         11    1    4    4    0    0  0.57894692357E-01  0.73759770438E-01 -0.24426747747E-01  0.96898019921E-01  0.51100000000E-03 0. -1.
</event>
<event>
 8    1  0.1088021E+005  0.1043930E+01  0.7957747E-01            NaN
         13   -1    0    0    0    0  0.00000000000E+00  0.00000000000E+00  0.74505805969E-08  0.10566000000E+00  0.10566000000E+00 0. -1.
     999900   -1    0    0    0    0 -0.00000000000E+00 -0.00000000000E+00 -0.74505805969E-08  0.93827000000E+00  0.93827000000E+00 0. -1.
     999902    2    1    2    0    0 -0.56900066546E-02 -0.77353041131E-02 -0.22382607292E-01  0.10195744623E+01  0.10192835190E+01 0.  0.
     999903    2    3    3    0    0 -0.62557332243E-01  0.11151449277E+00 -0.70542124274E-02  0.12958043626E+00  0.19809735833E-01 0.  0.
         14    1    1    2    0    0  0.56900066546E-02  0.77353041131E-02  0.22382607292E-01  0.24355537658E-01  0.00000000000E+00 0. -1.
     999901    1    3    3    0    0  0.56867325588E-01 -0.11924979688E+00 -0.15328394864E-01  0.88999402608E+00  0.88000000000E+00 0. -1.
        -11    1    4    4    0    0 -0.72344144238E-02  0.25466377236E-01  0.36217739182E-02  0.26725483885E-01  0.51100000000E-03 0. -1.
         11    1    4    4    0    0 -0.55322917819E-01  0.86048115530E-01 -0.10675986346E-01  0.10285495237E+00  0.51100000000E-03 0.  1.
</event>
<event>
 8    1  0.1098469E+005  0.1043930E+01  0.7957747E-01            NaN
         13   -1    0    0    0    0  0.00000000000E+00  0.00000000000E+00  0.74505805969E-08  0.10566000000E+00  0.10566000000E+00 0.  1.
     999900   -1    0    0    0    0 -0.00000000000E+00 -0.00000000000E+00 -0.74505805969E-08  0.93827000000E+00  0.93827000000E+00 0.  1.
     999902    2    1    2    0    0  0.17650302456E-01  0.12111393401E-01  0.10378234161E-01  0.10201407846E+01  0.10198633700E+01 0.  0.
     999903    2    3    3    0    0  0.69357351324E-01  0.49055477945E-01 -0.97059726846E-01  0.13133180635E+00  0.24709728537E-01 0.  0.
         14    1    1    2    0    0 -0.17650302456E-01 -0.12111393401E-01 -0.10378234161E-01  0.23789215439E-01  0.00000000000E+00 0.  1.
     999901    1    3    3    0    0 -0.51707048867E-01 -0.36944084545E-01  0.10743796101E+00  0.88880897821E+00  0.88000000000E+00 0.  1.
        -11    1    4    4    0    0  0.45410964213E-01  0.17722137694E-01 -0.58850035767E-01  0.76418699714E-01  0.51100000000E-03 0.  1.
         11    1    4    4    0    0  0.23946387111E-01  0.31333340251E-01 -0.38209691079E-01  0.54913106635E-01  0.51100000000E-03 0. -1.
</event>
<event>
 8    1  0.1088021E+005  0.1043930E+01  0.7957747E-01            NaN
         13   -1    0    0    0    0  0.00000000000E+00  0.00000000000E+00  0.74505805969E-08  0.10566000000E+00  0.10566000000E+00 0.  1.
     999900   -1    0    0    0    0 -0.00000000000E+00 -0.00000000000E+00 -0.74505805969E-08  0.93827000000E+00  0.93827000000E+00 0.  1.
     999902    2    1    2    0    0 -0.51341055983E-02  0.69713900228E-02  0.21795430167E-01  0.10204779192E+01  0.10202084020E+01 0.  0.
     999903    2    3    3    0    0  0.74578896054E-01  0.98527255225E-01 -0.36110990148E-01  0.13025896150E+00  0.19843429189E-01 0.  0.
         14    1    1    2    0    0  0.51341055983E-02 -0.69713900228E-02 -0.21795430167E-01  0.23452080831E-01  0.00000000000E+00 0.  1.
     999901    1    3    3    0    0 -0.79713001652E-01 -0.91555865202E-01  0.57906420315E-01  0.89021895767E+00  0.88000000000E+00 0. -1.
        -11    1    4    4    0    0  0.46555802562E-01  0.73631909793E-01 -0.30776834129E-01  0.92393590319E-01  0.51100000000E-03 0.  1.
         11    1    4    4    0    0  0.28023093492E-01  0.24895345432E-01 -0.53341560191E-02  0.37865371178E-01  0.51100000000E-03 0. -1.
</event>
<event>
 8    1  0.1088021E+005  0.1043930E+01  0.7957747E-01            NaN
         13   -1    0    0    0    0  0.00000000000E+00  0.00000000000E+00  0.74505805969E-08  0.10566000000E+00  0.10566000000E+00 0.  1.
     999900   -1    0    0    0    0 -0.00000000000E+00 -0.00000000000E+00 -0.74505805969E-08  0.93827000000E+00  0.93827000000E+00 0.  1.
     999902    2    1    2    0    0  0.14284639634E-02 -0.61179310165E-02 -0.21316069374E-01  0.10217073898E+01  0.10214656852E+01 0.  0.
     999903    2    3    3    0    0 -0.17454084908E-01 -0.67048125512E-01 -0.11342030581E+00  0.13460410970E+00  0.21307378134E-01 0.  0.
         14    1    1    2    0    0 -0.14284639634E-02  0.61179310165E-02  0.21316069374E-01  0.22222610170E-01  0.00000000000E+00 0.  1.
     999901    1    3    3    0    0  0.18882548871E-01  0.60930194495E-01  0.92104236435E-01  0.88710328013E+00  0.88000000000E+00 0. -1.
        -11    1    4    4    0    0 -0.11058569499E-01 -0.99203819415E-02 -0.26725601851E-01  0.30581446214E-01  0.51100000000E-03 0.  1.
         11    1    4    4    0    0 -0.63955154080E-02 -0.57127743570E-01 -0.86694703958E-01  0.10402266348E+00  0.51100000000E-03 0. -1.
</event>
<event>
 8    1  0.1088021E+005  0.1043930E+01  0.7957747E-01            NaN
         13   -1    0    0    0    0  0.00000000000E+00  0.00000000000E+00  0.74505805969E-08  0.10566000000E+00  0.10566000000E+00 0.  1.
     999900   -1    0    0    0    0 -0.00000000000E+00 -0.00000000000E+00 -0.74505805969E-08  0.93827000000E+00  0.93827000000E+00 0. -1.
     999902    2    1    2    0    0  0.95704426637E-02  0.21136739557E-01  0.50852157583E-02  0.10201767991E+01  0.10199002338E+01 0.  0.
     999903    2    3    3    0    0 -0.63863137838E-01 -0.10052834669E+00  0.42710501170E-01  0.12798256801E+00  0.19258814611E-01 0.  0.
         14    1    1    2    0    0 -0.95704426637E-02 -0.21136739557E-01 -0.50852157583E-02  0.23753200862E-01  0.00000000000E+00 0. -1.
     999901    1    3    3    0    0  0.73433580502E-01  0.12166508625E+00 -0.37625285412E-01  0.89219423113E+00  0.88000000000E+00 0. -1.
        -11    1    4    4    0    0 -0.19214486530E-01 -0.27499565159E-01  0.21321991329E-01  0.39753125811E-01  0.51100000000E-03 0. -1.
         11    1    4    4    0    0 -0.44648651309E-01 -0.73028781536E-01  0.21388509841E-01  0.88229442198E-01  0.51100000000E-03 0.  1.
</event>
<event>
 8    1  0.1088021E+005  0.1043930E+01  0.7957747E-01            NaN
         13   -1    0    0    0    0  0.00000000000E+00  0.00000000000E+00  0.74505805969E-08  0.10566000000E+00  0.10566000000E+00 0. -1.
     999900   -1    0    0    0    0 -0.00000000000E+00 -0.00000000000E+00 -0.74505805969E-08  0.93827000000E+00  0.93827000000E+00 0.  1.
     999902    2    1    2    0    0  0.24792657837E-02 -0.34623347672E-02  0.23233989175E-01  0.10203089760E+01  0.10200355159E+01 0.  0.
     999903    2    3    3    0    0  0.19021812133E-01  0.10212839063E+00 -0.73300300243E-01  0.12860166633E+00  0.19324002082E-01 0.  0.
         14    1    1    2    0    0 -0.24792657837E-02  0.34623347672E-02 -0.23233989175E-01  0.23621023979E-01  0.00000000000E+00 0.  1.
     999901    1    3    3    0    0 -0.16542546349E-01 -0.10559072540E+00  0.96534289418E-01  0.89170730969E+00  0.88000000000E+00 0. -1.
        -11    1    4    4    0    0  0.19097489639E-01  0.80065423175E-01 -0.49079433748E-01  0.95834430330E-01  0.51100000000E-03 0. -1.
         11    1    4    4    0    0 -0.75677506266E-04  0.22062967456E-01 -0.24220866495E-01  0.32767235996E-01  0.51100000000E-03 0.  1.
</event>
<event>
 8    1  0.1088021E+005  0.1043930E+01  0.7957747E-01            NaN
         13   -1    0    0    0    0  0.00000000000E+00  0.00000000000E+00  0.74505805969E-08  0.10566000000E+00  0.10566000000E+00 0. -1.
     999900   -1    0    0    0    0 -0.00000000000E+00 -0.00000000000E+00 -0.74505805969E-08  0.93827000000E+00  0.93827000000E+00 0. -1.
     999902    2    1    2    0    0  0.26949952175E-02  0.10311828303E-01 -0.21884567349E-01  0.10195880385E+01  0.10192974233E+01 0.  0.
     999903    2    3    3    0    0  0.12715484030E-01  0.12186163752E+00  0.39441911496E-01  0.13037225639E+00  0.20720005316E-01 0.  0.
         14    1    1    2    0    0 -0.26949952175E-02 -0.10311828303E-01  0.21884567349E-01  0.24341961511E-01  0.00000000000E+00 0. -1.
     999901    1    3    3    0    0 -0.10020488813E-01 -0.11154980921E+00 -0.61326478844E-01  0.88921578210E+00  0.88000000000E+00 0. -1.
        -11    1    4    4    0    0  0.13894839810E-01  0.42911071261E-01  0.17863011974E-01  0.48515718359E-01  0.51100000000E-03 0. -1.
         11    1    4    4    0    0 -0.11793557795E-02  0.78950566256E-01  0.21578899521E-01  0.81856538027E-01  0.51100000000E-03 0.  1.
</event>
<event>
 8    1  0.1088021E+005  0.1043930E+01  0.7957747E-01            NaN
         13   -1    0    0    0    0  0.00000000000E+00  0.00000000000E+00  0.74505805969E-08  0.10566000000E+00  0.10566000000E+00 0. -1.
     999900   -1    0    0    0    0 -0.00000000000E+00 -0.00000000000E+00 -0.74505805969E-08  0.93827000000E+00  0.93827000000E+00 0. -1.
     999902    2    1    2    0    0  0.74052267611E-02  0.18327283922E-01 -0.99871002313E-02  0.10217834678E+01  0.10215434333E+01 0.  0.
     999903    2    3    3    0    0  0.12288739453E-01  0.99800889803E-02  0.12831360181E+00  0.13092960289E+00  0.20677650063E-01 0.  0.
         14    1    1    2    0    0 -0.74052267611E-02 -0.18327283922E-01  0.99871002313E-02  0.22146532243E-01  0.00000000000E+00 0. -1.
     999901    1    3    3    0    0 -0.48835126915E-02  0.83471949421E-02 -0.13830070204E+00  0.89085386486E+00  0.88000000000E+00 0. -1.
        -11    1    4    4    0    0 -0.59531290600E-03  0.12135944537E-01  0.45814513423E-01  0.47401121384E-01  0.51100000000E-03 0.  1.
         11    1    4    4    0    0  0.12884052359E-01 -0.21558555564E-02  0.82499088382E-01  0.83528481509E-01  0.51100000000E-03 0. -1.
</event>
<event>
 8    1  0.1088021E+005  0.1043930E+01  0.7957747E-01            NaN
         13   -1    0    0    0    0  0.00000000000E+00  0.00000000000E+00  0.74505805969E-08  0.10566000000E+00  0.10566000000E+00 0.  1.
     999900   -1    0    0    0    0 -0.00000000000E+00 -0.00000000000E+00 -0.74505805969E-08  0.93827000000E+00  0.93827000000E+00 0.  1.
     999902    2    1    2    0    0  0.10041622087E-01  0.15233923319E-01  0.15149347416E-01  0.10202148293E+01  0.10199391593E+01 0.  0.
     999903    2    3    3    0    0 -0.40480368837E-01  0.10247546072E+00  0.71621510021E-01  0.13266051403E+00  0.18146376327E-01 0.  0.
         14    1    1    2    0    0 -0.10041622087E-01 -0.15233923319E-01 -0.15149347416E-01  0.23715170692E-01  0.00000000000E+00 0. -1.
     999901    1    3    3    0    0  0.50521990923E-01 -0.87241537405E-01 -0.56472162605E-01  0.88755431528E+00  0.88000000000E+00 0.  1.
        -11    1    4    4    0    0 -0.30080158215E-01  0.60980602631E-01  0.51957885580E-01  0.85576473463E-01  0.51100000000E-03 0. -1.
         11    1    4    4    0    0 -0.10400210622E-01  0.41494858093E-01  0.19663624441E-01  0.47084040569E-01  0.51100000000E-03 0.  1.
</event>
<event>
 8    1  0.1088021E+005  0.1043930E+01  0.7957747E-01            NaN
         13   -1    0    0    0    0  0.00000000000E+00  0.00000000000E+00  0.74505805969E-08  0.10566000000E+00  0.10566000000E+00 0. -1.
     999900   -1    0    0    0    0 -0.00000000000E+00 -0.00000000000E+00 -0.74505805969E-08  0.93827000000E+00  0.93827000000E+00 0.  1.
     999902    2    1    2    0    0 -0.29953525088E-03  0.38185020058E-03  0.23582574487E-01  0.10203424323E+01  0.10200697554E+01 0.  0.
     999903    2    3    3    0    0 -0.85879579353E-01 -0.33842803494E-01  0.93390375938E-01  0.13277925144E+00  0.19695933483E-01 0.  0.
         14    1    1    2    0    0  0.29953525088E-03 -0.38185020058E-03 -0.23582574487E-01  0.23587567708E-01  0.00000000000E+00 0.  1.
     999901    1    3    3    0    0  0.85580044102E-01  0.34224653694E-01 -0.69807801451E-01  0.88756318086E+00  0.88000000000E+00 0.  1.
        -11    1    4    4    0    0 -0.65247198410E-01 -0.22127666590E-01  0.57438740796E-01  0.89701173874E-01  0.51100000000E-03 0.  1.
         11    1    4    4    0    0 -0.20632380943E-01 -0.11715136904E-01  0.35951635142E-01  0.43078077562E-01  0.51100000000E-03 0. -1.
</event>
<event>
 8    1  0.1088021E+005  0.1043930E+01  0.7957747E-01            NaN
         13   -1    0    0    0    0  0.00000000000E+00  0.00000000000E+00  0.74505805969E-08  0.10566000000E+00  0.10566000000E+00 0.  1.
     999900   -1    0    0    0    0 -0.00000000000E+00 -0.00000000000E+00 -0.74505805969E-08  0.93827000000E+00  0.93827000000E+00 0. -1.
     999902    2    1    2    0    0 -0.49090744822E-02  0.12793468675E-01  0.17715232156E-01  0.10215335426E+01  0.10212879992E+01 0.  0.
     999903    2    3    3    0    0 -0.64597611652E-01  0.41820411342E-01 -0.10381739208E+00  0.13070501612E+00  0.19594695796E-01 0.  0.
         14    1    1    2    0    0  0.49090744822E-02 -0.12793468675E-01 -0.17715232156E-01  0.22396457384E-01  0.00000000000E+00 0. -1.
     999901    1    3    3    0    0  0.59688537170E-01 -0.29026942667E-01  0.12153262424E+00  0.89082852650E+00  0.88000000000E+00 0.  1.
        -11    1    4    4    0    0 -0.21726061447E-01  0.25554942197E-01 -0.44684499386E-01  0.55875239803E-01  0.51100000000E-03 0. -1.
         11    1    4    4    0    0 -0.42871550205E-01  0.16265469145E-01 -0.59132892696E-01  0.74829776313E-01  0.51100000000E-03 0.  1.
</event>
<event>
 8    1  0.1088021E+005  0.1043930E+01  0.7957747E-01            NaN
         13   -1    0    0    0    0  0.00000000000E+00  0.00000000000E+00  0.74505805969E-08  0.10566000000E+00  0.10566000000E+00 0. -1.
     999900   -1    0    0    0    0 -0.00000000000E+00 -0.00000000000E+00 -0.74505805969E-08  0.93827000000E+00  0.93827000000E+00 0. -1.
     999902    2    1    2    0    0  0.15815406232E-01 -0.65509466974E-02  0.16727665139E-01  0.10199955738E+01  0.10197147218E+01 0.  0.
     999903    2    3    3    0    0  0.92651586852E-01 -0.92468095876E-01  0.11051097072E-02  0.13234157622E+00  0.19452666307E-01 0.  0.
         14    1    1    2    0    0 -0.15815406232E-01  0.65509466974E-02 -0.16727665139E-01  0.23934426208E-01  0.00000000000E+00 0.  1.
     999901    1    3    3    0    0 -0.76836180620E-01  0.85917149179E-01  0.15622555432E-01  0.88765399758E+00  0.88000000000E+00 0. -1.
        -11    1    4    4    0    0  0.24203458300E-01 -0.27009538431E-01 -0.81620207606E-02  0.37177980900E-01  0.51100000000E-03 0.  1.
         11    1    4    4    0    0  0.68448128552E-01 -0.65458557445E-01  0.92671304679E-02  0.95163595315E-01  0.51100000000E-03 0. -1.
</event>
<event>
 8    1  0.1088021E+005  0.1043930E+01  0.7957747E-01            NaN
         13   -1    0    0    0    0  0.00000000000E+00  0.00000000000E+00  0.74505805969E-08  0.10566000000E+00  0.10566000000E+00 0.  1.
     999900   -1    0    0    0    0 -0.00000000000E+00 -0.00000000000E+00 -0.74505805969E-08  0.93827000000E+00  0.93827000000E+00 0.  1.
     999902    2    1    2    0    0  0.13254137363E-01 -0.12975044979E-01 -0.14441631036E-01  0.10204228807E+01  0.10201520822E+01 0.  0.
     999903    2    3    3    0    0  0.48083167413E-02 -0.11462915341E+00  0.60894445284E-01  0.13133322606E+00  0.19424728537E-01 0.  0.
         14    1    1    2    0    0 -0.13254137363E-01  0.12975044979E-01  0.14441631036E-01  0.23507119271E-01  0.00000000000E+00 0.  1.
     999901    1    3    3    0    0  0.84458206212E-02  0.10165410843E+00 -0.75336076320E-01  0.88908965467E+00  0.88000000000E+00 0.  1.
        -11    1    4    4    0    0  0.54420596118E-02 -0.33463812181E-01  0.27113978562E-01  0.43415109040E-01  0.51100000000E-03 0.  1.
         11    1    4    4    0    0 -0.63374287043E-03 -0.81165341231E-01  0.33780466722E-01  0.87918117019E-01  0.51100000000E-03 0. -1.
</event>
<event>
 7    1  0.1125160E+005  0.1043930E+01  0.7957747E-01            NaN
         13   -1    0    0    0    0  0.00000000000E+00  0.00000000000E+00  0.74505805969E-08  0.10566000000E+00  0.10566000000E+00 0. -1.
     999900   -1    0    0    0    0 -0.00000000000E+00 -0.00000000000E+00 -0.74505805969E-08  0.93827000000E+00  0.93827000000E+00 0. -1.
     999903    2    1    2    0    0 -0.66200969559E-01 -0.30652576281E-01 -0.58279788871E-02  0.75978492216E-01  0.20411201293E-01 0.  0.
         14    1    1    2    0    0  0.40090121357E-01  0.39041047038E-01  0.64719056885E-01  0.85556867103E-01  0.00000000000E+00 0. -1.
     999901    1    1    2    0    0  0.26110848202E-01 -0.83884707571E-02 -0.58891077998E-01  0.88239464068E+00  0.88000000000E+00 0. -1.
        -11    1    3    3    0    0 -0.48050165328E-01 -0.11691081899E-01 -0.25401341350E-02  0.49519826196E-01  0.51100000000E-03 0. -1.
         11    1    3    3    0    0 -0.18150804231E-01 -0.18961494383E-01 -0.32878447521E-02  0.26458666020E-01  0.51100000000E-03 0.  1.
</event>
<event>
 8    1  0.1088021E+005  0.1043930E+01  0.7957747E-01            NaN
         13   -1    0    0    0    0  0.00000000000E+00  0.00000000000E+00  0.74505805969E-08  0.10566000000E+00  0.10566000000E+00 0.  1.
     999900   -1    0    0    0    0 -0.00000000000E+00 -0.00000000000E+00 -0.74505805969E-08  0.93827000000E+00  0.93827000000E+00 0.  1.
     999902    2    1    2    0    0  0.16932342229E-01  0.45056629641E-02  0.17766751422E-01  0.10189767904E+01  0.10186712113E+01 0.  0.
     999903    2    3    3    0    0  0.71606316207E-01  0.40749217740E-03 -0.10501783119E+00  0.12876215779E+00  0.20574689282E-01 0.  0.
         14    1    1    2    0    0 -0.16932342229E-01 -0.45056629641E-02 -0.17766751422E-01  0.24953209577E-01  0.00000000000E+00 0.  1.
     999901    1    3    3    0    0 -0.54673973978E-01  0.40981707867E-02  0.12278458261E+00  0.89021463264E+00  0.88000000000E+00 0. -1.
        -11    1    4    4    0    0  0.23580485678E-01  0.63787016158E-02 -0.23152385915E-01  0.33660380771E-01  0.51100000000E-03 0.  1.
         11    1    4    4    0    0  0.48025830529E-01 -0.59712094384E-02 -0.81865445275E-01  0.95101777014E-01  0.51100000000E-03 0. -1.
</event>
<event>
 8    1  0.1088021E+005  0.1043930E+01  0.7957747E-01            NaN
         13   -1    0    0    0    0  0.00000000000E+00  0.00000000000E+00  0.74505805969E-08  0.10566000000E+00  0.10566000000E+00 0.  1.
     999900   -1    0    0    0    0 -0.00000000000E+00 -0.00000000000E+00 -0.74505805969E-08  0.93827000000E+00  0.93827000000E+00 0.  1.
     999902    2    1    2    0    0  0.18321637557E-01 -0.14388533888E-01  0.46017942123E-02  0.10201836567E+01  0.10199072529E+01 0.  0.
     999903    2    3    3    0    0  0.32915905554E-01  0.11486602584E+00  0.46361923218E-01  0.12964244920E+00  0.19495537461E-01 0.  0.
         14    1    1    2    0    0 -0.18321637557E-01  0.14388533888E-01 -0.46017942123E-02  0.23746343302E-01  0.00000000000E+00 0.  1.
     999901    1    3    3    0    0 -0.14594267997E-01 -0.12925455973E+00 -0.41760129006E-01  0.89054120749E+00  0.88000000000E+00 0. -1.
        -11    1    4    4    0    0  0.29512262211E-02  0.43236310155E-01  0.18916071529E-01  0.47288128903E-01  0.51100000000E-03 0. -1.
         11    1    4    4    0    0  0.29964679333E-01  0.71629715684E-01  0.27445851689E-01  0.82354320302E-01  0.51100000000E-03 0.  1.
</event>
<event>
 8    1  0.1088021E+005  0.1043930E+01  0.7957747E-01            NaN
         13   -1    0    0    0    0  0.00000000000E+00  0.00000000000E+00  0.74505805969E-08  0.10566000000E+00  0.10566000000E+00 0. -1.
     999900   -1    0    0    0    0 -0.00000000000E+00 -0.00000000000E+00 -0.74505805969E-08  0.93827000000E+00  0.93827000000E+00 0.  1.
     999902    2    1    2    0    0  0.21025025132E-01 -0.98942892014E-02 -0.29866004051E-02  0.10205020589E+01  0.10202331027E+01 0.  0.
     999903    2    3    3    0    0  0.29763294126E-01  0.12503778820E+00 -0.57162700293E-02  0.13017039379E+00  0.19782657075E-01 0.  0.
         14    1    1    2    0    0 -0.21025025132E-01  0.98942892014E-02  0.29866004051E-02  0.23427941066E-01  0.00000000000E+00 0. -1.
     999901    1    3    3    0    0 -0.87382689945E-02 -0.13493207740E+00  0.27296696243E-02  0.89033166514E+00  0.88000000000E+00 0.  1.
        -11    1    4    4    0    0  0.16676503088E-01  0.10076593901E+00 -0.71267333715E-03  0.10214034092E+00  0.51100000000E-03 0.  1.
         11    1    4    4    0    0  0.13086791039E-01  0.24271849195E-01 -0.50035966922E-02  0.28030052870E-01  0.51100000000E-03 0. -1.
</event>
<event>
 8    1  0.1088021E+005  0.1043930E+01  0.7957747E-01            NaN
         13   -1    0    0    0    0  0.00000000000E+00  0.00000000000E+00  0.74505805969E-08  0.10566000000E+00  0.10566000000E+00 0.  1.
     999900   -1    0    0    0    0 -0.00000000000E+00 -0.00000000000E+00 -0.74505805969E-08  0.93827000000E+00  0.93827000000E+00 0.  1.
     999902    2    1    2    0    0  0.48549509081E-02 -0.20373591572E-02  0.22164222441E-01  0.10211489961E+01  0.10208948517E+01 0.  0.
     999903    2    3    3    0    0 -0.37878640354E-01  0.11933183341E+00 -0.30007113532E-01  0.13026264591E+00  0.19825544009E-01 0.  0.
         14    1    1    2    0    0 -0.48549509081E-02  0.20373591572E-02 -0.22164222441E-01  0.22781003865E-01  0.00000000000E+00 0. -1.
     999901    1    3    3    0    0  0.42733591262E-01 -0.12136919257E+00  0.52171335973E-01  0.89088635023E+00  0.88000000000E+00 0.  1.
        -11    1    4    4    0    0 -0.29260365424E-01  0.62882515561E-01 -0.20869512853E-01  0.72430500728E-01  0.51100000000E-03 0.  1.
         11    1    4    4    0    0 -0.86182749296E-02  0.56449317852E-01 -0.91376006788E-02  0.57832145178E-01  0.51100000000E-03 0. -1.
</event>
<event>
 7    1  0.1088021E+005  0.1043930E+01  0.7957747E-01            NaN
         13   -1    0    0    0    0  0.00000000000E+00  0.00000000000E+00  0.74505805969E-08  0.10566000000E+00  0.10566000000E+00 0.  1.
     999900   -1    0    0    0    0 -0.00000000000E+00 -0.00000000000E+00 -0.74505805969E-08  0.93827000000E+00  0.93827000000E+00 0. -1.
     999903    2    1    2    0    0 -0.13386970927E-01  0.67117774078E-01  0.38724093409E-01  0.81513899110E-01  0.21469833490E-01 0.  0.
         14    1    1    2    0    0 -0.16097433705E-01  0.58946927135E-02 -0.76201328824E-01  0.78105808290E-01  0.00000000000E+00 0. -1.
     999901    1    1    2    0    0  0.29484404632E-01 -0.73012466792E-01  0.37477235415E-01  0.88431029260E+00  0.88000000000E+00 0.  1.
        -11    1    3    3    0    0 -0.28695050762E-02 -0.71999404324E-03  0.24158166728E-02  0.38535362982E-02  0.51100000000E-03 0.  1.
         11    1    3    3    0    0 -0.10517465851E-01  0.67837768121E-01  0.36308276736E-01  0.77660362812E-01  0.51100000000E-03 0. -1.
</event>
<event>
 8    1  0.1088021E+005  0.1043930E+01  0.7957747E-01            NaN
         13   -1    0    0    0    0  0.00000000000E+00  0.00000000000E+00  0.74505805969E-08  0.10566000000E+00  0.10566000000E+00 0.  1.
     999900   -1    0    0    0    0 -0.00000000000E+00 -0.00000000000E+00 -0.74505805969E-08  0.93827000000E+00  0.93827000000E+00 0. -1.
     999902    2    1    2    0    0  0.54800003905E-02  0.19766595890E-01 -0.13636997102E-01  0.10192983860E+01  0.10190007278E+01 0.  0.
     999903    2    3    3    0    0  0.65650383206E-01  0.11049308747E-01  0.10838876103E+00  0.12880035025E+00  0.20232317438E-01 0.  0.
         14    1    1    2    0    0 -0.54800003905E-02 -0.19766595890E-01  0.13636997102E-01  0.24631613981E-01  0.00000000000E+00 0.  1.
     999901    1    3    3    0    0 -0.60170382816E-01  0.87172871422E-02 -0.12202575813E+00  0.89049803577E+00  0.88000000000E+00 0. -1.
        -11    1    4    4    0    0  0.20896613530E-01  0.12005944816E-01  0.47014870336E-01  0.52834366861E-01  0.51100000000E-03 0. -1.
         11    1    4    4    0    0  0.44753769676E-01 -0.95663606862E-03  0.61373890689E-01  0.75965983388E-01  0.51100000000E-03 0.  1.
</event>
<event>
 8    1  0.1088021E+005  0.1043930E+01  0.7957747E-01            NaN
         13   -1    0    0    0    0  0.00000000000E+00  0.00000000000E+00  0.74505805969E-08  0.10566000000E+00  0.10566000000E+00 0.  1.
     999900   -1    0    0    0    0 -0.00000000000E+00 -0.00000000000E+00 -0.74505805969E-08  0.93827000000E+00  0.93827000000E+00 0.  1.
     999902    2    1    2    0    0 -0.20487260287E-01  0.75228759434E-02 -0.97360831407E-02  0.10200320333E+01  0.10197520464E+01 0.  0.
     999903    2    3    3    0    0  0.55901826719E-01  0.20777981764E-01 -0.11437306865E+00  0.13044792309E+00  0.19460808029E-01 0.  0.
         14    1    1    2    0    0  0.20487260287E-01 -0.75228759434E-02  0.97360831407E-02  0.23897966681E-01  0.00000000000E+00 0. -1.
     999901    1    3    3    0    0 -0.76389087006E-01 -0.13255105821E-01  0.10463698551E+00  0.88958411023E+00  0.88000000000E+00 0. -1.
        -11    1    4    4    0    0  0.50455571404E-01  0.11225196306E-01 -0.92631909335E-01  0.10607875125E+00  0.51100000000E-03 0.  1.
         11    1    4    4    0    0  0.54462553148E-02  0.95527854586E-02 -0.21741159312E-01  0.24369171841E-01  0.51100000000E-03 0. -1.
</event>
<event>
 8    1  0.1088021E+005  0.1043930E+01  0.7957747E-01            NaN
         13   -1    0    0    0    0  0.00000000000E+00  0.00000000000E+00  0.74505805969E-08  0.10566000000E+00  0.10566000000E+00 0.  1.
     999900   -1    0    0    0    0 -0.00000000000E+00 -0.00000000000E+00 -0.74505805969E-08  0.93827000000E+00  0.93827000000E+00 0.  1.
     999902    2    1    2    0    0 -0.51862402760E-02 -0.32002102491E-02  0.23159162751E-01  0.10199824479E+01  0.10197012841E+01 0.  0.
     999903    2    3    3    0    0  0.34660420292E-01 -0.87810556428E-01 -0.84960076128E-01  0.12844644924E+00  0.19189508352E-01 0.  0.
         14    1    1    2    0    0  0.51862402760E-02  0.32002102491E-02 -0.23159162751E-01  0.23947552133E-01  0.00000000000E+00 0. -1.
     999901    1    3    3    0    0 -0.39846660568E-01  0.84610346179E-01  0.10811923888E+00  0.89153599863E+00  0.88000000000E+00 0. -1.
        -11    1    4    4    0    0  0.12607109889E-01 -0.42734960851E-01 -0.51646899076E-01  0.68212018031E-01  0.51100000000E-03 0. -1.
         11    1    4    4    0    0  0.22053310403E-01 -0.45075595577E-01 -0.33313177052E-01  0.60234431206E-01  0.51100000000E-03 0.  1.
</event>
<event>
 8    1  0.1088021E+005  0.1043930E+01  0.7957747E-01            NaN
         13   -1    0    0    0    0  0.00000000000E+00  0.00000000000E+00  0.74505805969E-08  0.10566000000E+00  0.10566000000E+00 0. -1.
     999900   -1    0    0    0    0 -0.00000000000E+00 -0.00000000000E+00 -0.74505805969E-08  0.93827000000E+00  0.93827000000E+00 0.  1.
     999902    2    1    2    0    0  0.34091092147E-03 -0.13661463677E-02  0.24313607708E-01  0.10195756555E+01  0.10192847410E+01 0.  0.
     999903    2    3    3    0    0 -0.10390678801E+00  0.75616795904E-01 -0.16283323565E-02  0.12970659750E+00  0.17510840965E-01 0.  0.
         14    1    1    2    0    0 -0.34091092147E-03  0.13661463677E-02 -0.24313607708E-01  0.24354344498E-01  0.00000000000E+00 0.  1.
     999901    1    3    3    0    0  0.10424769893E+00 -0.76982942272E-01  0.25941940065E-01  0.88986905800E+00  0.88000000000E+00 0. -1.
        -11    1    4    4    0    0 -0.65617939102E-01  0.40470554646E-01 -0.72027562098E-02  0.77432038223E-01  0.51100000000E-03 0.  1.
         11    1    4    4    0    0 -0.38288848909E-01  0.35146241258E-01  0.55744238534E-02  0.52274559277E-01  0.51100000000E-03 0. -1.
</event>
<event>
 8    1  0.1088021E+005  0.1043930E+01  0.7957747E-01            NaN
         13   -1    0    0    0    0  0.00000000000E+00  0.00000000000E+00  0.74505805969E-08  0.10566000000E+00  0.10566000000E+00 0.  1.
     999900   -1    0    0    0    0 -0.00000000000E+00 -0.00000000000E+00 -0.74505805969E-08  0.93827000000E+00  0.93827000000E+00 0. -1.
     999902    2    1    2    0    0  0.23448380816E-01 -0.27155108931E-02 -0.66550237203E-02  0.10194047089E+01  0.10191096460E+01 0.  0.
     999903    2    3    3    0    0  0.78265340107E-02  0.10045898923E+00 -0.79957965159E-01  0.13021274943E+00  0.20219316778E-01 0.  0.
         14    1    1    2    0    0 -0.23448380816E-01  0.27155108931E-02  0.66550237203E-02  0.24525291089E-01  0.00000000000E+00 0. -1.
     999901    1    3    3    0    0  0.15621846805E-01 -0.10317450012E+00  0.73302941439E-01  0.88919195948E+00  0.88000000000E+00 0.  1.
        -11    1    4    4    0    0 -0.44097839249E-02  0.58607841337E-01 -0.40253126424E-01  0.71238336367E-01  0.51100000000E-03 0. -1.
         11    1    4    4    0    0  0.12236317936E-01  0.41851147894E-01 -0.39704838735E-01  0.58974413068E-01  0.51100000000E-03 0.  1.
</event>
<event>
 8    1  0.1088021E+005  0.1043930E+01  0.7957747E-01            NaN
         13   -1    0    0    0    0  0.00000000000E+00  0.00000000000E+00  0.74505805969E-08  0.10566000000E+00  0.10566000000E+00 0. -1.
     999900   -1    0    0    0    0 -0.00000000000E+00 -0.00000000000E+00 -0.74505805969E-08  0.93827000000E+00  0.93827000000E+00 0.  1.
     999902    2    1    2    0    0 -0.98812992694E-02  0.19812965175E-01 -0.70476712976E-02  0.10206950407E+01  0.10204305477E+01 0.  0.
     999903    2    3    3    0    0  0.71376864399E-01  0.10286493197E+00 -0.38905338230E-01  0.13248592718E+00  0.19053728150E-01 0.  0.
         14    1    1    2    0    0  0.98812992694E-02 -0.19812965175E-01  0.70476712976E-02  0.23234959329E-01  0.00000000000E+00 0. -1.
     999901    1    3    3    0    0 -0.81258163668E-01 -0.83051966796E-01  0.31857666932E-01  0.88820911349E+00  0.88000000000E+00 0. -1.
        -11    1    4    4    0    0  0.32420371805E-01  0.38805167714E-01 -0.71900522775E-02  0.51077191799E-01  0.51100000000E-03 0.  1.
         11    1    4    4    0    0  0.38956492593E-01  0.64059764258E-01 -0.31715285952E-01  0.81408735379E-01  0.51100000000E-03 0. -1.
</event>
<event>
 8    1  0.1088021E+005  0.1043930E+01  0.7957747E-01            NaN
         13   -1    0    0    0    0  0.00000000000E+00  0.00000000000E+00  0.74505805969E-08  0.10566000000E+00  0.10566000000E+00 0. -1.
     999900   -1    0    0    0    0 -0.00000000000E+00 -0.00000000000E+00 -0.74505805969E-08  0.93827000000E+00  0.93827000000E+00 0. -1.
     999902    2    1    2    0    0  0.14991576648E-01 -0.16678474192E-02  0.15691398899E-01  0.10221642222E+01  0.10219324576E+01 0.  0.
     999903    2    3    3    0    0 -0.89328320070E-01  0.56440409440E-01 -0.72773102077E-01  0.12970403913E+00  0.19030102378E-01 0.  0.
         14    1    1    2    0    0 -0.14991576648E-01  0.16678474192E-02 -0.15691398899E-01  0.21765777836E-01  0.00000000000E+00 0.  1.
     999901    1    3    3    0    0  0.10431989672E+00 -0.58108256860E-01  0.88464500976E-01  0.89246018303E+00  0.88000000000E+00 0.  1.
        -11    1    4    4    0    0 -0.68598048428E-01  0.47720451010E-01 -0.48544466748E-01  0.96642434083E-01  0.51100000000E-03 0. -1.
         11    1    4    4    0    0 -0.20730271643E-01  0.87199584306E-02 -0.24228635330E-01  0.33061605048E-01  0.51100000000E-03 0.  1.
</event>
<event>
 8    1  0.1088021E+005  0.1043930E+01  0.7957747E-01            NaN
         13   -1    0    0    0    0  0.00000000000E+00  0.00000000000E+00  0.74505805969E-08  0.10566000000E+00  0.10566000000E+00 0. -1.
     999900   -1    0    0    0    0 -0.00000000000E+00 -0.00000000000E+00 -0.74505805969E-08  0.93827000000E+00  0.93827000000E+00 0.  1.
     999902    2    1    2    0    0  0.17796624507E-01  0.14186782107E-01 -0.73011287560E-02  0.10200283032E+01  0.10197482278E+01 0.  0.
     999903    2    3    3    0    0 -0.75119350844E-02  0.12149507727E+00  0.45807449794E-01  0.13155989376E+00  0.19804045526E-01 0.  0.
         14    1    1    2    0    0 -0.17796624507E-01 -0.14186782107E-01  0.73011287560E-02  0.23901696833E-01  0.00000000000E+00 0. -1.
     999901    1    3    3    0    0  0.25308559591E-01 -0.10730829517E+00 -0.53108578550E-01  0.88846840941E+00  0.88000000000E+00 0. -1.
        -11    1    4    4    0    0 -0.81884308089E-02  0.44033713530E-01  0.25225606908E-01  0.51406329291E-01  0.51100000000E-03 0.  1.
         11    1    4    4    0    0  0.67649572445E-03  0.77461363743E-01  0.20581842886E-01  0.80153564468E-01  0.51100000000E-03 0. -1.
</event>
<event>
 8    1  0.1088021E+005  0.1043930E+01  0.7957747E-01            NaN
         13   -1    0    0    0    0  0.00000000000E+00  0.00000000000E+00  0.74505805969E-08  0.10566000000E+00  0.10566000000E+00 0. -1.
     999900   -1    0    0    0    0 -0.00000000000E+00 -0.00000000000E+00 -0.74505805969E-08  0.93827000000E+00  0.93827000000E+00 0.  1.
     999902    2    1    2    0    0 -0.27773272388E-02  0.35848176546E-02  0.23234198869E-01  0.10202573901E+01  0.10199827202E+01 0.  0.
     999903    2    3    3    0    0 -0.47454797316E-01 -0.11250839721E+00  0.43810645626E-01  0.13127083165E+00  0.20063931362E-01 0.  0.
         14    1    1    2    0    0  0.27773272388E-02 -0.35848176546E-02 -0.23234198869E-01  0.23672609938E-01  0.00000000000E+00 0.  1.
     999901    1    3    3    0    0  0.44677470077E-01  0.11609321486E+00 -0.20576446757E-01  0.88898655841E+00  0.88000000000E+00 0. -1.
        -11    1    4    4    0    0 -0.29546004746E-01 -0.72597545041E-01  0.17808122114E-01  0.80378854661E-01  0.51100000000E-03 0. -1.
         11    1    4    4    0    0 -0.17908792570E-01 -0.39910852169E-01  0.26002523512E-01  0.50891976992E-01  0.51100000000E-03 0.  1.
</event>
<event>
 7    1  0.1088021E+005  0.1043930E+01  0.7957747E-01            NaN
         13   -1    0    0    0    0  0.00000000000E+00  0.00000000000E+00  0.74505805969E-08  0.10566000000E+00  0.10566000000E+00 0.  1.
     999900   -1    0    0    0    0 -0.00000000000E+00 -0.00000000000E+00 -0.74505805969E-08  0.93827000000E+00  0.93827000000E+00 0.  1.
     999902    2    1    2    0    0 -0.34578256023E-02 -0.23105113536E-01 -0.47218224909E-02  0.10200951844E+01  0.10198166927E+01 0.  0.
         14    1    1    2    0    0  0.34578256023E-02  0.23105113536E-01  0.47218224909E-02  0.23834815650E-01  0.00000000000E+00 0.  1.
     999901    1    3    3    0    0 -0.19687331607E-01  0.95890113170E-01 -0.38138316430E-01  0.88624885670E+00  0.88000000000E+00 0. -1.
        -11    1    3    3    0    0 -0.14527135845E-01 -0.54470372282E-01  0.25670086193E-01  0.61945730914E-01  0.51100000000E-03 0.  1.
         11    1    3    3    0    0  0.30756641850E-01 -0.64524854425E-01  0.77464077458E-02  0.71900596732E-01  0.51100000000E-03 0. -1.
</event>
<event>
 8    1  0.1088021E+005  0.1043930E+01  0.7957747E-01            NaN
         13   -1    0    0    0    0  0.00000000000E+00  0.00000000000E+00  0.74505805969E-08  0.10566000000E+00  0.10566000000E+00 0. -1.
     999900   -1    0    0    0    0 -0.00000000000E+00 -0.00000000000E+00 -0.74505805969E-08  0.93827000000E+00  0.93827000000E+00 0.  1.
     999902    2    1    2    0    0 -0.27504075082E-01 -0.24574254771E-02 -0.10218559444E-01  0.10144862903E+01  0.10140589239E+01 0.  0.
     999903    2    3    3    0    0 -0.80185139998E-01  0.98428523661E-02 -0.97872098115E-01  0.12847853957E+00  0.20031203715E-01 0.  0.
         14    1    1    2    0    0  0.27504075082E-01  0.24574254771E-02  0.10218559444E-01  0.29443709739E-01  0.00000000000E+00 0. -1.
     999901    1    3    3    0    0  0.52681064917E-01 -0.12300277843E-01  0.87653538671E-01  0.88600775069E+00  0.88000000000E+00 0. -1.
        -11    1    4    4    0    0 -0.31688685251E-01  0.11739721171E-02 -0.24389915790E-01  0.40008500306E-01  0.51100000000E-03 0.  1.
         11    1    4    4    0    0 -0.48496454748E-01  0.86688802490E-02 -0.73482182325E-01  0.88470039268E-01  0.51100000000E-03 0. -1.
</event>
<event>
 8    1  0.1088021E+005  0.1043930E+01  0.7957747E-01            NaN
         13   -1    0    0    0    0  0.00000000000E+00  0.00000000000E+00  0.74505805969E-08  0.10566000000E+00  0.10566000000E+00 0. -1.
     999900   -1    0    0    0    0 -0.00000000000E+00 -0.00000000000E+00 -0.74505805969E-08  0.93827000000E+00  0.93827000000E+00 0.  1.
     999902    2    1    2    0    0  0.58250447900E-02  0.31682513536E-02 -0.18478228114E-01  0.10242980394E+01  0.10241098865E+01 0.  0.
     999903    2    3    3    0    0  0.12606836976E-01  0.94774372731E-02 -0.13432314950E+00  0.13665743399E+00  0.19590600207E-01 0.  0.
         14    1    1    2    0    0 -0.58250447900E-02 -0.31682513536E-02  0.18478228114E-01  0.19631960617E-01  0.00000000000E+00 0. -1.
     999901    1    3    3    0    0 -0.67817921858E-02 -0.63091859194E-02  0.11584492139E+00  0.88764060539E+00  0.88000000000E+00 0. -1.
        -11    1    4    4    0    0  0.53588888632E-02  0.13502807164E-01 -0.10997156978E+00  0.11092813336E+00  0.51100000000E-03 0.  1.
         11    1    4    4    0    0  0.72479481126E-02 -0.40253698905E-02 -0.24351579725E-01  0.25729300626E-01  0.51100000000E-03 0. -1.
</event>
<event>
 8    1  0.1088021E+005  0.1043930E+01  0.7957747E-01            NaN
         13   -1    0    0    0    0  0.00000000000E+00  0.00000000000E+00  0.74505805969E-08  0.10566000000E+00  0.10566000000E+00 0. -1.
     999900   -1    0    0    0    0 -0.00000000000E+00 -0.00000000000E+00 -0.74505805969E-08  0.93827000000E+00  0.93827000000E+00 0. -1.
     999902    2    1    2    0    0 -0.61923366759E-02 -0.20346996977E-01 -0.98690268546E-02  0.10204834009E+01  0.10202140111E+01 0.  0.
     999903    2    3    3    0    0 -0.10714141200E+00 -0.21930105558E-01  0.69603092683E-01  0.13115273131E+00  0.19905695788E-01 0.  0.
         14    1    1    2    0    0  0.61923366759E-02  0.20346996977E-01  0.98690268546E-02  0.23446599126E-01  0.00000000000E+00 0. -1.
     999901    1    3    3    0    0  0.10094907532E+00  0.15831085813E-02 -0.79472119538E-01  0.88933066956E+00  0.88000000000E+00 0. -1.
        -11    1    4    4    0    0 -0.81545603254E-01 -0.79366184559E-02  0.53064334067E-01  0.97615367609E-01  0.51100000000E-03 0. -1.
         11    1    4    4    0    0 -0.25595808744E-01 -0.13993487103E-01  0.16538758616E-01  0.33537363703E-01  0.51100000000E-03 0.  1.
</event>
<event>
 8    1  0.1088021E+005  0.1043930E+01  0.7957747E-01            NaN
         13   -1    0    0    0    0  0.00000000000E+00  0.00000000000E+00  0.74505805969E-08  0.10566000000E+00  0.10566000000E+00 0.  1.
     999900   -1    0    0    0    0 -0.00000000000E+00 -0.00000000000E+00 -0.74505805969E-08  0.93827000000E+00  0.93827000000E+00 0.  1.
     999902    2    1    2    0    0  0.16675068083E-02 -0.12784894409E-01  0.19999493149E-01  0.10201347519E+01  0.10198571950E+01 0.  0.
     999903    2    3    3    0    0  0.12128429263E+00 -0.14641977411E-01 -0.39611249851E-01  0.13004202369E+00  0.20435500188E-01 0.  0.
         14    1    1    2    0    0 -0.16675068083E-02  0.12784894409E-01 -0.19999493149E-01  0.23795248060E-01  0.00000000000E+00 0. -1.
     999901    1    3    3    0    0 -0.11961678582E+00  0.18570830015E-02  0.59610743001E-01  0.89009272825E+00  0.88000000000E+00 0. -1.
        -11    1    4    4    0    0  0.65798515932E-01  0.23142441681E-02 -0.21121786229E-01  0.69146159687E-01  0.51100000000E-03 0.  1.
         11    1    4    4    0    0  0.55485776700E-01 -0.16956221579E-01 -0.18489463622E-01  0.60895864000E-01  0.51100000000E-03 0. -1.
</event>
<event>
 8    1  0.1088021E+005  0.1043930E+01  0.7957747E-01            NaN
         13   -1    0    0    0    0  0.00000000000E+00  0.00000000000E+00  0.74505805969E-08  0.10566000000E+00  0.10566000000E+00 0. -1.
     999900   -1    0    0    0    0 -0.00000000000E+00 -0.00000000000E+00 -0.74505805969E-08  0.93827000000E+00  0.93827000000E+00 0.  1.
     999902    2    1    2    0    0  0.17215823805E-01 -0.18873512455E-02  0.15999633033E-01  0.10203517273E+01  0.10200792678E+01 0.  0.
     999903    2    3    3    0    0 -0.55347241180E-01  0.10653594090E+00 -0.42368730152E-01  0.12882053075E+00  0.19656959063E-01 0.  0.
         14    1    1    2    0    0 -0.17215823805E-01  0.18873512455E-02 -0.15999633033E-01  0.23578272651E-01  0.00000000000E+00 0.  1.
     999901    1    3    3    0    0  0.72563064986E-01 -0.10842329214E+00  0.58368363185E-01  0.89153119659E+00  0.88000000000E+00 0.  1.
        -11    1    4    4    0    0 -0.45712332131E-01  0.97802979410E-01 -0.33372924277E-01  0.11300023578E+00  0.51100000000E-03 0.  1.
         11    1    4    4    0    0 -0.96349090492E-02  0.87329614891E-02 -0.89958058757E-02  0.15820294975E-01  0.51100000000E-03 0. -1.
</event>
<event>
 8    1  0.1088021E+005  0.1043930E+01  0.7957747E-01            NaN
         13   -1    0    0    0    0  0.00000000000E+00  0.00000000000E+00  0.74505805969E-08  0.10566000000E+00  0.10566000000E+00 0.  1.
     999900   -1    0    0    0    0 -0.00000000000E+00 -0.00000000000E+00 -0.74505805969E-08  0.93827000000E+00  0.93827000000E+00 0. -1.
     999902    2    1    2    0    0 -0.17347066088E-01 -0.86873784911E-02  0.19266835531E-01  0.10165876848E+01  0.10162199165E+01 0.  0.
     999903    2    3    3    0    0 -0.12343221053E+00 -0.29622651549E-01  0.19989876674E-01  0.12996890187E+00  0.19475836384E-01 0.  0.
         14    1    1    2    0    0  0.17347066088E-01  0.86873784911E-02 -0.19266835531E-01  0.27342315160E-01  0.00000000000E+00 0. -1.
     999901    1    3    3    0    0  0.10608514444E+00  0.20935273058E-01 -0.72304114307E-03  0.88661878297E+00  0.88000000000E+00 0. -1.
        -11    1    4    4    0    0 -0.64926980674E-01 -0.23708364663E-01  0.51145481973E-02  0.69311031580E-01  0.51100000000E-03 0.  1.
         11    1    4    4    0    0 -0.58505229854E-01 -0.59142868861E-02  0.14875328477E-01  0.60657870289E-01  0.51100000000E-03 0. -1.
</event>
<event>
 8    1  0.1088021E+005  0.1043930E+01  0.7957747E-01            NaN
         13   -1    0    0    0    0  0.00000000000E+00  0.00000000000E+00  0.74505805969E-08  0.10566000000E+00  0.10566000000E+00 0. -1.
     999900   -1    0    0    0    0 -0.00000000000E+00 -0.00000000000E+00 -0.74505805969E-08  0.93827000000E+00  0.93827000000E+00 0. -1.
     999902    2    1    2    0    0  0.16205538665E-01  0.12532254333E-03  0.15903498753E-01  0.10212241316E+01  0.10209716795E+01 0.  0.
     999903    2    3    3    0    0  0.11112798373E+00 -0.63501343020E-02 -0.68556695190E-01  0.13207525399E+00  0.18817526075E-01 0.  0.
         14    1    1    2    0    0 -0.16205538665E-01 -0.12532254333E-03 -0.15903498753E-01  0.22705868443E-01  0.00000000000E+00 0.  1.
     999901    1    3    3    0    0 -0.94922445064E-01  0.64754568453E-02  0.84460193944E-01  0.88914887757E+00  0.88000000000E+00 0.  1.
        -11    1    4    4    0    0  0.15555404491E-01 -0.74401681056E-02 -0.12027237980E-01  0.21029557407E-01  0.51100000000E-03 0. -1.
         11    1    4    4    0    0  0.95572579238E-01  0.10900338036E-02 -0.56529457211E-01  0.11104569658E+00  0.51100000000E-03 0.  1.
</event>
<event>
 8    1  0.1088021E+005  0.1043930E+01  0.7957747E-01            NaN
         13   -1    0    0    0    0  0.00000000000E+00  0.00000000000E+00  0.74505805969E-08  0.10566000000E+00  0.10566000000E+00 0. -1.
     999900   -1    0    0    0    0 -0.00000000000E+00 -0.00000000000E+00 -0.74505805969E-08  0.93827000000E+00  0.93827000000E+00 0. -1.
     999902    2    1    2    0    0  0.11376064345E-01  0.19434503143E-01  0.63198064238E-02  0.10205407994E+01  0.10202727422E+01 0.  0.
     999903    2    3    3    0    0  0.12140858230E+00  0.36032901812E-01 -0.33754513154E-01  0.13262829641E+00  0.20309701631E-01 0.  0.
         14    1    1    2    0    0 -0.11376064345E-01 -0.19434503143E-01 -0.63198064238E-02  0.23389200620E-01  0.00000000000E+00 0.  1.
     999901    1    3    3    0    0 -0.11003251796E+00 -0.16598398669E-01  0.40074319578E-01  0.88791250297E+00  0.88000000000E+00 0. -1.
        -11    1    4    4    0    0  0.53892649156E-01  0.68277133731E-02 -0.19340396278E-01  0.57665824820E-01  0.51100000000E-03 0.  1.
         11    1    4    4    0    0  0.67515933145E-01  0.29205188439E-01 -0.14414116876E-01  0.74962471587E-01  0.51100000000E-03 0. -1.
</event>
<event>
 8    1  0.1088021E+005  0.1043930E+01  0.7957747E-01            NaN
         13   -1    0    0    0    0  0.00000000000E+00  0.00000000000E+00  0.74505805969E-08  0.10566000000E+00  0.10566000000E+00 0.  1.
     999900   -1    0    0    0    0 -0.00000000000E+00 -0.00000000000E+00 -0.74505805969E-08  0.93827000000E+00  0.93827000000E+00 0. -1.
     999902    2    1    2    0    0 -0.14103697627E-01 -0.18152584440E-01  0.61170372524E-02  0.10201424244E+01  0.10198650486E+01 0.  0.
     999903    2    3    3    0    0  0.90814518050E-01 -0.90867795724E-01 -0.12695295258E-01  0.13073293614E+00  0.20632427928E-01 0.  0.
         14    1    1    2    0    0  0.14103697627E-01  0.18152584440E-01 -0.61170372524E-02  0.23787575609E-01  0.00000000000E+00 0. -1.
     999901    1    3    3    0    0 -0.10491821568E+00  0.72715211285E-01  0.18812332510E-01  0.88940948825E+00  0.88000000000E+00 0.  1.
        -11    1    4    4    0    0  0.30543218826E-01 -0.25402407424E-01  0.48778140072E-02  0.40027799211E-01  0.51100000000E-03 0.  1.
         11    1    4    4    0    0  0.60271299224E-01 -0.65465388301E-01 -0.17573109265E-01  0.90705136932E-01  0.51100000000E-03 0. -1.
</event>
<event>
 8    1  0.1088021E+005  0.1043930E+01  0.7957747E-01            NaN
         13   -1    0    0    0    0  0.00000000000E+00  0.00000000000E+00  0.74505805969E-08  0.10566000000E+00  0.10566000000E+00 0.  1.
     999900   -1    0    0    0    0 -0.00000000000E+00 -0.00000000000E+00 -0.74505805969E-08  0.93827000000E+00  0.93827000000E+00 0.  1.
     999902    2    1    2    0    0 -0.15875279075E-01 -0.32133687135E-02 -0.16778169603E-01  0.10206092539E+01  0.10203427816E+01 0.  0.
     999903    2    3    3    0    0 -0.27286294535E-01 -0.11192194355E+00  0.58396309040E-01  0.13066601538E+00  0.19809476233E-01 0.  0.
         14    1    1    2    0    0  0.15875279075E-01  0.32133687135E-02  0.16778169603E-01  0.23320746116E-01  0.00000000000E+00 0.  1.
     999901    1    3    3    0    0  0.11411015460E-01  0.10870857484E+00 -0.75174478643E-01  0.88994323850E+00  0.88000000000E+00 0. -1.
        -11    1    4    4    0    0 -0.17643509162E-01 -0.56596538280E-01  0.19734763961E-01  0.62483466536E-01  0.51100000000E-03 0. -1.
         11    1    4    4    0    0 -0.96427853734E-02 -0.55325405270E-01  0.38661545079E-01  0.68182548845E-01  0.51100000000E-03 0.  1.
</event>
<event>
 8    1  0.1088021E+005  0.1043930E+01  0.7957747E-01            NaN
         13   -1    0    0    0    0  0.00000000000E+00  0.00000000000E+00  0.74505805969E-08  0.10566000000E+00  0.10566000000E+00 0. -1.
     999900   -1    0    0    0    0 -0.00000000000E+00 -0.00000000000E+00 -0.74505805969E-08  0.93827000000E+00  0.93827000000E+00 0.  1.
     999902    2    1    2    0    0  0.63387664064E-02 -0.20218477575E-01  0.89403931968E-02  0.10209322300E+01  0.10206731704E+01 0.  0.
     999903    2    3    3    0    0 -0.91874943069E-01 -0.26524203647E-01 -0.86267286269E-01  0.13034242703E+00  0.20064024018E-01 0.  0.
         14    1    1    2    0    0 -0.63387664064E-02  0.20218477575E-01 -0.89403931968E-02  0.22997770012E-01  0.00000000000E+00 0. -1.
     999901    1    3    3    0    0  0.98213709475E-01  0.63057260716E-02  0.95207679466E-01  0.89058980296E+00  0.88000000000E+00 0. -1.
        -11    1    4    4    0    0 -0.70091225908E-01 -0.15355163274E-01 -0.53835671355E-01  0.89705638728E-01  0.51100000000E-03 0.  1.
         11    1    4    4    0    0 -0.21783717161E-01 -0.11169040373E-01 -0.32431614914E-01  0.40636788298E-01  0.51100000000E-03 0. -1.
</event>
<event>
 8    1  0.1088021E+005  0.1043930E+01  0.7957747E-01            NaN
         13   -1    0    0    0    0  0.00000000000E+00  0.00000000000E+00  0.74505805969E-08  0.10566000000E+00  0.10566000000E+00 0.  1.
     999900   -1    0    0    0    0 -0.00000000000E+00 -0.00000000000E+00 -0.74505805969E-08  0.93827000000E+00  0.93827000000E+00 0.  1.
     999902    2    1    2    0    0  0.71367774713E-02 -0.66955795720E-02  0.10638790797E-01  0.10294749577E+01  0.10293734698E+01 0.  0.
     999903    2    3    3    0    0  0.12172763238E+00  0.57395599631E-01 -0.27688685626E-01  0.13890899229E+00  0.20424825211E-01 0.  0.
         14    1    1    2    0    0 -0.71367774713E-02  0.66955795720E-02 -0.10638790797E-01  0.14455042307E-01  0.00000000000E+00 0. -1.
     999901    1    3    3    0    0 -0.11459085491E+00 -0.64091179203E-01  0.38327476423E-01  0.89056596540E+00  0.88000000000E+00 0. -1.
        -11    1    4    4    0    0  0.51626901388E-01  0.13691642142E-01 -0.83110481274E-02  0.54056754004E-01  0.51100000000E-03 0.  1.
         11    1    4    4    0    0  0.70100730997E-01  0.43703957489E-01 -0.19377637499E-01  0.84852238288E-01  0.51100000000E-03 0. -1.
</event>
<event>
 8    1  0.1088021E+005  0.1043930E+01  0.7957747E-01            NaN
         13   -1    0    0    0    0  0.00000000000E+00  0.00000000000E+00  0.74505805969E-08  0.10566000000E+00  0.10566000000E+00 0.  1.
     999900   -1    0    0    0    0 -0.00000000000E+00 -0.00000000000E+00 -0.74505805969E-08  0.93827000000E+00  0.93827000000E+00 0.  1.
     999902    2    1    2    0    0 -0.15048684787E-01 -0.10507896513E-01 -0.16247038352E-01  0.10194178590E+01  0.10191231163E+01 0.  0.
     999903    2    3    3    0    0 -0.12113750721E+00 -0.39340795324E-01  0.23901378145E-01  0.13166898138E+00  0.23312034487E-01 0.  0.
         14    1    1    2    0    0  0.15048684787E-01  0.10507896513E-01  0.16247038352E-01  0.24512141036E-01  0.00000000000E+00 0.  1.
     999901    1    3    3    0    0  0.10608882242E+00  0.28832898811E-01 -0.40148416497E-01  0.88774887758E+00  0.88000000000E+00 0.  1.
        -11    1    4    4    0    0 -0.71402722887E-01 -0.13855105161E-01  0.59919725408E-02  0.72982721453E-01  0.51100000000E-03 0. -1.
         11    1    4    4    0    0 -0.49734784322E-01 -0.25485690163E-01  0.17909405604E-01  0.58686259931E-01  0.51100000000E-03 0.  1.
</event>
<event>
 8    1  0.1088021E+005  0.1043930E+01  0.7957747E-01            NaN
         13   -1    0    0    0    0  0.00000000000E+00  0.00000000000E+00  0.74505805969E-08  0.10566000000E+00  0.10566000000E+00 0.  1.
     999900   -1    0    0    0    0 -0.00000000000E+00 -0.00000000000E+00 -0.74505805969E-08  0.93827000000E+00  0.93827000000E+00 0.  1.
     999902    2    1    2    0    0 -0.19645221494E-01 -0.12046614734E-01 -0.59162162604E-02  0.10201380419E+01  0.10198605627E+01 0.  0.
     999903    2    3    3    0    0 -0.70916216963E-02  0.91430071907E-01  0.88865471028E-01  0.12893178870E+00  0.17792837017E-01 0.  0.
         14    1    1    2    0    0  0.19645221494E-01  0.12046614734E-01  0.59162162604E-02  0.23791958072E-01  0.00000000000E+00 0.  1.
     999901    1    3    3    0    0 -0.12553599798E-01 -0.10347668664E+00 -0.94781687289E-01  0.89120625323E+00  0.88000000000E+00 0. -1.
        -11    1    4    4    0    0 -0.10555265591E-01  0.38224820194E-01  0.44118059518E-01  0.59322970317E-01  0.51100000000E-03 0. -1.
         11    1    4    4    0    0  0.34636438943E-02  0.53205251713E-01  0.44747411510E-01  0.69608818383E-01  0.51100000000E-03 0.  1.
</event>
<event>
 8    1  0.1088021E+005  0.1043930E+01  0.7957747E-01            NaN
         13   -1    0    0    0    0  0.00000000000E+00  0.00000000000E+00  0.74505805969E-08  0.10566000000E+00  0.10566000000E+00 0.  1.
     999900   -1    0    0    0    0 -0.00000000000E+00 -0.00000000000E+00 -0.74505805969E-08  0.93827000000E+00  0.93827000000E+00 0. -1.
     999902    2    1    2    0    0  0.75263538447E-02  0.59669893249E-02  0.22076996693E-01  0.10198541875E+01  0.10195699677E+01 0.  0.
     999903    2    3    3    0    0  0.30079872311E-01 -0.52017665575E-01 -0.11066232397E+00  0.12772717377E+00  0.21387957433E-01 0.  0.
         14    1    1    2    0    0 -0.75263538447E-02 -0.59669893249E-02 -0.22076996693E-01  0.24075812485E-01  0.00000000000E+00 0. -1.
     999901    1    3    3    0    0 -0.22553518466E-01  0.57984654899E-01  0.13273932066E+00  0.89212701374E+00  0.88000000000E+00 0.  1.
        -11    1    4    4    0    0  0.28699075486E-01 -0.39370579304E-01 -0.71306270114E-01  0.86362750808E-01  0.51100000000E-03 0. -1.
         11    1    4    4    0    0  0.13807968249E-02 -0.12647086270E-01 -0.39356053858E-01  0.41364422965E-01  0.51100000000E-03 0.  1.
</event>
<event>
 8    1  0.1088021E+005  0.1043930E+01  0.7957747E-01            NaN
         13   -1    0    0    0    0  0.00000000000E+00  0.00000000000E+00  0.74505805969E-08  0.10566000000E+00  0.10566000000E+00 0.  1.
     999900   -1    0    0    0    0 -0.00000000000E+00 -0.00000000000E+00 -0.74505805969E-08  0.93827000000E+00  0.93827000000E+00 0. -1.
     999902    2    1    2    0    0  0.21544320697E-01  0.94956082537E-02 -0.34818953408E-02  0.10201298335E+01  0.10198521605E+01 0.  0.
     999903    2    3    3    0    0 -0.40857283515E-01  0.92706207382E-01  0.79198849976E-01  0.13015563743E+00  0.20106556505E-01 0.  0.
         14    1    1    2    0    0 -0.21544320697E-01 -0.94956082537E-02  0.34818953408E-02  0.23800166503E-01  0.00000000000E+00 0.  1.
     999901    1    3    3    0    0  0.62401604212E-01 -0.83210599128E-01 -0.82680745317E-01  0.88997419607E+00  0.88000000000E+00 0.  1.
        -11    1    4    4    0    0 -0.22629109480E-01  0.28607833114E-01  0.31570299241E-01  0.48243441280E-01  0.51100000000E-03 0. -1.
         11    1    4    4    0    0 -0.18228174036E-01  0.64098374268E-01  0.47628550735E-01  0.81912196152E-01  0.51100000000E-03 0.  1.
</event>
<event>
 8    1  0.1088021E+005  0.1043930E+01  0.7957747E-01            NaN
         13   -1    0    0    0    0  0.00000000000E+00  0.00000000000E+00  0.74505805969E-08  0.10566000000E+00  0.10566000000E+00 0. -1.
     999900   -1    0    0    0    0 -0.00000000000E+00 -0.00000000000E+00 -0.74505805969E-08  0.93827000000E+00  0.93827000000E+00 0. -1.
     999902    2    1    2    0    0  0.12438277618E-01 -0.19704089862E-01  0.12605227687E-01  0.10174374789E+01  0.10170925080E+01 0.  0.
     999903    2    3    3    0    0  0.87868621366E-01  0.79396607034E-01  0.44950758212E-01  0.12807989155E+00  0.18951837051E-01 0.  0.
         14    1    1    2    0    0 -0.12438277618E-01  0.19704089862E-01 -0.12605227687E-01  0.26492521066E-01  0.00000000000E+00 0. -1.
     999901    1    3    3    0    0 -0.75430343748E-01 -0.99100696896E-01 -0.32345530525E-01  0.88935758738E+00  0.88000000000E+00 0. -1.
        -11    1    4    4    0    0  0.27357415474E-01  0.30517632461E-01  0.24089685077E-01  0.47542908205E-01  0.51100000000E-03 0.  1.
         11    1    4    4    0    0  0.60511205892E-01  0.48878974572E-01  0.20861073135E-01  0.80536983350E-01  0.51100000000E-03 0. -1.
</event>
<event>
 8    1  0.1088021E+005  0.1043930E+01  0.7957747E-01            NaN
         13   -1    0    0    0    0  0.00000000000E+00  0.00000000000E+00  0.74505805969E-08  0.10566000000E+00  0.10566000000E+00 0. -1.
     999900   -1    0    0    0    0 -0.00000000000E+00 -0.00000000000E+00 -0.74505805969E-08  0.93827000000E+00  0.93827000000E+00 0. -1.
     999902    2    1    2    0    0 -0.14074342964E-01 -0.74512496698E-02  0.16312391161E-01  0.10211330187E+01  0.10208785136E+01 0.  0.
     999903    2    3    3    0    0 -0.38223984628E-01  0.11686522471E+00 -0.38510622522E-01  0.13037864524E+00  0.19924089404E-01 0.  0.
         14    1    1    2    0    0  0.14074342964E-01  0.74512496698E-02 -0.16312391161E-01  0.22796981311E-01  0.00000000000E+00 0. -1.
     999901    1    3    3    0    0  0.24149641664E-01 -0.12431647438E+00  0.54823013683E-01  0.89075437345E+00  0.88000000000E+00 0. -1.
        -11    1    4    4    0    0 -0.11120619386E-01  0.30137758826E-01 -0.19382117263E-01  0.37521730679E-01  0.51100000000E-03 0. -1.
         11    1    4    4    0    0 -0.27103365242E-01  0.86727465887E-01 -0.19128505259E-01  0.92856914557E-01  0.51100000000E-03 0.  1.
</event>
<event>
 8    1  0.1088021E+005  0.1043930E+01  0.7957747E-01            NaN
         13   -1    0    0    0    0  0.00000000000E+00  0.00000000000E+00  0.74505805969E-08  0.10566000000E+00  0.10566000000E+00 0. -1.
     999900   -1    0    0    0    0 -0.00000000000E+00 -0.00000000000E+00 -0.74505805969E-08  0.93827000000E+00  0.93827000000E+00 0. -1.
     999902    2    1    2    0    0 -0.12249391602E-01 -0.84266599118E-02  0.18360976554E-01  0.10203041317E+01  0.10200305581E+01 0.  0.
     999903    2    3    3    0    0 -0.44705961722E-01 -0.73865350419E-01  0.10006436156E+00  0.13350590536E+00  0.18874249782E-01 0.  0.
         14    1    1    2    0    0  0.12249391602E-01  0.84266599118E-02 -0.18360976554E-01  0.23625868278E-01  0.00000000000E+00 0.  1.
     999901    1    3    3    0    0  0.32456570120E-01  0.65438690507E-01 -0.81703385008E-01  0.88679822636E+00  0.88000000000E+00 0. -1.
        -11    1    4    4    0    0 -0.26534769203E-01 -0.45861336519E-01  0.47087302435E-01  0.70886044717E-01  0.51100000000E-03 0.  1.
         11    1    4    4    0    0 -0.18171192519E-01 -0.28004013899E-01  0.52977059127E-01  0.62619860641E-01  0.51100000000E-03 0. -1.
</event>
<event>
 8    1  0.1088021E+005  0.1043930E+01  0.7957747E-01            NaN
         13   -1    0    0    0    0  0.00000000000E+00  0.00000000000E+00  0.74505805969E-08  0.10566000000E+00  0.10566000000E+00 0.  1.
     999900   -1    0    0    0    0 -0.00000000000E+00 -0.00000000000E+00 -0.74505805969E-08  0.93827000000E+00  0.93827000000E+00 0. -1.
     999902    2    1    2    0    0 -0.22566288460E-01  0.13983854508E-01 -0.48804928421E-03  0.10173777166E+01  0.10170311669E+01 0.  0.
     999903    2    3    3    0    0  0.81974660655E-02  0.99714586085E-01  0.79086768757E-01  0.12910505655E+00  0.20079878118E-01 0.  0.
         14    1    1    2    0    0  0.22566288460E-01 -0.13983854508E-01  0.48804928421E-03  0.26552283402E-01  0.00000000000E+00 0. -1.
     999901    1    3    3    0    0 -0.30763754525E-01 -0.85730731577E-01 -0.79574818041E-01  0.88827266005E+00  0.88000000000E+00 0. -1.
        -11    1    4    4    0    0  0.45675225955E-03  0.72800060014E-02  0.13980882279E-01  0.15777620236E-01  0.51100000000E-03 0.  1.
         11    1    4    4    0    0  0.77407138060E-02  0.92434580084E-01  0.65105886478E-01  0.11332743631E+00  0.51100000000E-03 0. -1.
</event>
<event>
 8    1  0.1088021E+005  0.1043930E+01  0.7957747E-01            NaN
         13   -1    0    0    0    0  0.00000000000E+00  0.00000000000E+00  0.74505805969E-08  0.10566000000E+00  0.10566000000E+00 0.  1.
     999900   -1    0    0    0    0 -0.00000000000E+00 -0.00000000000E+00 -0.74505805969E-08  0.93827000000E+00  0.93827000000E+00 0.  1.
     999902    2    1    2    0    0 -0.95814978013E-02 -0.17981471805E-01 -0.10537825373E-01  0.10209912949E+01  0.10207335794E+01 0.  0.
     999903    2    3    3    0    0  0.10354008867E+00  0.39621364981E-01  0.61553669863E-01  0.12896452185E+00  0.23507256285E-01 0.  0.
         14    1    1    2    0    0  0.95814978013E-02  0.17981471805E-01  0.10537825373E-01  0.22938705107E-01  0.00000000000E+00 0.  1.
     999901    1    3    3    0    0 -0.11312158647E+00 -0.57602836786E-01 -0.72091495236E-01  0.89202677304E+00  0.88000000000E+00 0. -1.
        -11    1    4    4    0    0  0.17251277045E-01  0.83752860121E-02  0.21549471569E-01  0.28851218716E-01  0.51100000000E-03 0.  1.
         11    1    4    4    0    0  0.86288811628E-01  0.31246078969E-01  0.40004198294E-01  0.10011330314E+00  0.51100000000E-03 0. -1.
</event>
<event>
 8    1  0.1088021E+005  0.1043930E+01  0.7957747E-01            NaN
         13   -1    0    0    0    0  0.00000000000E+00  0.00000000000E+00  0.74505805969E-08  0.10566000000E+00  0.10566000000E+00 0. -1.
     999900   -1    0    0    0    0 -0.00000000000E+00 -0.00000000000E+00 -0.74505805969E-08  0.93827000000E+00  0.93827000000E+00 0.  1.
     999902    2    1    2    0    0 -0.22462050443E-01 -0.14952487582E-02  0.64135387727E-02  0.10205224594E+01  0.10202539768E+01 0.  0.
     999903    2    3    3    0    0 -0.65674245572E-01  0.61548299487E-01 -0.94202206892E-01  0.13149753786E+00  0.17783334295E-01 0.  0.
         14    1    1    2    0    0  0.22462050443E-01  0.14952487582E-02 -0.64135387727E-02  0.23407540634E-01  0.00000000000E+00 0.  1.
     999901    1    3    3    0    0  0.43212195129E-01 -0.63043548245E-01  0.10061574567E+00  0.88902492151E+00  0.88000000000E+00 0. -1.
        -11    1    4    4    0    0 -0.51143743099E-01  0.45005065228E-01 -0.80911422622E-01  0.10577361574E+00  0.51100000000E-03 0. -1.
         11    1    4    4    0    0 -0.14530502472E-01  0.16543234259E-01 -0.13290784270E-01  0.25723922123E-01  0.51100000000E-03 0.  1.
</event>
<event>
 8    1  0.1088021E+005  0.1043930E+01  0.7957747E-01            NaN
         13   -1    0    0    0    0  0.00000000000E+00  0.00000000000E+00  0.74505805969E-08  0.10566000000E+00  0.10566000000E+00 0. -1.
     999900   -1    0    0    0    0 -0.00000000000E+00 -0.00000000000E+00 -0.74505805969E-08  0.93827000000E+00  0.93827000000E+00 0.  1.
     999902    2    1    2    0    0 -0.24455879275E-01 -0.30792037079E-02 -0.28236216956E-02  0.10191198334E+01  0.10188177906E+01 0.  0.
     999903    2    3    3    0    0 -0.40293211818E-01  0.95652643627E-01 -0.76085319236E-01  0.13043199446E+00  0.21226356815E-01 0.  0.
         14    1    1    2    0    0  0.24455879275E-01  0.30792037079E-02  0.28236216956E-02  0.24810166586E-01  0.00000000000E+00 0.  1.
     999901    1    3    3    0    0  0.15837332544E-01 -0.98731847335E-01  0.73261697541E-01  0.88868783896E+00  0.88000000000E+00 0.  1.
        -11    1    4    4    0    0 -0.29971871033E-01  0.48673670402E-01 -0.33951475091E-01  0.66486111523E-01  0.51100000000E-03 0. -1.
         11    1    4    4    0    0 -0.10321340785E-01  0.46978973225E-01 -0.42133844146E-01  0.63945882936E-01  0.51100000000E-03 0.  1.
</event>
<event>
 8    1  0.1088021E+005  0.1043930E+01  0.7957747E-01            NaN
         13   -1    0    0    0    0  0.00000000000E+00  0.00000000000E+00  0.74505805969E-08  0.10566000000E+00  0.10566000000E+00 0.  1.
     999900   -1    0    0    0    0 -0.00000000000E+00 -0.00000000000E+00 -0.74505805969E-08  0.93827000000E+00  0.93827000000E+00 0. -1.
     999902    2    1    2    0    0 -0.85221439207E-02 -0.19883420886E-01  0.94907388629E-02  0.10203068866E+01  0.10200333776E+01 0.  0.
     999903    2    3    3    0    0  0.46207598941E-03  0.99359215852E-01  0.80635159008E-01  0.12937420050E+00  0.19057481403E-01 0.  0.
         14    1    1    2    0    0  0.85221439207E-02  0.19883420886E-01 -0.94907388629E-02  0.23623113412E-01  0.00000000000E+00 0. -1.
     999901    1    3    3    0    0 -0.89842199101E-02 -0.11924263674E+00 -0.71144420145E-01  0.89093268609E+00  0.88000000000E+00 0. -1.
        -11    1    4    4    0    0  0.56496746833E-02  0.16863231665E-01  0.20558664318E-01  0.27188365265E-01  0.51100000000E-03 0. -1.
         11    1    4    4    0    0 -0.51875986939E-02  0.82495984188E-01  0.60076494690E-01  0.10218583523E+00  0.51100000000E-03 0.  1.
</event>
<event>
 8    1  0.1088021E+005  0.1043930E+01  0.7957747E-01            NaN
         13   -1    0    0    0    0  0.00000000000E+00  0.00000000000E+00  0.74505805969E-08  0.10566000000E+00  0.10566000000E+00 0.  1.
     999900   -1    0    0    0    0 -0.00000000000E+00 -0.00000000000E+00 -0.74505805969E-08  0.93827000000E+00  0.93827000000E+00 0.  1.
     999902    2    1    2    0    0 -0.95710771994E-02 -0.19265156710E-01  0.41849316287E-02  0.10220150408E+01  0.10217800538E+01 0.  0.
     999903    2    3    3    0    0 -0.21377142782E-01 -0.10875917439E+00  0.73924316847E-01  0.13465257588E+00  0.19518486666E-01 0.  0.
         14    1    1    2    0    0  0.95710771994E-02  0.19265156710E-01 -0.41849316287E-02  0.21914959150E-01  0.00000000000E+00 0. -1.
     999901    1    3    3    0    0  0.11806065583E-01  0.89494017683E-01 -0.69739385218E-01  0.88736246497E+00  0.88000000000E+00 0.  1.
        -11    1    4    4    0    0  0.61031632177E-03 -0.37678572320E-01  0.30657525039E-01  0.48581809976E-01  0.51100000000E-03 0.  1.
         11    1    4    4    0    0 -0.21987459104E-01 -0.71080602073E-01  0.43266791808E-01  0.86070765904E-01  0.51100000000E-03 0. -1.
</event>
<event>
 7    1  0.1088021E+005  0.1043930E+01  0.7957747E-01            NaN
         13   -1    0    0    0    0  0.00000000000E+00  0.00000000000E+00  0.74505805969E-08  0.10566000000E+00  0.10566000000E+00 0.  1.
     999900   -1    0    0    0    0 -0.00000000000E+00 -0.00000000000E+00 -0.74505805969E-08  0.93827000000E+00  0.93827000000E+00 0. -1.
     999902    2    1    2    0    0  0.16774670610E-01  0.75817459349E-02  0.15353195914E-01  0.10199593290E+01  0.10196776156E+01 0.  0.
         14    1    1    2    0    0 -0.16774670610E-01 -0.75817459349E-02 -0.15353195914E-01  0.23970671043E-01  0.00000000000E+00 0. -1.
     999901    1    3    3    0    0  0.86345294988E-02 -0.96650517059E-01 -0.41499012174E-01  0.88630584200E+00  0.88000000000E+00 0.  1.
        -11    1    3    3    0    0 -0.65657508171E-03  0.89984143357E-01  0.68632483925E-01  0.11317356634E+00  0.51100000000E-03 0. -1.
         11    1    3    3    0    0  0.87967161924E-02  0.14248119637E-01 -0.11780275836E-01  0.20479920623E-01  0.51100000000E-03 0.  1.
</event>
<event>
 8    1  0.1088021E+005  0.1043930E+01  0.7957747E-01            NaN
         13   -1    0    0    0    0  0.00000000000E+00  0.00000000000E+00  0.74505805969E-08  0.10566000000E+00  0.10566000000E+00 0.  1.
     999900   -1    0    0    0    0 -0.00000000000E+00 -0.00000000000E+00 -0.74505805969E-08  0.93827000000E+00  0.93827000000E+00 0.  1.
     999902    2    1    2    0    0 -0.17301447941E-01 -0.12165933227E-01 -0.12036435190E-01  0.10195943101E+01  0.10193038464E+01 0.  0.
     999903    2    3    3    0    0  0.77722206601E-02  0.16397975246E-01 -0.12856011398E+00  0.13109987934E+00  0.18170703075E-01 0.  0.
         14    1    1    2    0    0  0.17301447941E-01  0.12165933227E-01  0.12036435190E-01  0.24335689927E-01  0.00000000000E+00 0. -1.
     999901    1    3    3    0    0 -0.25073668601E-01 -0.28563908473E-01  0.11652367879E+00  0.88849443073E+00  0.88000000000E+00 0. -1.
        -11    1    4    4    0    0  0.87940639634E-02  0.83441514366E-03 -0.67484566028E-01  0.68062174390E-01  0.51100000000E-03 0. -1.
         11    1    4    4    0    0 -0.10218433033E-02  0.15563560102E-01 -0.61075547952E-01  0.63037704950E-01  0.51100000000E-03 0.  1.
</event>
<event>
 8    1  0.1088021E+005  0.1043930E+01  0.7957747E-01            NaN
         13   -1    0    0    0    0  0.00000000000E+00  0.00000000000E+00  0.74505805969E-08  0.10566000000E+00  0.10566000000E+00 0.  1.
     999900   -1    0    0    0    0 -0.00000000000E+00 -0.00000000000E+00 -0.74505805969E-08  0.93827000000E+00  0.93827000000E+00 0. -1.
     999902    2    1    2    0    0 -0.77775537174E-02  0.22288166623E-01  0.26182961128E-02  0.10201790382E+01  0.10199025256E+01 0.  0.
     999903    2    3    3    0    0 -0.10204011063E+00  0.79843153676E-01 -0.22109911626E-01  0.13293076941E+00  0.19865243432E-01 0.  0.
         14    1    1    2    0    0  0.77775537174E-02 -0.22288166623E-01 -0.26182961128E-02  0.23750961829E-01  0.00000000000E+00 0. -1.
     999901    1    3    3    0    0  0.94262556911E-01 -0.57554987053E-01  0.24728207739E-01  0.88724826877E+00  0.88000000000E+00 0. -1.
        -11    1    4    4    0    0 -0.40195530026E-01  0.19983494749E-01 -0.10243687806E-01  0.46045791961E-01  0.51100000000E-03 0. -1.
         11    1    4    4    0    0 -0.61844580602E-01  0.59859658927E-01 -0.11866223820E-01  0.86884977444E-01  0.51100000000E-03 0.  1.
</event>
<event>
 8    1  0.1088021E+005  0.1043930E+01  0.7957747E-01            NaN
         13   -1    0    0    0    0  0.00000000000E+00  0.00000000000E+00  0.74505805969E-08  0.10566000000E+00  0.10566000000E+00 0. -1.
     999900   -1    0    0    0    0 -0.00000000000E+00 -0.00000000000E+00 -0.74505805969E-08  0.93827000000E+00  0.93827000000E+00 0.  1.
     999902    2    1    2    0    0 -0.21181438482E-01  0.53139254694E-02  0.56548730912E-02  0.10213718811E+01  0.10211227403E+01 0.  0.
     999903    2    3    3    0    0  0.11652818080E+00 -0.49273402992E-01 -0.12986567156E-01  0.12879627141E+00  0.20325930214E-01 0.  0.
         14    1    1    2    0    0  0.21181438482E-01 -0.53139254694E-02 -0.56548730912E-02  0.22558118931E-01  0.00000000000E+00 0.  1.
     999901    1    3    3    0    0 -0.13770961928E+00  0.54587328461E-01  0.18641440248E-01  0.89257560966E+00  0.88000000000E+00 0. -1.
        -11    1    4    4    0    0  0.86009259540E-01 -0.30450212909E-01 -0.16651972363E-01  0.92748894858E-01  0.51100000000E-03 0.  1.
         11    1    4    4    0    0  0.30518921258E-01 -0.18823190083E-01  0.36654052070E-02  0.36047376548E-01  0.51100000000E-03 0. -1.
</event>
<event>
 8    1  0.1088021E+005  0.1043930E+01  0.7957747E-01            NaN
         13   -1    0    0    0    0  0.00000000000E+00  0.00000000000E+00  0.74505805969E-08  0.10566000000E+00  0.10566000000E+00 0. -1.
     999900   -1    0    0    0    0 -0.00000000000E+00 -0.00000000000E+00 -0.74505805969E-08  0.93827000000E+00  0.93827000000E+00 0. -1.
     999902    2    1    2    0    0  0.20899520621E-01 -0.61702202186E-02  0.14100952998E-01  0.10179742982E+01  0.10176433429E+01 0.  0.
     999903    2    3    3    0    0  0.10084346996E+00 -0.24446884689E-01  0.78910660587E-01  0.13178844316E+00  0.19345433370E-01 0.  0.
         14    1    1    2    0    0 -0.20899520621E-01  0.61702202186E-02 -0.14100952998E-01  0.25955701786E-01  0.00000000000E+00 0.  1.
     999901    1    3    3    0    0 -0.79943949337E-01  0.18276664471E-01 -0.64809707589E-01  0.88618585505E+00  0.88000000000E+00 0. -1.
        -11    1    4    4    0    0  0.68313437665E-01 -0.21906745688E-01  0.44794706162E-01  0.84578118289E-01  0.51100000000E-03 0. -1.
         11    1    4    4    0    0  0.32530032293E-01 -0.25401390010E-02  0.34115954424E-01  0.47210324871E-01  0.51100000000E-03 0.  1.
</event>
<event>
 8    1  0.1088021E+005  0.1043930E+01  0.7957747E-01            NaN
         13   -1    0    0    0    0  0.00000000000E+00  0.00000000000E+00  0.74505805969E-08  0.10566000000E+00  0.10566000000E+00 0. -1.
     999900   -1    0    0    0    0 -0.00000000000E+00 -0.00000000000E+00 -0.74505805969E-08  0.93827000000E+00  0.93827000000E+00 0.  1.
     999902    2    1    2    0    0  0.63504805750E-02 -0.10699062388E-01 -0.19606673591E-01  0.10207088848E+01  0.10204447106E+01 0.  0.
     999903    2    3    3    0    0  0.12091055443E+00 -0.33085413183E-01  0.33812512906E-01  0.13139523449E+00  0.20184520844E-01 0.  0.
         14    1    1    2    0    0 -0.63504805750E-02  0.10699062388E-01  0.19606673591E-01  0.23221115150E-01  0.00000000000E+00 0. -1.
     999901    1    3    3    0    0 -0.11456007385E+00  0.22386350796E-01 -0.53419186497E-01  0.88931365036E+00  0.88000000000E+00 0. -1.
        -11    1    4    4    0    0  0.31139474971E-01 -0.34237754740E-03  0.46765266153E-02  0.31494684409E-01  0.51100000000E-03 0. -1.
         11    1    4    4    0    0  0.89771079455E-01 -0.32743035636E-01  0.29135986291E-01  0.99900550085E-01  0.51100000000E-03 0.  1.
</event>
<event>
 8    1  0.1088021E+005  0.1043930E+01  0.7957747E-01            NaN
         13   -1    0    0    0    0  0.00000000000E+00  0.00000000000E+00  0.74505805969E-08  0.10566000000E+00  0.10566000000E+00 0. -1.
     999900   -1    0    0    0    0 -0.00000000000E+00 -0.00000000000E+00 -0.74505805969E-08  0.93827000000E+00  0.93827000000E+00 0. -1.
     999902    2    1    2    0    0 -0.22348898474E-01  0.29609051307E-02 -0.84251240175E-03  0.10213700787E+01  0.10211208976E+01 0.  0.
     999903    2    3    3    0    0 -0.38920770518E-01 -0.57436878739E-01  0.11088781980E+00  0.13209723734E+00  0.18432311704E-01 0.  0.
         14    1    1    2    0    0  0.22348898474E-01 -0.29609051307E-02  0.84251240175E-03  0.22559921306E-01  0.00000000000E+00 0. -1.
     999901    1    3    3    0    0  0.16571872044E-01  0.60397783870E-01 -0.11173033220E+00  0.88927284136E+00  0.88000000000E+00 0. -1.
        -11    1    4    4    0    0 -0.29901933295E-01 -0.30194261231E-01  0.74299052546E-01  0.85594563824E-01  0.51100000000E-03 0.  1.
         11    1    4    4    0    0 -0.90188372230E-02 -0.27242617508E-01  0.36588767257E-01  0.46502673514E-01  0.51100000000E-03 0. -1.
</event>
<event>
 8    1  0.1088021E+005  0.1043930E+01  0.7957747E-01            NaN
         13   -1    0    0    0    0  0.00000000000E+00  0.00000000000E+00  0.74505805969E-08  0.10566000000E+00  0.10566000000E+00 0.  1.
     999900   -1    0    0    0    0 -0.00000000000E+00 -0.00000000000E+00 -0.74505805969E-08  0.93827000000E+00  0.93827000000E+00 0. -1.
     999902    2    1    2    0    0  0.38996152069E-02 -0.77683799215E-02 -0.21553753558E-01  0.10206895392E+01  0.10204249195E+01 0.  0.
     999903    2    3    3    0    0 -0.16676181712E-01  0.12268908582E+00 -0.37249505182E-01  0.13069579181E+00  0.19056692939E-01 0.  0.
         14    1    1    2    0    0 -0.38996152069E-02  0.77683799215E-02  0.21553753558E-01  0.23240460792E-01  0.00000000000E+00 0.  1.
     999901    1    3    3    0    0  0.20575796919E-01 -0.13045746574E+00  0.15695751624E-01  0.88999374740E+00  0.88000000000E+00 0. -1.
        -11    1    4    4    0    0 -0.97145163638E-02  0.28445696807E-01 -0.31389789216E-02  0.30226541395E-01  0.51100000000E-03 0. -1.
         11    1    4    4    0    0 -0.69616653480E-02  0.94243389011E-01 -0.34110526260E-01  0.10046925042E+00  0.51100000000E-03 0.  1.
</event>
<event>
 8    1  0.1088021E+005  0.1043930E+01  0.7957747E-01            NaN
         13   -1    0    0    0    0  0.00000000000E+00  0.00000000000E+00  0.74505805969E-08  0.10566000000E+00  0.10566000000E+00 0.  1.
     999900   -1    0    0    0    0 -0.00000000000E+00 -0.00000000000E+00 -0.74505805969E-08  0.93827000000E+00  0.93827000000E+00 0. -1.
     999902    2    1    2    0    0  0.22717582238E-01  0.78891383113E-02 -0.45987534511E-02  0.10194458096E+01  0.10191517469E+01 0.  0.
     999903    2    3    3    0    0  0.35659283145E-01  0.43349613918E-02 -0.12433369111E+00  0.13123605111E+00  0.21763685380E-01 0.  0.
         14    1    1    2    0    0 -0.22717582238E-01 -0.78891383113E-02  0.45987534511E-02  0.24484190396E-01  0.00000000000E+00 0.  1.
     999901    1    3    3    0    0 -0.12941700907E-01  0.35541769196E-02  0.11973493765E+00  0.88820975850E+00  0.88000000000E+00 0.  1.
        -11    1    4    4    0    0  0.21592493118E-01 -0.77967610678E-02 -0.78160300558E-01  0.81463605043E-01  0.51100000000E-03 0.  1.
         11    1    4    4    0    0  0.14066790027E-01  0.12131722460E-01 -0.46173390547E-01  0.49772446063E-01  0.51100000000E-03 0. -1.
</event>
<event>
 8    1  0.1088021E+005  0.1043930E+01  0.7957747E-01            NaN
         13   -1    0    0    0    0  0.00000000000E+00  0.00000000000E+00  0.74505805969E-08  0.10566000000E+00  0.10566000000E+00 0.  1.
     999900   -1    0    0    0    0 -0.00000000000E+00 -0.00000000000E+00 -0.74505805969E-08  0.93827000000E+00  0.93827000000E+00 0.  1.
     999902    2    1    2    0    0  0.62461656298E-02 -0.77470856326E-02 -0.18532091781E-01  0.10228950209E+01  0.10226787146E+01 0.  0.
     999903    2    3    3    0    0  0.65471654939E-01  0.57788275076E-01  0.95696817674E-01  0.13112667324E+00  0.20255892634E-01 0.  0.
         14    1    1    2    0    0 -0.62461656298E-02  0.77470856326E-02  0.18532091781E-01  0.21034979122E-01  0.00000000000E+00 0.  1.
     999901    1    3    3    0    0 -0.59225489309E-01 -0.65535360709E-01 -0.11422890946E+00  0.89176834763E+00  0.88000000000E+00 0.  1.
        -11    1    4    4    0    0  0.39035473334E-01  0.31581338987E-01  0.68904585009E-01  0.85259909142E-01  0.51100000000E-03 0. -1.
         11    1    4    4    0    0  0.26436181604E-01  0.26206936089E-01  0.26792232665E-01  0.45866764102E-01  0.51100000000E-03 0.  1.
</event>
<event>
 8    1  0.1088021E+005  0.1043930E+01  0.7957747E-01            NaN
         13   -1    0    0    0    0  0.00000000000E+00  0.00000000000E+00  0.74505805969E-08  0.10566000000E+00  0.10566000000E+00 0.  1.
     999900   -1    0    0    0    0 -0.00000000000E+00 -0.00000000000E+00 -0.74505805969E-08  0.93827000000E+00  0.93827000000E+00 0. -1.
     999902    2    1    2    0    0  0.21896801233E-02  0.19359390475E-01  0.10209197778E-01  0.10219343546E+01  0.10216976151E+01 0.  0.
     999903    2    3    3    0    0  0.53630597663E-01  0.10283420040E+00 -0.62815480705E-01  0.13348243378E+00  0.20510039811E-01 0.  0.
         14    1    1    2    0    0 -0.21896801233E-02 -0.19359390475E-01 -0.10209197778E-01  0.21995645430E-01  0.00000000000E+00 0. -1.
     999901    1    3    3    0    0 -0.51440917540E-01 -0.83474809928E-01  0.73024678483E-01  0.88845192079E+00  0.88000000000E+00 0.  1.
        -11    1    4    4    0    0  0.11449897173E-01  0.35824434703E-01 -0.28467867907E-01  0.47171717069E-01  0.51100000000E-03 0. -1.
         11    1    4    4    0    0  0.42180700490E-01  0.67009765700E-01 -0.34347612798E-01  0.86310716710E-01  0.51100000000E-03 0.  1.
</event>
<event>
 8    1  0.1088021E+005  0.1043930E+01  0.7957747E-01            NaN
         13   -1    0    0    0    0  0.00000000000E+00  0.00000000000E+00  0.74505805969E-08  0.10566000000E+00  0.10566000000E+00 0. -1.
     999900   -1    0    0    0    0 -0.00000000000E+00 -0.00000000000E+00 -0.74505805969E-08  0.93827000000E+00  0.93827000000E+00 0.  1.
     999902    2    1    2    0    0 -0.96034769292E-02  0.16686885675E-01 -0.11947561380E-01  0.10212711575E+01  0.10210197618E+01 0.  0.
     999903    2    3    3    0    0 -0.99317384452E-01 -0.83562650293E-01  0.13945063714E-02  0.13094730321E+00  0.17279820345E-01 0.  0.
         14    1    1    2    0    0  0.96034769292E-02 -0.16686885675E-01  0.11947561380E-01  0.22658842547E-01  0.00000000000E+00 0. -1.
     999901    1    3    3    0    0  0.89713907523E-01  0.10024953597E+00 -0.13342067751E-01  0.89032385424E+00  0.88000000000E+00 0.  1.
        -11    1    4    4    0    0 -0.70278299347E-01 -0.68649934744E-01 -0.46025487388E-03  0.98246251099E-01  0.51100000000E-03 0.  1.
         11    1    4    4    0    0 -0.29039085106E-01 -0.14912715549E-01  0.18547612453E-02  0.32701052110E-01  0.51100000000E-03 0. -1.
</event>
<event>
 7    1  0.1088021E+005  0.1043930E+01  0.7957747E-01            NaN
         13   -1    0    0    0    0  0.00000000000E+00  0.00000000000E+00  0.74505805969E-08  0.10566000000E+00  0.10566000000E+00 0.  1.
     999900   -1    0    0    0    0 -0.00000000000E+00 -0.00000000000E+00 -0.74505805969E-08  0.93827000000E+00  0.93827000000E+00 0. -1.
     999903    2    1    2    0    0  0.85525352107E-02 -0.84335745084E-01  0.24263086600E-01  0.91645776305E-01  0.24991742352E-01 0.  0.
         14    1    1    2    0    0  0.56677224915E-01  0.66398773136E-02  0.30613513808E-01  0.64757880003E-01  0.00000000000E+00 0.  1.
     999901    1    1    2    0    0 -0.65229760126E-01  0.77695867770E-01 -0.54876600408E-01  0.88752634369E+00  0.88000000000E+00 0. -1.
        -11    1    3    3    0    0  0.45902141527E-02 -0.29657422117E-01 -0.34550334556E-02  0.30213095336E-01  0.51100000000E-03 0. -1.
         11    1    3    3    0    0  0.39623210580E-02 -0.54678322967E-01  0.27718120055E-01  0.61432680969E-01  0.51100000000E-03 0.  1.
</event>
<event>
 8    1  0.1088021E+005  0.1043930E+01  0.7957747E-01            NaN
         13   -1    0    0    0    0  0.00000000000E+00  0.00000000000E+00  0.74505805969E-08  0.10566000000E+00  0.10566000000E+00 0.  1.
     999900   -1    0    0    0    0 -0.00000000000E+00 -0.00000000000E+00 -0.74505805969E-08  0.93827000000E+00  0.93827000000E+00 0.  1.
     999902    2    1    2    0    0  0.10778776899E-01 -0.10145062319E-01 -0.19817150827E-01  0.10191949280E+01  0.10188947332E+01 0.  0.
     999903    2    3    3    0    0  0.52685095918E-01 -0.95032318081E-01 -0.72908457575E-01  0.13252662889E+00  0.20995317731E-01 0.  0.
         14    1    1    2    0    0 -0.10778776899E-01  0.10145062319E-01  0.19817150827E-01  0.24735072019E-01  0.00000000000E+00 0.  1.
     999901    1    3    3    0    0 -0.41906319019E-01  0.84887255762E-01  0.53091306748E-01  0.88666829909E+00  0.88000000000E+00 0. -1.
        -11    1    4    4    0    0  0.72264729301E-02 -0.20849762665E-01 -0.63044133257E-02  0.22955201210E-01  0.51100000000E-03 0.  1.
         11    1    4    4    0    0  0.45458622988E-01 -0.74182555416E-01 -0.66604044249E-01  0.10957142768E+00  0.51100000000E-03 0. -1.
</event>
<event>
 8    1  0.1088021E+005  0.1043930E+01  0.7957747E-01            NaN
         13   -1    0    0    0    0  0.00000000000E+00  0.00000000000E+00  0.74505805969E-08  0.10566000000E+00  0.10566000000E+00 0.  1.
     999900   -1    0    0    0    0 -0.00000000000E+00 -0.00000000000E+00 -0.74505805969E-08  0.93827000000E+00  0.93827000000E+00 0. -1.
     999902    2    1    2    0    0 -0.10096815781E-01 -0.17791190631E-01 -0.10162761048E-01  0.10210880678E+01  0.10208325467E+01 0.  0.
     999903    2    3    3    0    0  0.42659375108E-01  0.67175430146E-01  0.99166878878E-01  0.12870053291E+00  0.19934808872E-01 0.  0.
         14    1    1    2    0    0  0.10096815781E-01  0.17791190631E-01  0.10162761048E-01  0.22841932166E-01  0.00000000000E+00 0.  1.
     999901    1    3    3    0    0 -0.52756190888E-01 -0.84966620777E-01 -0.10932963993E+00  0.89238753493E+00  0.88000000000E+00 0. -1.
        -11    1    4    4    0    0  0.70773733969E-02  0.23891978700E-01  0.40646950226E-01  0.47679676426E-01  0.51100000000E-03 0. -1.
         11    1    4    4    0    0  0.35582001711E-01  0.43283451446E-01  0.58519928652E-01  0.81020856483E-01  0.51100000000E-03 0.  1.
</event>
<event>
 8    1  0.1088021E+005  0.1043930E+01  0.7957747E-01            NaN
         13   -1    0    0    0    0  0.00000000000E+00  0.00000000000E+00  0.74505805969E-08  0.10566000000E+00  0.10566000000E+00 0. -1.
     999900   -1    0    0    0    0 -0.00000000000E+00 -0.00000000000E+00 -0.74505805969E-08  0.93827000000E+00  0.93827000000E+00 0.  1.
     999902    2    1    2    0    0 -0.62369646523E-02 -0.22485857426E-01  0.38819014439E-04  0.10205951544E+01  0.10203283561E+01 0.  0.
     999903    2    3    3    0    0  0.10079879795E+00 -0.56558309764E-01  0.59349535632E-01  0.13147460712E+00  0.20098877243E-01 0.  0.
         14    1    1    2    0    0  0.62369646523E-02  0.22485857426E-01 -0.38819014439E-04  0.23334845600E-01  0.00000000000E+00 0.  1.
     999901    1    3    3    0    0 -0.10703576261E+00  0.34072452338E-01 -0.59310716617E-01  0.88912054728E+00  0.88000000000E+00 0.  1.
        -11    1    4    4    0    0  0.64247027586E-01 -0.46551074207E-01  0.37942162846E-01  0.87946301263E-01  0.51100000000E-03 0.  1.
         11    1    4    4    0    0  0.36551770367E-01 -0.10007235557E-01  0.21407372786E-01  0.43528305860E-01  0.51100000000E-03 0. -1.
</event>
<event>
 8    1  0.1088021E+005  0.1043930E+01  0.7957747E-01            NaN
         13   -1    0    0    0    0  0.00000000000E+00  0.00000000000E+00  0.74505805969E-08  0.10566000000E+00  0.10566000000E+00 0. -1.
     999900   -1    0    0    0    0 -0.00000000000E+00 -0.00000000000E+00 -0.74505805969E-08  0.93827000000E+00  0.93827000000E+00 0.  1.
     999902    2    1    2    0    0  0.13579436958E-01  0.18964564612E-01 -0.17211534225E-02  0.10205415800E+01  0.10202735410E+01 0.  0.
     999903    2    3    3    0    0  0.99616565641E-01  0.45082387383E-01 -0.73181200652E-01  0.13307830388E+00  0.19961588949E-01 0.  0.
         14    1    1    2    0    0 -0.13579436958E-01 -0.18964564612E-01  0.17211534225E-02  0.23388419958E-01  0.00000000000E+00 0.  1.
     999901    1    3    3    0    0 -0.86037128683E-01 -0.26117822771E-01  0.71460047230E-01  0.88746327616E+00  0.88000000000E+00 0. -1.
        -11    1    4    4    0    0  0.36605524109E-01  0.19198371914E-01 -0.16687995640E-01  0.44579055609E-01  0.51100000000E-03 0. -1.
         11    1    4    4    0    0  0.63011041532E-01  0.25884015469E-01 -0.56493205012E-01  0.88499248275E-01  0.51100000000E-03 0.  1.
</event>
<event>
 8    1  0.1088021E+005  0.1043930E+01  0.7957747E-01            NaN
         13   -1    0    0    0    0  0.00000000000E+00  0.00000000000E+00  0.74505805969E-08  0.10566000000E+00  0.10566000000E+00 0. -1.
     999900   -1    0    0    0    0 -0.00000000000E+00 -0.00000000000E+00 -0.74505805969E-08  0.93827000000E+00  0.93827000000E+00 0. -1.
     999902    2    1    2    0    0 -0.21023385946E-01 -0.73000071184E-02 -0.62566188397E-03  0.10216664802E+01  0.10214238750E+01 0.  0.
     999903    2    3    3    0    0 -0.71268940383E-01  0.10471954223E+00 -0.32921558084E-01  0.13255680189E+00  0.21024565429E-01 0.  0.
         14    1    1    2    0    0  0.21023385946E-01  0.73000071184E-02  0.62566188397E-03  0.22263519788E-01  0.00000000000E+00 0. -1.
     999901    1    3    3    0    0  0.50245554437E-01 -0.11201954935E+00  0.32295896200E-01  0.88910967832E+00  0.88000000000E+00 0.  1.
        -11    1    4    4    0    0 -0.18057373151E-01  0.27137317069E-01  0.82086686913E-03  0.32610391691E-01  0.51100000000E-03 0.  1.
         11    1    4    4    0    0 -0.53211567232E-01  0.77582225163E-01 -0.33742424954E-01  0.99946410197E-01  0.51100000000E-03 0. -1.
</event>
<event>
 8    1  0.1088021E+005  0.1043930E+01  0.7957747E-01            NaN
         13   -1    0    0    0    0  0.00000000000E+00  0.00000000000E+00  0.74505805969E-08  0.10566000000E+00  0.10566000000E+00 0.  1.
     999900   -1    0    0    0    0 -0.00000000000E+00 -0.00000000000E+00 -0.74505805969E-08  0.93827000000E+00  0.93827000000E+00 0. -1.
     999902    2    1    2    0    0  0.16765150122E-01 -0.12086331799E-01 -0.10727876175E-01  0.10206440170E+01  0.10203783477E+01 0.  0.
     999903    2    3    3    0    0  0.79994349531E-01  0.10019849879E+00  0.16158059020E-01  0.13085265479E+00  0.20554787220E-01 0.  0.
         14    1    1    2    0    0 -0.16765150122E-01  0.12086331799E-01  0.10727876175E-01  0.23285982955E-01  0.00000000000E+00 0.  1.
     999901    1    3    3    0    0 -0.63229199410E-01 -0.11228483059E+00 -0.26885935194E-01  0.88979136226E+00  0.88000000000E+00 0.  1.
        -11    1    4    4    0    0  0.18736568076E-01  0.34089354208E-01 -0.18335029870E-02  0.38945678936E-01  0.51100000000E-03 0.  1.
         11    1    4    4    0    0  0.61257781456E-01  0.66109144578E-01  0.17991562007E-01  0.91906975851E-01  0.51100000000E-03 0. -1.
</event>
<event>
 8    1  0.1088021E+005  0.1043930E+01  0.7957747E-01            NaN
         13   -1    0    0    0    0  0.00000000000E+00  0.00000000000E+00  0.74505805969E-08  0.10566000000E+00  0.10566000000E+00 0. -1.
     999900   -1    0    0    0    0 -0.00000000000E+00 -0.00000000000E+00 -0.74505805969E-08  0.93827000000E+00  0.93827000000E+00 0. -1.
     999902    2    1    2    0    0  0.17828321566E-01 -0.15657926181E-01 -0.36202382408E-02  0.10199273787E+01  0.10196449049E+01 0.  0.
     999903    2    3    3    0    0 -0.92415655303E-01  0.80301364754E-01 -0.29724655751E-01  0.12749062437E+00  0.19527970084E-01 0.  0.
         14    1    1    2    0    0 -0.17828321566E-01  0.15657926181E-01  0.36202382408E-02  0.24002621254E-01  0.00000000000E+00 0. -1.
     999901    1    3    3    0    0  0.11024397687E+00 -0.95959290934E-01  0.26104417511E-01  0.89243675438E+00  0.88000000000E+00 0.  1.
        -11    1    4    4    0    0 -0.53848761892E-01  0.43603691236E-01 -0.71345667230E-02  0.69657262436E-01  0.51100000000E-03 0. -1.
         11    1    4    4    0    0 -0.38566893411E-01  0.36697673518E-01 -0.22590089028E-01  0.57833361931E-01  0.51100000000E-03 0.  1.
</event>
<event>
 8    1  0.1088021E+005  0.1043930E+01  0.7957747E-01            NaN
         13   -1    0    0    0    0  0.00000000000E+00  0.00000000000E+00  0.74505805969E-08  0.10566000000E+00  0.10566000000E+00 0. -1.
     999900   -1    0    0    0    0 -0.00000000000E+00 -0.00000000000E+00 -0.74505805969E-08  0.93827000000E+00  0.93827000000E+00 0.  1.
     999902    2    1    2    0    0  0.15254902280E-01 -0.18772124923E-01 -0.13778914074E-01  0.10160918393E+01  0.10157104227E+01 0.  0.
     999903    2    3    3    0    0 -0.11280391397E+00 -0.47872688780E-01 -0.23238118177E-01  0.12629670571E+00  0.19857754085E-01 0.  0.
         14    1    1    2    0    0 -0.15254902280E-01  0.18772124923E-01  0.13778914074E-01  0.27838160693E-01  0.00000000000E+00 0. -1.
     999901    1    3    3    0    0  0.12805881625E+00  0.29100563857E-01  0.94592041033E-02  0.88979513360E+00  0.88000000000E+00 0. -1.
        -11    1    4    4    0    0 -0.10808473091E+00 -0.43868649054E-01 -0.25981694820E-01  0.11950764416E+00  0.51100000000E-03 0. -1.
         11    1    4    4    0    0 -0.47191830657E-02 -0.40040397267E-02  0.27435766428E-02  0.67890615505E-02  0.51100000000E-03 0.  1.
</event>
<event>
 8    1  0.1088021E+005  0.1043930E+01  0.7957747E-01            NaN
         13   -1    0    0    0    0  0.00000000000E+00  0.00000000000E+00  0.74505805969E-08  0.10566000000E+00  0.10566000000E+00 0.  1.
     999900   -1    0    0    0    0 -0.00000000000E+00 -0.00000000000E+00 -0.74505805969E-08  0.93827000000E+00  0.93827000000E+00 0.  1.
     999902    2    1    2    0    0 -0.17375504987E-01  0.85189408546E-03  0.17234672128E-01  0.10194418841E+01  0.10191477259E+01 0.  0.
     999903    2    3    3    0    0  0.40259093448E-01 -0.82578077172E-01  0.90617364720E-01  0.13058456899E+00  0.20022223555E-01 0.  0.
         14    1    1    2    0    0  0.17375504987E-01 -0.85189408546E-03 -0.17234672128E-01  0.24488115902E-01  0.00000000000E+00 0. -1.
     999901    1    3    3    0    0 -0.57634598435E-01  0.83429971257E-01 -0.73382692592E-01  0.88885731510E+00  0.88000000000E+00 0.  1.
        -11    1    4    4    0    0  0.35093662622E-01 -0.53315976378E-01  0.55551711219E-01  0.84619219056E-01  0.51100000000E-03 0. -1.
         11    1    4    4    0    0  0.51654308257E-02 -0.29262100794E-01  0.35065653501E-01  0.45965349938E-01  0.51100000000E-03 0.  1.
</event>
<event>
 8    1  0.1088021E+005  0.1043930E+01  0.7957747E-01            NaN
         13   -1    0    0    0    0  0.00000000000E+00  0.00000000000E+00  0.74505805969E-08  0.10566000000E+00  0.10566000000E+00 0. -1.
     999900   -1    0    0    0    0 -0.00000000000E+00 -0.00000000000E+00 -0.74505805969E-08  0.93827000000E+00  0.93827000000E+00 0.  1.
     999902    2    1    2    0    0 -0.21124859261E-01 -0.19381112488E-02  0.88766580888E-02  0.10209341088E+01  0.10206750920E+01 0.  0.
     999903    2    3    3    0    0  0.38485171566E-01  0.10403778034E+00  0.67897323337E-01  0.13061524214E+00  0.12055156387E-01 0.  0.
         14    1    1    2    0    0  0.21124859261E-01  0.19381112488E-02 -0.88766580888E-02  0.22995891216E-01  0.00000000000E+00 0. -1.
     999901    1    3    3    0    0 -0.59610030827E-01 -0.10597589159E+00 -0.59020665248E-01  0.89031886664E+00  0.88000000000E+00 0.  1.
        -11    1    4    4    0    0  0.16581711871E-01  0.61195548730E-01  0.36526898264E-01  0.73173244910E-01  0.51100000000E-03 0.  1.
         11    1    4    4    0    0  0.21903459695E-01  0.42842231608E-01  0.31370425072E-01  0.57441997232E-01  0.51100000000E-03 0. -1.
</event>
<event>
 7    1  0.1088021E+005  0.1043930E+01  0.7957747E-01            NaN
         13   -1    0    0    0    0  0.00000000000E+00  0.00000000000E+00  0.74505805969E-08  0.10566000000E+00  0.10566000000E+00 0.  1.
     999900   -1    0    0    0    0 -0.00000000000E+00 -0.00000000000E+00 -0.74505805969E-08  0.93827000000E+00  0.93827000000E+00 0.  1.
     999903    2    1    2    0    0 -0.72855887524E-01  0.64350162390E-01 -0.29462657006E-01  0.10347851336E+00  0.19769441640E-01 0.  0.
         14    1    1    2    0    0 -0.21039398713E-01 -0.17677888501E-01 -0.43257308029E-01  0.51248012039E-01  0.00000000000E+00 0. -1.
     999901    1    1    2    0    0  0.93895286237E-01 -0.46672273889E-01  0.72719965035E-01  0.88920347460E+00  0.88000000000E+00 0. -1.
        -11    1    3    3    0    0 -0.10092959407E-01  0.10353616146E-01  0.25849039509E-02  0.14697212196E-01  0.51100000000E-03 0.  1.
         11    1    3    3    0    0 -0.62762928116E-01  0.53996546245E-01 -0.32047560957E-01  0.88781301164E-01  0.51100000000E-03 0. -1.
</event>
<event>
 8    1  0.1088021E+005  0.1043930E+01  0.7957747E-01            NaN
         13   -1    0    0    0    0  0.00000000000E+00  0.00000000000E+00  0.74505805969E-08  0.10566000000E+00  0.10566000000E+00 0.  1.
     999900   -1    0    0    0    0 -0.00000000000E+00 -0.00000000000E+00 -0.74505805969E-08  0.93827000000E+00  0.93827000000E+00 0.  1.
     999902    2    1    2    0    0  0.95137246378E-02  0.19620493068E-01 -0.97038727578E-02  0.10200628709E+01  0.10197836147E+01 0.  0.
     999903    2    3    3    0    0 -0.21443496525E-01 -0.68028188805E-01  0.10432912195E+00  0.12784979946E+00  0.19322202775E-01 0.  0.
         14    1    1    2    0    0 -0.95137246378E-02 -0.19620493068E-01  0.97038727578E-02  0.23867129094E-01  0.00000000000E+00 0.  1.
     999901    1    3    3    0    0  0.30957221163E-01  0.87648681872E-01 -0.11403299471E+00  0.89221307145E+00  0.88000000000E+00 0.  1.
        -11    1    4    4    0    0 -0.12245820907E-01 -0.53852729391E-01  0.90439711616E-01  0.10597018048E+00  0.51100000000E-03 0.  1.
         11    1    4    4    0    0 -0.91976756185E-02 -0.14175459413E-01  0.13889410334E-01  0.21879618982E-01  0.51100000000E-03 0. -1.
</event>
<event>
 8    1  0.1088021E+005  0.1043930E+01  0.7957747E-01            NaN
         13   -1    0    0    0    0  0.00000000000E+00  0.00000000000E+00  0.74505805969E-08  0.10566000000E+00  0.10566000000E+00 0.  1.
     999900   -1    0    0    0    0 -0.00000000000E+00 -0.00000000000E+00 -0.74505805969E-08  0.93827000000E+00  0.93827000000E+00 0.  1.
     999902    2    1    2    0    0 -0.21924500301E-02  0.23439843449E-01  0.12418108912E-02  0.10203551152E+01  0.10200827349E+01 0.  0.
     999903    2    3    3    0    0  0.54583612685E-01 -0.61036533592E-01 -0.97725113596E-01  0.12897739971E+00  0.19497245983E-01 0.  0.
         14    1    1    2    0    0  0.21924500301E-02 -0.23439843449E-01 -0.12418108912E-02  0.23574884779E-01  0.00000000000E+00 0. -1.
     999901    1    3    3    0    0 -0.56776062715E-01  0.84476377040E-01  0.98966924487E-01  0.89137771552E+00  0.88000000000E+00 0. -1.
        -11    1    4    4    0    0  0.30680190053E-01 -0.20369372565E-01 -0.46906090526E-01  0.59637470183E-01  0.51100000000E-03 0.  1.
         11    1    4    4    0    0  0.23903422632E-01 -0.40667161026E-01 -0.50819023070E-01  0.69339929523E-01  0.51100000000E-03 0. -1.
</event>
<event>
 8    1  0.1088021E+005  0.1043930E+01  0.7957747E-01            NaN
         13   -1    0    0    0    0  0.00000000000E+00  0.00000000000E+00  0.74505805969E-08  0.10566000000E+00  0.10566000000E+00 0.  1.
     999900   -1    0    0    0    0 -0.00000000000E+00 -0.00000000000E+00 -0.74505805969E-08  0.93827000000E+00  0.93827000000E+00 0.  1.
     999902    2    1    2    0    0 -0.14305515088E-01 -0.56208985518E-02  0.17306442426E-01  0.10207836134E+01  0.10205211562E+01 0.  0.
     999903    2    3    3    0    0 -0.27782769221E-01  0.10100601644E+00 -0.73852121861E-01  0.12957049680E+00  0.18981046250E-01 0.  0.
         14    1    1    2    0    0  0.14305515088E-01  0.56208985518E-02 -0.17306442426E-01  0.23146386585E-01  0.00000000000E+00 0. -1.
     999901    1    3    3    0    0  0.13477254133E-01 -0.10662691499E+00  0.91158564287E-01  0.89121311661E+00  0.88000000000E+00 0. -1.
        -11    1    4    4    0    0 -0.18469886718E-01  0.58376623909E-01 -0.53953018182E-01  0.81609780213E-01  0.51100000000E-03 0. -1.
         11    1    4    4    0    0 -0.93128825031E-02  0.42629392526E-01 -0.19899103679E-01  0.47960716590E-01  0.51100000000E-03 0.  1.
</event>
<event>
 8    1  0.1088021E+005  0.1043930E+01  0.7957747E-01            NaN
         13   -1    0    0    0    0  0.00000000000E+00  0.00000000000E+00  0.74505805969E-08  0.10566000000E+00  0.10566000000E+00 0. -1.
     999900   -1    0    0    0    0 -0.00000000000E+00 -0.00000000000E+00 -0.74505805969E-08  0.93827000000E+00  0.93827000000E+00 0.  1.
     999902    2    1    2    0    0  0.11058104960E-01  0.92672909270E-02 -0.19593574699E-01  0.10195974593E+01  0.10193070717E+01 0.  0.
     999903    2    3    3    0    0 -0.44301751553E-01 -0.18969932179E-01 -0.12084803114E+00  0.13161405890E+00  0.19887442059E-01 0.  0.
         14    1    1    2    0    0 -0.11058104960E-01 -0.92672909270E-02  0.19593574699E-01  0.24332540679E-01  0.00000000000E+00 0. -1.
     999901    1    3    3    0    0  0.55359856513E-01  0.28237223106E-01  0.10125445644E+00  0.88798340043E+00  0.88000000000E+00 0. -1.
        -11    1    4    4    0    0 -0.99256085113E-02 -0.14321162980E-01 -0.39220819721E-01  0.42920242707E-01  0.51100000000E-03 0. -1.
         11    1    4    4    0    0 -0.34376143042E-01 -0.46487691982E-02 -0.81627211417E-01  0.88693816189E-01  0.51100000000E-03 0.  1.
</event>
<event>
 8    1  0.1088021E+005  0.1043930E+01  0.7957747E-01            NaN
         13   -1    0    0    0    0  0.00000000000E+00  0.00000000000E+00  0.74505805969E-08  0.10566000000E+00  0.10566000000E+00 0.  1.
     999900   -1    0    0    0    0 -0.00000000000E+00 -0.00000000000E+00 -0.74505805969E-08  0.93827000000E+00  0.93827000000E+00 0. -1.
     999902    2    1    2    0    0 -0.21833924417E-01 -0.51653040087E-02  0.66719584345E-02  0.10205224019E+01  0.10202539179E+01 0.  0.
     999903    2    3    3    0    0 -0.12743061087E+00  0.32057819001E-01 -0.94375097793E-02  0.13328188428E+00  0.20217065621E-01 0.  0.
         14    1    1    2    0    0  0.21833924417E-01  0.51653040087E-02 -0.66719584345E-02  0.23407598132E-01  0.00000000000E+00 0. -1.
     999901    1    3    3    0    0  0.10559668645E+00 -0.37223123010E-01  0.16109468214E-01  0.88724051758E+00  0.88000000000E+00 0.  1.
        -11    1    4    4    0    0 -0.49150681237E-01  0.12446948378E-01  0.61925769407E-02  0.51081553619E-01  0.51100000000E-03 0. -1.
         11    1    4    4    0    0 -0.78279929631E-01  0.19610870623E-01 -0.15630086720E-01  0.82200330666E-01  0.51100000000E-03 0.  1.
</event>
<event>
 8    1  0.1088021E+005  0.1043930E+01  0.7957747E-01            NaN
         13   -1    0    0    0    0  0.00000000000E+00  0.00000000000E+00  0.74505805969E-08  0.10566000000E+00  0.10566000000E+00 0.  1.
     999900   -1    0    0    0    0 -0.00000000000E+00 -0.00000000000E+00 -0.74505805969E-08  0.93827000000E+00  0.93827000000E+00 0. -1.
     999902    2    1    2    0    0 -0.21489374496E-01  0.77704326547E-02 -0.31305775928E-02  0.10208654524E+01  0.10206048690E+01 0.  0.
     999903    2    3    3    0    0  0.10678046765E+00  0.56192836407E-01  0.41578676322E-01  0.12912737484E+00  0.19631339078E-01 0.  0.
         14    1    1    2    0    0  0.21489374496E-01 -0.77704326547E-02  0.31305775928E-02  0.23064547599E-01  0.00000000000E+00 0. -1.
     999901    1    3    3    0    0 -0.12826984214E+00 -0.48422403752E-01 -0.44709253915E-01  0.89173807756E+00  0.88000000000E+00 0.  1.
        -11    1    4    4    0    0  0.82063799102E-01  0.44762919624E-01  0.23343405103E-01  0.96350203835E-01  0.51100000000E-03 0. -1.
         11    1    4    4    0    0  0.24716668544E-01  0.11429916783E-01  0.18235271219E-01  0.32777171004E-01  0.51100000000E-03 0.  1.
</event>
<event>
 8    1  0.1088021E+005  0.1043930E+01  0.7957747E-01            NaN
         13   -1    0    0    0    0  0.00000000000E+00  0.00000000000E+00  0.74505805969E-08  0.10566000000E+00  0.10566000000E+00 0.  1.
     999900   -1    0    0    0    0 -0.00000000000E+00 -0.00000000000E+00 -0.74505805969E-08  0.93827000000E+00  0.93827000000E+00 0.  1.
     999902    2    1    2    0    0 -0.70661394851E-02  0.23205798945E-01 -0.16844428148E-03  0.10196716446E+01  0.10193830463E+01 0.  0.
     999903    2    3    3    0    0  0.14503608423E-01 -0.94512778895E-02 -0.12693360014E+00  0.12972718376E+00  0.20428461763E-01 0.  0.
         14    1    1    2    0    0  0.70661394851E-02 -0.23205798945E-01  0.16844428148E-03  0.24258355372E-01  0.00000000000E+00 0.  1.
     999901    1    3    3    0    0 -0.21569747908E-01  0.32657076834E-01  0.12676515586E+00  0.88994446087E+00  0.88000000000E+00 0. -1.
        -11    1    4    4    0    0  0.14038021281E-01  0.10989512414E-02 -0.96186259947E-01  0.97212815302E-01  0.51100000000E-03 0.  1.
         11    1    4    4    0    0  0.46558714189E-03 -0.10550229131E-01 -0.30747340194E-01  0.32514368457E-01  0.51100000000E-03 0. -1.
</event>
<event>
 8    1  0.1088021E+005  0.1043930E+01  0.7957747E-01            NaN
         13   -1    0    0    0    0  0.00000000000E+00  0.00000000000E+00  0.74505805969E-08  0.10566000000E+00  0.10566000000E+00 0. -1.
     999900   -1    0    0    0    0 -0.00000000000E+00 -0.00000000000E+00 -0.74505805969E-08  0.93827000000E+00  0.93827000000E+00 0.  1.
     999902    2    1    2    0    0 -0.19821243807E-01 -0.36893454833E-02 -0.13083486462E-01  0.10198952212E+01  0.10196119809E+01 0.  0.
     999903    2    3    3    0    0 -0.36883939899E-02  0.96638680468E-01 -0.86081156975E-01  0.13104504169E+00  0.20253359039E-01 0.  0.
         14    1    1    2    0    0  0.19821243807E-01  0.36893454833E-02  0.13083486462E-01  0.24034778845E-01  0.00000000000E+00 0. -1.
     999901    1    3    3    0    0 -0.16132849817E-01 -0.10032802595E+00  0.72997670513E-01  0.88885017947E+00  0.88000000000E+00 0. -1.
        -11    1    4    4    0    0  0.37206508900E-02  0.63779764871E-01 -0.65842759123E-01  0.91745472368E-01  0.51100000000E-03 0.  1.
         11    1    4    4    0    0 -0.74090448799E-02  0.32858915597E-01 -0.20238397852E-01  0.39299569321E-01  0.51100000000E-03 0. -1.
</event>
<event>
 8    1  0.1088021E+005  0.1043930E+01  0.7957747E-01            NaN
         13   -1    0    0    0    0  0.00000000000E+00  0.00000000000E+00  0.74505805969E-08  0.10566000000E+00  0.10566000000E+00 0.  1.
     999900   -1    0    0    0    0 -0.00000000000E+00 -0.00000000000E+00 -0.74505805969E-08  0.93827000000E+00  0.93827000000E+00 0. -1.
     999902    2    1    2    0    0 -0.50812514169E-02 -0.19779090497E-01 -0.86874972969E-02  0.10217375656E+01  0.10214965241E+01 0.  0.
     999903    2    3    3    0    0  0.23507870552E-01  0.55717131964E-01 -0.11520264721E+00  0.13164628111E+00  0.20051798803E-01 0.  0.
         14    1    1    2    0    0  0.50812514169E-02  0.19779090497E-01  0.86874972969E-02  0.22192434435E-01  0.00000000000E+00 0.  1.
     999901    1    3    3    0    0 -0.28589121969E-01 -0.75496222461E-01  0.10651514991E+00  0.89009128445E+00  0.88000000000E+00 0.  1.
        -11    1    4    4    0    0  0.62925386499E-02  0.39554157601E-01 -0.70287630606E-01  0.80899564667E-01  0.51100000000E-03 0. -1.
         11    1    4    4    0    0  0.17215331902E-01  0.16162974364E-01 -0.44915016599E-01  0.50746716444E-01  0.51100000000E-03 0.  1.
</event>
<event>
 8    1  0.1088021E+005  0.1043930E+01  0.7957747E-01            NaN
         13   -1    0    0    0    0  0.00000000000E+00  0.00000000000E+00  0.74505805969E-08  0.10566000000E+00  0.10566000000E+00 0.  1.
     999900   -1    0    0    0    0 -0.00000000000E+00 -0.00000000000E+00 -0.74505805969E-08  0.93827000000E+00  0.93827000000E+00 0. -1.
     999902    2    1    2    0    0  0.38950821005E-02  0.22793977281E-01 -0.33417688431E-02  0.10205654011E+01  0.10202979140E+01 0.  0.
     999903    2    3    3    0    0 -0.23914537103E-01 -0.33265009502E-02 -0.12733109267E+00  0.13105485771E+00  0.19473003772E-01 0.  0.
         14    1    1    2    0    0 -0.38950821005E-02 -0.22793977281E-01  0.33417688431E-02  0.23364598945E-01  0.00000000000E+00 0. -1.
     999901    1    3    3    0    0  0.27809619203E-01  0.26120478231E-01  0.12398932382E+00  0.88951054335E+00  0.88000000000E+00 0.  1.
        -11    1    4    4    0    0 -0.11670443738E-01  0.50183093875E-03 -0.10188084614E+00  0.10254959299E+00  0.51100000000E-03 0. -1.
         11    1    4    4    0    0 -0.12244093365E-01 -0.38283318890E-02 -0.25450246527E-01  0.28505264718E-01  0.51100000000E-03 0.  1.
</event>
<event>
 8    1  0.1088021E+005  0.1043930E+01  0.7957747E-01            NaN
         13   -1    0    0    0    0  0.00000000000E+00  0.00000000000E+00  0.74505805969E-08  0.10566000000E+00  0.10566000000E+00 0. -1.
     999900   -1    0    0    0    0 -0.00000000000E+00 -0.00000000000E+00 -0.74505805969E-08  0.93827000000E+00  0.93827000000E+00 0.  1.
     999902    2    1    2    0    0  0.14851176965E-01  0.37695408601E-02  0.16338270216E-01  0.10215312061E+01  0.10212856109E+01 0.  0.
     999903    2    3    3    0    0  0.94608761267E-01  0.20678856694E-01 -0.87071630710E-01  0.13173302400E+00  0.19841570388E-01 0.  0.
         14    1    1    2    0    0 -0.14851176965E-01 -0.37695408601E-02 -0.16338270216E-01  0.22398793923E-01  0.00000000000E+00 0.  1.
     999901    1    3    3    0    0 -0.79757584302E-01 -0.16909315834E-01  0.10340990093E+00  0.88979818208E+00  0.88000000000E+00 0. -1.
        -11    1    4    4    0    0  0.70182178382E-01  0.22519616801E-01 -0.71577977634E-01  0.10274404755E+00  0.51100000000E-03 0. -1.
         11    1    4    4    0    0  0.24426582885E-01 -0.18407601070E-02 -0.15493653077E-01  0.28988976454E-01  0.51100000000E-03 0.  1.
</event>
<event>
 8    1  0.1088021E+005  0.1043930E+01  0.7957747E-01            NaN
         13   -1    0    0    0    0  0.00000000000E+00  0.00000000000E+00  0.74505805969E-08  0.10566000000E+00  0.10566000000E+00 0.  1.
     999900   -1    0    0    0    0 -0.00000000000E+00 -0.00000000000E+00 -0.74505805969E-08  0.93827000000E+00  0.93827000000E+00 0.  1.
     999902    2    1    2    0    0 -0.10863992722E-01  0.16204784790E-01 -0.17782199816E-01  0.10175324998E+01  0.10171900314E+01 0.  0.
     999903    2    3    3    0    0  0.90690557410E-01 -0.51894929816E-01  0.65422150954E-01  0.12519071449E+00  0.21789819044E-01 0.  0.
         14    1    1    2    0    0  0.10863992722E-01 -0.16204784790E-01  0.17782199816E-01  0.26397500228E-01  0.00000000000E+00 0.  1.
     999901    1    3    3    0    0 -0.10155455013E+00  0.68099714607E-01 -0.83204350770E-01  0.89234178529E+00  0.88000000000E+00 0.  1.
        -11    1    4    4    0    0  0.49875670847E-01 -0.39303639944E-01  0.45089104273E-01  0.77882264351E-01  0.51100000000E-03 0. -1.
         11    1    4    4    0    0  0.40814886563E-01 -0.12591289872E-01  0.20333046680E-01  0.47308450134E-01  0.51100000000E-03 0.  1.
</event>
<event>
 8    1  0.1088021E+005  0.1043930E+01  0.7957747E-01            NaN
         13   -1    0    0    0    0  0.00000000000E+00  0.00000000000E+00  0.74505805969E-08  0.10566000000E+00  0.10566000000E+00 0.  1.
     999900   -1    0    0    0    0 -0.00000000000E+00 -0.00000000000E+00 -0.74505805969E-08  0.93827000000E+00  0.93827000000E+00 0. -1.
     999902    2    1    2    0    0  0.15346911992E-01  0.79023483507E-02  0.18346254610E-01  0.10187395281E+01  0.10184280368E+01 0.  0.
     999903    2    3    3    0    0  0.80302466789E-01  0.10179732355E+00  0.59201175283E-04  0.13117549840E+00  0.19895391966E-01 0.  0.
         14    1    1    2    0    0 -0.15346911992E-01 -0.79023483507E-02 -0.18346254610E-01  0.25190471916E-01  0.00000000000E+00 0. -1.
     999901    1    3    3    0    0 -0.64955554797E-01 -0.93894975198E-01  0.18287053435E-01  0.88756402968E+00  0.88000000000E+00 0. -1.
        -11    1    4    4    0    0  0.54982951475E-01  0.80437059032E-01 -0.54662728917E-02  0.97587840835E-01  0.51100000000E-03 0.  1.
         11    1    4    4    0    0  0.25319515314E-01  0.21360264517E-01  0.55254740670E-02  0.33587657564E-01  0.51100000000E-03 0. -1.
</event>
<event>
 8    1  0.1088021E+005  0.1043930E+01  0.7957747E-01            NaN
         13   -1    0    0    0    0  0.00000000000E+00  0.00000000000E+00  0.74505805969E-08  0.10566000000E+00  0.10566000000E+00 0.  1.
     999900   -1    0    0    0    0 -0.00000000000E+00 -0.00000000000E+00 -0.74505805969E-08  0.93827000000E+00  0.93827000000E+00 0. -1.
     999902    2    1    2    0    0 -0.20444862083E-01  0.80581360176E-02  0.65718172567E-02  0.10209928092E+01  0.10207351280E+01 0.  0.
     999903    2    3    3    0    0 -0.73982673705E-01 -0.61865689671E-01 -0.87312633979E-01  0.13162790719E+00  0.20040217845E-01 0.  0.
         14    1    1    2    0    0  0.20444862083E-01 -0.80581360176E-02 -0.65718172567E-02  0.22937190842E-01  0.00000000000E+00 0. -1.
     999901    1    3    3    0    0  0.53537811622E-01  0.69923825689E-01  0.93884451236E-01  0.88936490197E+00  0.88000000000E+00 0.  1.
        -11    1    4    4    0    0 -0.23930156002E-01 -0.32704265242E-01 -0.34030790716E-01  0.52920479676E-01  0.51100000000E-03 0. -1.
         11    1    4    4    0    0 -0.50052517703E-01 -0.29161424429E-01 -0.53281843263E-01  0.78707427512E-01  0.51100000000E-03 0.  1.
</event>
<event>
 8    1  0.1088021E+005  0.1043930E+01  0.7957747E-01            NaN
         13   -1    0    0    0    0  0.00000000000E+00  0.00000000000E+00  0.74505805969E-08  0.10566000000E+00  0.10566000000E+00 0.  1.
     999900   -1    0    0    0    0 -0.00000000000E+00 -0.00000000000E+00 -0.74505805969E-08  0.93827000000E+00  0.93827000000E+00 0. -1.
     999902    2    1    2    0    0  0.72511144972E-02  0.10317314185E-01  0.18687370179E-01  0.10213857449E+01  0.10211369137E+01 0.  0.
     999903    2    3    3    0    0 -0.55417491434E-01  0.73846182339E-01 -0.89489371305E-01  0.13028222755E+00  0.20994147635E-01 0.  0.
         14    1    1    2    0    0 -0.72511144972E-02 -0.10317314185E-01 -0.18687370179E-01  0.22544255092E-01  0.00000000000E+00 0. -1.
     999901    1    3    3    0    0  0.62668605931E-01 -0.63528868154E-01  0.10817674148E+00  0.89110351736E+00  0.88000000000E+00 0.  1.
        -11    1    4    4    0    0 -0.32881607125E-01  0.36807251669E-01 -0.34338574976E-01  0.60127969490E-01  0.51100000000E-03 0. -1.
         11    1    4    4    0    0 -0.22535884310E-01  0.37038930669E-01 -0.55150796328E-01  0.70154258056E-01  0.51100000000E-03 0.  1.
</event>
<event>
 8    1  0.1088021E+005  0.1043930E+01  0.7957747E-01            NaN
         13   -1    0    0    0    0  0.00000000000E+00  0.00000000000E+00  0.74505805969E-08  0.10566000000E+00  0.10566000000E+00 0.  1.
     999900   -1    0    0    0    0 -0.00000000000E+00 -0.00000000000E+00 -0.74505805969E-08  0.93827000000E+00  0.93827000000E+00 0. -1.
     999902    2    1    2    0    0  0.19993517887E-01 -0.19746521720E-02  0.14373433674E-01  0.10192270527E+01  0.10189276468E+01 0.  0.
     999903    2    3    3    0    0  0.44416157566E-01 -0.10082490347E+00 -0.65499830407E-01  0.12976228342E+00  0.20237742051E-01 0.  0.
         14    1    1    2    0    0 -0.19993517887E-01  0.19746521720E-02 -0.14373433674E-01  0.24702947279E-01  0.00000000000E+00 0.  1.
     999901    1    3    3    0    0 -0.24422639680E-01  0.98850251295E-01  0.79873264082E-01  0.88946476930E+00  0.88000000000E+00 0.  1.
        -11    1    4    4    0    0  0.24052406792E-01 -0.61828420801E-01 -0.50147761118E-01  0.83164481345E-01  0.51100000000E-03 0. -1.
         11    1    4    4    0    0  0.20363750774E-01 -0.38996482666E-01 -0.15352069289E-01  0.46597802077E-01  0.51100000000E-03 0.  1.
</event>
<event>
 7    1  0.1088021E+005  0.1043930E+01  0.7957747E-01            NaN
         13   -1    0    0    0    0  0.00000000000E+00  0.00000000000E+00  0.74505805969E-08  0.10566000000E+00  0.10566000000E+00 0.  1.
     999900   -1    0    0    0    0 -0.00000000000E+00 -0.00000000000E+00 -0.74505805969E-08  0.93827000000E+00  0.93827000000E+00 0.  1.
     999902    2    1    2    0    0 -0.73804045786E-02  0.11288686758E-01  0.21790444178E-01  0.10183032898E+01  0.10179807767E+01 0.  0.
         14    1    1    2    0    0  0.73804045786E-02 -0.11288686758E-01 -0.21790444178E-01  0.25626710244E-01  0.00000000000E+00 0. -1.
     999901    1    3    3    0    0 -0.81240211325E-01  0.73570561412E-01  0.92412731905E-01  0.89160120708E+00  0.88000000000E+00 0. -1.
        -11    1    3    3    0    0  0.17693786551E-01 -0.19868759416E-01  0.53642427282E-03  0.26615532218E-01  0.51100000000E-03 0.  1.
         11    1    3    3    0    0  0.56166020195E-01 -0.42413115238E-01 -0.71158711999E-01  0.10008655046E+00  0.51100000000E-03 0. -1.
</event>
<event>
 8    1  0.1088021E+005  0.1043930E+01  0.7957747E-01            NaN
         13   -1    0    0    0    0  0.00000000000E+00  0.00000000000E+00  0.74505805969E-08  0.10566000000E+00  0.10566000000E+00 0. -1.
     999900   -1    0    0    0    0 -0.00000000000E+00 -0.00000000000E+00 -0.74505805969E-08  0.93827000000E+00  0.93827000000E+00 0. -1.
     999902    2    1    2    0    0 -0.38199752672E-02 -0.16041471099E-02 -0.23440450793E-01  0.10201262139E+01  0.10198484554E+01 0.  0.
     999903    2    3    3    0    0  0.98704177730E-01 -0.56182527190E-01  0.57499125430E-01  0.12881189420E+00  0.19681554781E-01 0.  0.
         14    1    1    2    0    0  0.38199752672E-02  0.16041471099E-02  0.23440450793E-01  0.23803786094E-01  0.00000000000E+00 0. -1.
     999901    1    3    3    0    0 -0.10252415300E+00  0.54578380080E-01 -0.80939576223E-01  0.89131431971E+00  0.88000000000E+00 0. -1.
        -11    1    4    4    0    0  0.39527387921E-01 -0.24551585175E-01  0.34312177252E-01  0.57816791326E-01  0.51100000000E-03 0.  1.
         11    1    4    4    0    0  0.59176789809E-01 -0.31630942015E-01  0.23186948178E-01  0.70995102871E-01  0.51100000000E-03 0. -1.
</event>
<event>
 8    1  0.1088021E+005  0.1043930E+01  0.7957747E-01            NaN
         13   -1    0    0    0    0  0.00000000000E+00  0.00000000000E+00  0.74505805969E-08  0.10566000000E+00  0.10566000000E+00 0. -1.
     999900   -1    0    0    0    0 -0.00000000000E+00 -0.00000000000E+00 -0.74505805969E-08  0.93827000000E+00  0.93827000000E+00 0.  1.
     999902    2    1    2    0    0 -0.11915426000E-01  0.98527338055E-02  0.16587457666E-01  0.10212540768E+01  0.10210022977E+01 0.  0.
     999903    2    3    3    0    0 -0.59893945395E-01 -0.64628171361E-01  0.98023724489E-01  0.13306422712E+00  0.18257950266E-01 0.  0.
         14    1    1    2    0    0  0.11915426000E-01 -0.98527338055E-02 -0.16587457666E-01  0.22675923179E-01  0.00000000000E+00 0.  1.
     999901    1    3    3    0    0  0.47978519395E-01  0.74480905167E-01 -0.81436266823E-01  0.88818984970E+00  0.88000000000E+00 0.  1.
        -11    1    4    4    0    0 -0.30613371841E-01 -0.44965099557E-01  0.64805156993E-01  0.84610922508E-01  0.51100000000E-03 0.  1.
         11    1    4    4    0    0 -0.29280573553E-01 -0.19663071804E-01  0.33218567496E-01  0.48453304612E-01  0.51100000000E-03 0. -1.
</event>
<event>
 8    1  0.1088021E+005  0.1043930E+01  0.7957747E-01            NaN
         13   -1    0    0    0    0  0.00000000000E+00  0.00000000000E+00  0.74505805969E-08  0.10566000000E+00  0.10566000000E+00 0. -1.
     999900   -1    0    0    0    0 -0.00000000000E+00 -0.00000000000E+00 -0.74505805969E-08  0.93827000000E+00  0.93827000000E+00 0. -1.
     999902    2    1    2    0    0  0.17847906289E-01  0.17128383664E-01 -0.52260608056E-02  0.10186467843E+01  0.10183329662E+01 0.  0.
     999903    2    3    3    0    0 -0.37036289263E-01  0.97868899278E-01 -0.76299451703E-01  0.13039978446E+00  0.15247599459E-01 0.  0.
         14    1    1    2    0    0 -0.17847906289E-01 -0.17128383664E-01  0.52260608056E-02  0.25283215725E-01  0.00000000000E+00 0. -1.
     999901    1    3    3    0    0  0.54884195552E-01 -0.80740515613E-01  0.71073390898E-01  0.88824699981E+00  0.88000000000E+00 0.  1.
        -11    1    4    4    0    0 -0.17809244091E-01  0.46124678021E-01 -0.26737236173E-01  0.56212062912E-01  0.51100000000E-03 0. -1.
         11    1    4    4    0    0 -0.19227045172E-01  0.51744221257E-01 -0.49562215530E-01  0.74187721550E-01  0.51100000000E-03 0.  1.
</event>
<event>
 8    1  0.1088021E+005  0.1043930E+01  0.7957747E-01            NaN
         13   -1    0    0    0    0  0.00000000000E+00  0.00000000000E+00  0.74505805969E-08  0.10566000000E+00  0.10566000000E+00 0.  1.
     999900   -1    0    0    0    0 -0.00000000000E+00 -0.00000000000E+00 -0.74505805969E-08  0.93827000000E+00  0.93827000000E+00 0.  1.
     999902    2    1    2    0    0 -0.60031498947E-02  0.19191335670E-01 -0.11036393250E-01  0.10209921023E+01  0.10207344052E+01 0.  0.
     999903    2    3    3    0    0 -0.48132953670E-01  0.75679556917E-01  0.96106148980E-01  0.13169723343E+00  0.79745129147E-02 0.  0.
         14    1    1    2    0    0  0.60031498947E-02 -0.19191335670E-01  0.11036393250E-01  0.22937897668E-01  0.00000000000E+00 0. -1.
     999901    1    3    3    0    0  0.42129803775E-01 -0.56488221247E-01 -0.10714254223E+00  0.88929486891E+00  0.88000000000E+00 0.  1.
        -11    1    4    4    0    0 -0.28991333670E-01  0.42314929744E-01  0.49760964416E-01  0.71466533481E-01  0.51100000000E-03 0.  1.
         11    1    4    4    0    0 -0.19141620000E-01  0.33364627174E-01  0.46345184564E-01  0.60230699946E-01  0.51100000000E-03 0. -1.
</event>
<event>
 8    1  0.1088021E+005  0.1043930E+01  0.7957747E-01            NaN
         13   -1    0    0    0    0  0.00000000000E+00  0.00000000000E+00  0.74505805969E-08  0.10566000000E+00  0.10566000000E+00 0. -1.
     999900   -1    0    0    0    0 -0.00000000000E+00 -0.00000000000E+00 -0.74505805969E-08  0.93827000000E+00  0.93827000000E+00 0.  1.
     999902    2    1    2    0    0  0.52333591731E-02  0.16081366913E-01 -0.17027334315E-01  0.10199314891E+01  0.10196491132E+01 0.  0.
     999903    2    3    3    0    0  0.96682821191E-01  0.86056638323E-01 -0.18968947101E-01  0.13242751023E+00  0.20589113575E-01 0.  0.
         14    1    1    2    0    0 -0.52333591731E-02 -0.16081366913E-01  0.17027334315E-01  0.23998510868E-01  0.00000000000E+00 0. -1.
     999901    1    3    3    0    0 -0.91449462018E-01 -0.69975271410E-01  0.19416127863E-02  0.88750397891E+00  0.88000000000E+00 0. -1.
        -11    1    4    4    0    0  0.66658634677E-01  0.70960029314E-01 -0.11925756311E-01  0.98087634908E-01  0.51100000000E-03 0. -1.
         11    1    4    4    0    0  0.30024186514E-01  0.15096609009E-01 -0.70431907907E-02  0.34339875319E-01  0.51100000000E-03 0.  1.
</event>
<event>
 8    1  0.1088021E+005  0.1043930E+01  0.7957747E-01            NaN
         13   -1    0    0    0    0  0.00000000000E+00  0.00000000000E+00  0.74505805969E-08  0.10566000000E+00  0.10566000000E+00 0.  1.
     999900   -1    0    0    0    0 -0.00000000000E+00 -0.00000000000E+00 -0.74505805969E-08  0.93827000000E+00  0.93827000000E+00 0.  1.
     999902    2    1    2    0    0 -0.48973030407E-02 -0.21501631321E-01 -0.82240790034E-02  0.10203940870E+01  0.10201226169E+01 0.  0.
     999903    2    3    3    0    0 -0.91502663754E-01 -0.41118697926E-01 -0.84269668042E-01  0.13266200497E+00  0.20840964887E-01 0.  0.
         14    1    1    2    0    0  0.48973030407E-02  0.21501631321E-01  0.82240790034E-02  0.23535913027E-01  0.00000000000E+00 0.  1.
     999901    1    3    3    0    0  0.86605360713E-01  0.19617066605E-01  0.76045589038E-01  0.88773208200E+00  0.88000000000E+00 0. -1.
        -11    1    4    4    0    0 -0.44629681576E-01 -0.30344769150E-01 -0.38769194462E-01  0.66452426988E-01  0.51100000000E-03 0.  1.
         11    1    4    4    0    0 -0.46872982178E-01 -0.10773928777E-01 -0.45500473580E-01  0.66209577982E-01  0.51100000000E-03 0. -1.
</event>
<event>
 8    1  0.1088021E+005  0.1043930E+01  0.7957747E-01            NaN
         13   -1    0    0    0    0  0.00000000000E+00  0.00000000000E+00  0.74505805969E-08  0.10566000000E+00  0.10566000000E+00 0.  1.
     999900   -1    0    0    0    0 -0.00000000000E+00 -0.00000000000E+00 -0.74505805969E-08  0.93827000000E+00  0.93827000000E+00 0.  1.
     999902    2    1    2    0    0  0.18326309557E-01  0.15124632207E-01 -0.60066003631E-02  0.10194210757E+01  0.10191264113E+01 0.  0.
     999903    2    3    3    0    0  0.87347009591E-01 -0.66659626668E-01 -0.67959476302E-01  0.13077565663E+00  0.20267610519E-01 0.  0.
         14    1    1    2    0    0 -0.18326309557E-01 -0.15124632207E-01  0.60066003631E-02  0.24508924278E-01  0.00000000000E+00 0. -1.
     999901    1    3    3    0    0 -0.69020700034E-01  0.81784258875E-01  0.61952875939E-01  0.88864541909E+00  0.88000000000E+00 0. -1.
        -11    1    4    4    0    0  0.44245693585E-01 -0.21970879778E-01 -0.25886573430E-01  0.55774337862E-01  0.51100000000E-03 0.  1.
         11    1    4    4    0    0  0.43101316006E-01 -0.44688746890E-01 -0.42072902872E-01  0.75001318769E-01  0.51100000000E-03 0. -1.
</event>
<event>
 8    1  0.1088021E+005  0.1043930E+01  0.7957747E-01            NaN
         13   -1    0    0    0    0  0.00000000000E+00  0.00000000000E+00  0.74505805969E-08  0.10566000000E+00  0.10566000000E+00 0. -1.
     999900   -1    0    0    0    0 -0.00000000000E+00 -0.00000000000E+00 -0.74505805969E-08  0.93827000000E+00  0.93827000000E+00 0.  1.
     999902    2    1    2    0    0  0.12974209452E-01 -0.94810273097E-02  0.17384690240E-01  0.10202562288E+01  0.10199815316E+01 0.  0.
     999903    2    3    3    0    0  0.89584282481E-01 -0.53258579305E-01 -0.76555274988E-01  0.13086863361E+00  0.20101472515E-01 0.  0.
         14    1    1    2    0    0 -0.12974209452E-01  0.94810273097E-02 -0.17384690240E-01  0.23673771235E-01  0.00000000000E+00 0.  1.
     999901    1    3    3    0    0 -0.76610073029E-01  0.43777551995E-01  0.93939965228E-01  0.88938759515E+00  0.88000000000E+00 0.  1.
        -11    1    4    4    0    0  0.17060529230E-01 -0.82973297874E-02 -0.24207479408E-01  0.30759884907E-01  0.51100000000E-03 0. -1.
         11    1    4    4    0    0  0.72523753251E-01 -0.44961249517E-01 -0.52347795580E-01  0.10010874870E+00  0.51100000000E-03 0.  1.
</event>
<event>
 8    1  0.1088021E+005  0.1043930E+01  0.7957747E-01            NaN
         13   -1    0    0    0    0  0.00000000000E+00  0.00000000000E+00  0.74505805969E-08  0.10566000000E+00  0.10566000000E+00 0.  1.
     999900   -1    0    0    0    0 -0.00000000000E+00 -0.00000000000E+00 -0.74505805969E-08  0.93827000000E+00  0.93827000000E+00 0. -1.
     999902    2    1    2    0    0  0.36373374436E-02 -0.10926272159E-01  0.21307178765E-01  0.10197099770E+01  0.10194223010E+01 0.  0.
     999903    2    3    3    0    0 -0.86518407909E-01  0.59738641182E-01  0.74951730049E-01  0.13066592507E+00  0.20042005388E-01 0.  0.
         14    1    1    2    0    0 -0.36373374436E-02  0.10926272159E-01 -0.21307178765E-01  0.24220022995E-01  0.00000000000E+00 0.  1.
     999901    1    3    3    0    0  0.90155745353E-01 -0.70664913341E-01 -0.53644551284E-01  0.88904405193E+00  0.88000000000E+00 0. -1.
        -11    1    4    4    0    0 -0.14265549936E-01  0.18605315543E-01  0.21566711032E-01  0.31859815241E-01  0.51100000000E-03 0.  1.
         11    1    4    4    0    0 -0.72252857973E-01  0.41133325639E-01  0.53385019016E-01  0.98806109830E-01  0.51100000000E-03 0. -1.
</event>
<event>
 8    1  0.1088021E+005  0.1043930E+01  0.7957747E-01            NaN
         13   -1    0    0    0    0  0.00000000000E+00  0.00000000000E+00  0.74505805969E-08  0.10566000000E+00  0.10566000000E+00 0. -1.
     999900   -1    0    0    0    0 -0.00000000000E+00 -0.00000000000E+00 -0.74505805969E-08  0.93827000000E+00  0.93827000000E+00 0.  1.
     999902    2    1    2    0    0  0.89882075909E-02 -0.21233814336E-01 -0.48991146883E-02  0.10203574721E+01  0.10200851468E+01 0.  0.
     999903    2    3    3    0    0  0.12068717315E+00 -0.47090537858E-01 -0.25900655266E-01  0.13267155142E+00  0.12164871403E-01 0.  0.
         14    1    1    2    0    0 -0.89882075909E-02  0.21233814336E-01  0.48991146883E-02  0.23572527902E-01  0.00000000000E+00 0. -1.
     999901    1    3    3    0    0 -0.11169896555E+00  0.25856723522E-01  0.21001540577E-01  0.88768592067E+00  0.88000000000E+00 0. -1.
        -11    1    4    4    0    0  0.42346304780E-01 -0.11480559621E-01 -0.12102749539E-01  0.45516485422E-01  0.51100000000E-03 0.  1.
         11    1    4    4    0    0  0.78340868366E-01 -0.35609978237E-01 -0.13797905727E-01  0.87155066002E-01  0.51100000000E-03 0. -1.
</event>
<event>
 8    1  0.1088021E+005  0.1043930E+01  0.7957747E-01            NaN
         13   -1    0    0    0    0  0.00000000000E+00  0.00000000000E+00  0.74505805969E-08  0.10566000000E+00  0.10566000000E+00 0.  1.
     999900   -1    0    0    0    0 -0.00000000000E+00 -0.00000000000E+00 -0.74505805969E-08  0.93827000000E+00  0.93827000000E+00 0. -1.
     999902    2    1    2    0    0 -0.16631139262E-01  0.15274324754E-01  0.79987214830E-02  0.10199742213E+01  0.10196928619E+01 0.  0.
     999903    2    3    3    0    0  0.45377829992E-01  0.98725575286E-02 -0.11839268960E+00  0.12876769067E+00  0.20190947588E-01 0.  0.
         14    1    1    2    0    0  0.16631139262E-01 -0.15274324754E-01 -0.79987214830E-02  0.23955778744E-01  0.00000000000E+00 0.  1.
     999901    1    3    3    0    0 -0.62008969254E-01  0.54017672255E-02  0.12639141108E+00  0.89120653058E+00  0.88000000000E+00 0.  1.
        -11    1    4    4    0    0  0.25433087488E-01 -0.46874591609E-02 -0.57099993168E-01  0.62685600846E-01  0.51100000000E-03 0.  1.
         11    1    4    4    0    0  0.19944742504E-01  0.14560016690E-01 -0.61292696429E-01  0.66082089829E-01  0.51100000000E-03 0. -1.
</event>
<event>
 8    1  0.1088021E+005  0.1043930E+01  0.7957747E-01            NaN
         13   -1    0    0    0    0  0.00000000000E+00  0.00000000000E+00  0.74505805969E-08  0.10566000000E+00  0.10566000000E+00 0. -1.
     999900   -1    0    0    0    0 -0.00000000000E+00 -0.00000000000E+00 -0.74505805969E-08  0.93827000000E+00  0.93827000000E+00 0.  1.
     999902    2    1    2    0    0 -0.20296929776E-01 -0.12313514195E-01  0.41136122895E-02  0.10198362291E+01  0.10195515801E+01 0.  0.
     999903    2    3    3    0    0  0.91169925794E-01 -0.71952529958E-01  0.53263021912E-01  0.12944455317E+00  0.20732122577E-01 0.  0.
         14    1    1    2    0    0  0.20296929776E-01  0.12313514195E-01 -0.41136122895E-02  0.24093770901E-01  0.00000000000E+00 0.  1.
     999901    1    3    3    0    0 -0.11146685557E+00  0.59639015764E-01 -0.49149409622E-01  0.89039167593E+00  0.88000000000E+00 0.  1.
        -11    1    4    4    0    0  0.55446606508E-01 -0.34153941383E-01  0.21890491788E-01  0.68704240313E-01  0.51100000000E-03 0. -1.
         11    1    4    4    0    0  0.35723319285E-01 -0.37798588575E-01  0.31372530123E-01  0.60740312860E-01  0.51100000000E-03 0.  1.
</event>
<event>
 8    1  0.1088021E+005  0.1043930E+01  0.7957747E-01            NaN
         13   -1    0    0    0    0  0.00000000000E+00  0.00000000000E+00  0.74505805969E-08  0.10566000000E+00  0.10566000000E+00 0. -1.
     999900   -1    0    0    0    0 -0.00000000000E+00 -0.00000000000E+00 -0.74505805969E-08  0.93827000000E+00  0.93827000000E+00 0. -1.
     999902    2    1    2    0    0 -0.37678146182E-02 -0.23241989750E-01 -0.14715588397E-02  0.10203386457E+01  0.10200658801E+01 0.  0.
     999903    2    3    3    0    0 -0.10133696559E+00 -0.67446585644E-01 -0.48539028949E-01  0.13259480182E+00  0.20177255228E-01 0.  0.
         14    1    1    2    0    0  0.37678146182E-02  0.23241989750E-01  0.14715588397E-02  0.23591354348E-01  0.00000000000E+00 0.  1.
     999901    1    3    3    0    0  0.97569150971E-01  0.44204595894E-01  0.47067470109E-01  0.88774384383E+00  0.88000000000E+00 0.  1.
        -11    1    4    4    0    0 -0.55916940998E-01 -0.32509883307E-01 -0.15750334540E-01  0.66572749398E-01  0.51100000000E-03 0. -1.
         11    1    4    4    0    0 -0.45420024591E-01 -0.34936702337E-01 -0.32788694409E-01  0.66022052423E-01  0.51100000000E-03 0.  1.
</event>
<event>
 8    1  0.1088021E+005  0.1043930E+01  0.7957747E-01            NaN
         13   -1    0    0    0    0  0.00000000000E+00  0.00000000000E+00  0.74505805969E-08  0.10566000000E+00  0.10566000000E+00 0.  1.
     999900   -1    0    0    0    0 -0.00000000000E+00 -0.00000000000E+00 -0.74505805969E-08  0.93827000000E+00  0.93827000000E+00 0.  1.
     999902    2    1    2    0    0 -0.14634033218E-01 -0.17760436971E-01  0.21416079468E-02  0.10208177839E+01  0.10205561098E+01 0.  0.
     999903    2    3    3    0    0 -0.11214884043E+00 -0.42638365950E-01 -0.54263122411E-01  0.13328776039E+00  0.20633660753E-01 0.  0.
         14    1    1    2    0    0  0.14634033218E-01  0.17760436971E-01 -0.21416079468E-02  0.23112216126E-01  0.00000000000E+00 0.  1.
     999901    1    3    3    0    0  0.97514807211E-01  0.24877928979E-01  0.56404730358E-01  0.88753002348E+00  0.88000000000E+00 0. -1.
        -11    1    4    4    0    0 -0.59917011306E-01 -0.30416640204E-01 -0.22092604420E-01  0.70735878705E-01  0.51100000000E-03 0. -1.
         11    1    4    4    0    0 -0.52231829123E-01 -0.12221725746E-01 -0.32170517991E-01  0.62551881687E-01  0.51100000000E-03 0.  1.
</event>
<event>
 8    1  0.1088021E+005  0.1043930E+01  0.7957747E-01            NaN
         13   -1    0    0    0    0  0.00000000000E+00  0.00000000000E+00  0.74505805969E-08  0.10566000000E+00  0.10566000000E+00 0. -1.
     999900   -1    0    0    0    0 -0.00000000000E+00 -0.00000000000E+00 -0.74505805969E-08  0.93827000000E+00  0.93827000000E+00 0. -1.
     999902    2    1    2    0    0  0.21573991951E-01 -0.51623455123E-02  0.70658928444E-02  0.10206488106E+01  0.10203832519E+01 0.  0.
     999903    2    3    3    0    0  0.86183031175E-01  0.86667698920E-01 -0.45660312437E-01  0.13194912128E+00  0.19669813831E-01 0.  0.
         14    1    1    2    0    0 -0.21573991951E-01  0.51623455123E-02 -0.70658928444E-02  0.23281189436E-01  0.00000000000E+00 0. -1.
     999901    1    3    3    0    0 -0.64609039224E-01 -0.91830044432E-01  0.52726205282E-01  0.88869968928E+00  0.88000000000E+00 0. -1.
        -11    1    4    4    0    0  0.58979541516E-01  0.52050957547E-01 -0.37595385888E-01  0.87186940881E-01  0.51100000000E-03 0.  1.
         11    1    4    4    0    0  0.27203489658E-01  0.34616741373E-01 -0.80649265495E-02  0.44762180399E-01  0.51100000000E-03 0. -1.
</event>
<event>
 8    1  0.1088021E+005  0.1043930E+01  0.7957747E-01            NaN
         13   -1    0    0    0    0  0.00000000000E+00  0.00000000000E+00  0.74505805969E-08  0.10566000000E+00  0.10566000000E+00 0. -1.
     999900   -1    0    0    0    0 -0.00000000000E+00 -0.00000000000E+00 -0.74505805969E-08  0.93827000000E+00  0.93827000000E+00 0.  1.
     999902    2    1    2    0    0  0.53715892328E-02  0.18152318442E-01 -0.14315870157E-01  0.10201959575E+01  0.10199198434E+01 0.  0.
     999903    2    3    3    0    0 -0.68165392852E-01  0.10880167315E+00  0.27308474698E-01  0.13151289850E+00  0.80972105550E-02 0.  0.
         14    1    1    2    0    0 -0.53715892328E-02 -0.18152318442E-01  0.14315870157E-01  0.23734042514E-01  0.00000000000E+00 0. -1.
     999901    1    3    3    0    0  0.73536982085E-01 -0.90649354708E-01 -0.41624344855E-01  0.88868305899E+00  0.88000000000E+00 0.  1.
        -11    1    4    4    0    0 -0.28999243898E-01  0.53464355178E-01  0.14191498456E-01  0.62458411529E-01  0.51100000000E-03 0. -1.
         11    1    4    4    0    0 -0.39166148953E-01  0.55337317972E-01  0.13116976241E-01  0.69054486972E-01  0.51100000000E-03 0.  1.
</event>
<event>
 8    1  0.1088021E+005  0.1043930E+01  0.7957747E-01            NaN
         13   -1    0    0    0    0  0.00000000000E+00  0.00000000000E+00  0.74505805969E-08  0.10566000000E+00  0.10566000000E+00 0. -1.
     999900   -1    0    0    0    0 -0.00000000000E+00 -0.00000000000E+00 -0.74505805969E-08  0.93827000000E+00  0.93827000000E+00 0.  1.
     999902    2    1    2    0    0 -0.27835176071E-01 -0.10709145140E-01 -0.70876908018E-02  0.10132751769E+01  0.10128113674E+01 0.  0.
     999903    2    3    3    0    0 -0.11563037333E+00 -0.48272668335E-01 -0.15620744044E-01  0.12806795377E+00  0.21371930023E-01 0.  0.
         14    1    1    2    0    0  0.27835176071E-01  0.10709145140E-01  0.70876908018E-02  0.30654823069E-01  0.00000000000E+00 0. -1.
     999901    1    3    3    0    0  0.87795197264E-01  0.37563523195E-01  0.85330532421E-02  0.88520722316E+00  0.88000000000E+00 0.  1.
        -11    1    4    4    0    0 -0.69142191953E-01 -0.17922859121E-01 -0.55797395341E-02  0.71646815710E-01  0.51100000000E-03 0.  1.
         11    1    4    4    0    0 -0.46488181381E-01 -0.30349809214E-01 -0.10041004510E-01  0.56421138061E-01  0.51100000000E-03 0. -1.
</event>
<event>
 8    1  0.1088021E+005  0.1043930E+01  0.7957747E-01            NaN
         13   -1    0    0    0    0  0.00000000000E+00  0.00000000000E+00  0.74505805969E-08  0.10566000000E+00  0.10566000000E+00 0.  1.
     999900   -1    0    0    0    0 -0.00000000000E+00 -0.00000000000E+00 -0.74505805969E-08  0.93827000000E+00  0.93827000000E+00 0.  1.
     999902    2    1    2    0    0  0.98842349394E-02  0.20866548696E-03  0.21453706270E-01  0.10203079096E+01  0.10200344245E+01 0.  0.
     999903    2    3    3    0    0  0.25964816126E-01 -0.46382413198E-01 -0.11515329487E+00  0.12840500768E+00  0.20051552255E-01 0.  0.
         14    1    1    2    0    0 -0.98842349394E-02 -0.20866548696E-03 -0.21453706270E-01  0.23622090389E-01  0.00000000000E+00 0. -1.
     999901    1    3    3    0    0 -0.16080581186E-01  0.46591078685E-01  0.13660700114E+00  0.89190290193E+00  0.88000000000E+00 0. -1.
        -11    1    4    4    0    0  0.18853467990E-01 -0.45943532824E-01 -0.10119568137E+00  0.11272572250E+00  0.51100000000E-03 0.  1.
         11    1    4    4    0    0  0.71113481356E-02 -0.43888037464E-03 -0.13957613500E-01  0.15679285184E-01  0.51100000000E-03 0. -1.
</event>
<event>
 8    1  0.1088021E+005  0.1043930E+01  0.7957747E-01            NaN
         13   -1    0    0    0    0  0.00000000000E+00  0.00000000000E+00  0.74505805969E-08  0.10566000000E+00  0.10566000000E+00 0. -1.
     999900   -1    0    0    0    0 -0.00000000000E+00 -0.00000000000E+00 -0.74505805969E-08  0.93827000000E+00  0.93827000000E+00 0.  1.
     999902    2    1    2    0    0  0.45677304187E-02  0.11899135257E-01  0.20754933218E-01  0.10195738748E+01  0.10192829172E+01 0.  0.
     999903    2    3    3    0    0  0.11045144368E-01  0.94686959132E-01 -0.85372759217E-01  0.12931612126E+00  0.18615470895E-01 0.  0.
         14    1    1    2    0    0 -0.45677304187E-02 -0.11899135257E-01 -0.20754933218E-01  0.24356125183E-01  0.00000000000E+00 0.  1.
     999901    1    3    3    0    0 -0.64774139490E-02 -0.82787823875E-01  0.10612769244E+00  0.89025775356E+00  0.88000000000E+00 0. -1.
        -11    1    4    4    0    0 -0.48481608988E-02  0.35049671417E-01 -0.29802660259E-01  0.46264930672E-01  0.51100000000E-03 0.  1.
         11    1    4    4    0    0  0.15893305267E-01  0.59637287715E-01 -0.55570098957E-01  0.83051190584E-01  0.51100000000E-03 0. -1.
</event>
<event>
 8    1  0.1088021E+005  0.1043930E+01  0.7957747E-01            NaN
         13   -1    0    0    0    0  0.00000000000E+00  0.00000000000E+00  0.74505805969E-08  0.10566000000E+00  0.10566000000E+00 0.  1.
     999900   -1    0    0    0    0 -0.00000000000E+00 -0.00000000000E+00 -0.74505805969E-08  0.93827000000E+00  0.93827000000E+00 0. -1.
     999902    2    1    2    0    0  0.12866037158E-01  0.26022269715E-01  0.20541392276E-02  0.10148282316E+01  0.10144108767E+01 0.  0.
     999903    2    3    3    0    0  0.50674759942E-01  0.65920184423E-01  0.95250980976E-01  0.12820148130E+00  0.21200670308E-01 0.  0.
         14    1    1    2    0    0 -0.12866037158E-01 -0.26022269715E-01 -0.20541392276E-02  0.29101768353E-01  0.00000000000E+00 0.  1.
     999901    1    3    3    0    0 -0.37808722784E-01 -0.39897914707E-01 -0.93196841749E-01  0.88662675035E+00  0.88000000000E+00 0.  1.
        -11    1    4    4    0    0  0.18303278438E-01  0.37834363673E-01  0.56505721268E-01  0.70424475384E-01  0.51100000000E-03 0.  1.
         11    1    4    4    0    0  0.32371481504E-01  0.28085820749E-01  0.38745259709E-01  0.57777005917E-01  0.51100000000E-03 0. -1.
</event>
<event>
 8    1  0.1088021E+005  0.1043930E+01  0.7957747E-01            NaN
         13   -1    0    0    0    0  0.00000000000E+00  0.00000000000E+00  0.74505805969E-08  0.10566000000E+00  0.10566000000E+00 0.  1.
     999900   -1    0    0    0    0 -0.00000000000E+00 -0.00000000000E+00 -0.74505805969E-08  0.93827000000E+00  0.93827000000E+00 0.  1.
     999902    2    1    2    0    0 -0.66278075503E-02  0.17042368502E-01 -0.15746085794E-01  0.10197989127E+01  0.10195133707E+01 0.  0.
     999903    2    3    3    0    0  0.10423370085E+00 -0.51406452829E-01  0.49209626786E-01  0.12783772531E+00  0.20337375943E-01 0.  0.
         14    1    1    2    0    0  0.66278075503E-02 -0.17042368502E-01  0.15746085794E-01  0.24131087313E-01  0.00000000000E+00 0.  1.
     999901    1    3    3    0    0 -0.11086150840E+00  0.68448821331E-01 -0.64955712581E-01  0.89196118737E+00  0.88000000000E+00 0.  1.
        -11    1    4    4    0    0  0.23059622884E-01 -0.67236550948E-02  0.18147870502E-01  0.30109135991E-01  0.51100000000E-03 0. -1.
         11    1    4    4    0    0  0.81174077961E-01 -0.44682797735E-01  0.31061756284E-01  0.97728589321E-01  0.51100000000E-03 0.  1.
</event>
<event>
 7    1  0.1088021E+005  0.1043930E+01  0.7957747E-01            NaN
         13   -1    0    0    0    0  0.00000000000E+00  0.00000000000E+00  0.74505805969E-08  0.10566000000E+00  0.10566000000E+00 0. -1.
     999900   -1    0    0    0    0 -0.00000000000E+00 -0.00000000000E+00 -0.74505805969E-08  0.93827000000E+00  0.93827000000E+00 0.  1.
     999903    2    1    2    0    0  0.12940465784E-01 -0.10406689507E+00 -0.36296968342E-01  0.11274263187E+00  0.19901176524E-01 0.  0.
         14    1    1    2    0    0 -0.65479381511E-02 -0.35322639040E-01 -0.14514352378E-01  0.38745719089E-01  0.00000000000E+00 0.  1.
     999901    1    1    2    0    0 -0.63925276333E-02  0.13938953411E+00  0.50811320720E-01  0.89244164904E+00  0.88000000000E+00 0. -1.
        -11    1    3    3    0    0  0.85337047605E-02 -0.18906760950E-01 -0.20631887380E-02  0.20852040556E-01  0.51100000000E-03 0. -1.
         11    1    3    3    0    0  0.44067610238E-02 -0.85160134115E-01 -0.34233779604E-01  0.91890591315E-01  0.51100000000E-03 0.  1.
</event>
<event>
 7    1  0.1088021E+005  0.1043930E+01  0.7957747E-01            NaN
         13   -1    0    0    0    0  0.00000000000E+00  0.00000000000E+00  0.74505805969E-08  0.10566000000E+00  0.10566000000E+00 0. -1.
     999900   -1    0    0    0    0 -0.00000000000E+00 -0.00000000000E+00 -0.74505805969E-08  0.93827000000E+00  0.93827000000E+00 0. -1.
     999903    2    1    2    0    0 -0.90580909310E-02 -0.95547232840E-01 -0.32338391920E-02  0.98208085187E-01  0.20568120127E-01 0.  0.
         14    1    1    2    0    0  0.50070014728E-01  0.37887493593E-01 -0.29837003844E-02  0.62859931702E-01  0.00000000000E+00 0.  1.
     999901    1    1    2    0    0 -0.41011923797E-01  0.57659739246E-01  0.62175395764E-02  0.88286198311E+00  0.88000000000E+00 0.  1.
        -11    1    3    3    0    0 -0.13021305487E-01 -0.54500934132E-01  0.46171178832E-02  0.56227085256E-01  0.51100000000E-03 0.  1.
         11    1    3    3    0    0  0.39632145559E-02 -0.41046298707E-01 -0.78509570752E-02  0.41980999931E-01  0.51100000000E-03 0. -1.
</event>
<event>
 8    1  0.1088021E+005  0.1043930E+01  0.7957747E-01            NaN
         13   -1    0    0    0    0  0.00000000000E+00  0.00000000000E+00  0.74505805969E-08  0.10566000000E+00  0.10566000000E+00 0.  1.
     999900   -1    0    0    0    0 -0.00000000000E+00 -0.00000000000E+00 -0.74505805969E-08  0.93827000000E+00  0.93827000000E+00 0. -1.
     999902    2    1    2    0    0  0.19855029069E-01  0.89361383222E-02  0.10432629415E-01  0.10197863362E+01  0.10195004928E+01 0.  0.
     999903    2    3    3    0    0 -0.73449726204E-01 -0.40585413587E-01  0.96328104863E-01  0.12931668807E+00  0.20041555600E-01 0.  0.
         14    1    1    2    0    0 -0.19855029069E-01 -0.89361383222E-02 -0.10432629415E-01  0.24143663847E-01  0.00000000000E+00 0. -1.
     999901    1    3    3    0    0  0.93304755272E-01  0.49521551909E-01 -0.85895475448E-01  0.89046964809E+00  0.88000000000E+00 0. -1.
        -11    1    4    4    0    0 -0.60626111414E-01 -0.30641420086E-01  0.87695990592E-01  0.11092912105E+00  0.51100000000E-03 0. -1.
         11    1    4    4    0    0 -0.12823614790E-01 -0.99439935016E-02  0.86321142708E-02  0.18387567018E-01  0.51100000000E-03 0.  1.
</event>
<event>
 8    1  0.1088021E+005  0.1043930E+01  0.7957747E-01            NaN
         13   -1    0    0    0    0  0.00000000000E+00  0.00000000000E+00  0.74505805969E-08  0.10566000000E+00  0.10566000000E+00 0. -1.
     999900   -1    0    0    0    0 -0.00000000000E+00 -0.00000000000E+00 -0.74505805969E-08  0.93827000000E+00  0.93827000000E+00 0. -1.
     999902    2    1    2    0    0 -0.14852078874E-01 -0.18146393134E-01 -0.36525249362E-02  0.10201978115E+01  0.10199217411E+01 0.  0.
     999903    2    3    3    0    0 -0.20950715036E-01  0.33506678887E-01  0.12188846553E+00  0.12976770564E+00  0.20523874029E-01 0.  0.
         14    1    1    2    0    0  0.14852078874E-01  0.18146393134E-01  0.36525249362E-02  0.23732188459E-01  0.00000000000E+00 0. -1.
     999901    1    3    3    0    0  0.60986361619E-02 -0.51653072021E-01 -0.12554099047E+00  0.89043010590E+00  0.88000000000E+00 0. -1.
        -11    1    4    4    0    0  0.72449681822E-04  0.44869224943E-02  0.41591473485E-01  0.41835983436E-01  0.51100000000E-03 0. -1.
         11    1    4    4    0    0 -0.21023164718E-01  0.29019756392E-01  0.80296992049E-01  0.87931722200E-01  0.51100000000E-03 0.  1.
</event>
<event>
 8    1  0.1088021E+005  0.1043930E+01  0.7957747E-01            NaN
         13   -1    0    0    0    0  0.00000000000E+00  0.00000000000E+00  0.74505805969E-08  0.10566000000E+00  0.10566000000E+00 0. -1.
     999900   -1    0    0    0    0 -0.00000000000E+00 -0.00000000000E+00 -0.74505805969E-08  0.93827000000E+00  0.93827000000E+00 0. -1.
     999902    2    1    2    0    0 -0.16527587622E-01  0.15150878923E-01 -0.13058131796E-01  0.10179834185E+01  0.10176526988E+01 0.  0.
     999903    2    3    3    0    0  0.12136121417E+00 -0.27890008364E-01  0.97453576543E-03  0.12609623092E+00  0.19822029672E-01 0.  0.
         14    1    1    2    0    0  0.16527587622E-01 -0.15150878923E-01  0.13058131796E-01  0.25946581485E-01  0.00000000000E+00 0.  1.
     999901    1    3    3    0    0 -0.13788880179E+00  0.43040887287E-01 -0.14032667561E-01  0.89188718760E+00  0.88000000000E+00 0. -1.
        -11    1    4    4    0    0  0.43442490078E-01 -0.94088533817E-02  0.98283416131E-02  0.45526189013E-01  0.51100000000E-03 0.  1.
         11    1    4    4    0    0  0.77918724094E-01 -0.18481154982E-01 -0.88538058477E-02  0.80570041907E-01  0.51100000000E-03 0. -1.
</event>
<event>
 8    1  0.1088021E+005  0.1043930E+01  0.7957747E-01            NaN
         13   -1    0    0    0    0  0.00000000000E+00  0.00000000000E+00  0.74505805969E-08  0.10566000000E+00  0.10566000000E+00 0. -1.
     999900   -1    0    0    0    0 -0.00000000000E+00 -0.00000000000E+00 -0.74505805969E-08  0.93827000000E+00  0.93827000000E+00 0.  1.
     999902    2    1    2    0    0  0.76839030424E-02 -0.10826953296E-01  0.19542582362E-01  0.10203042130E+01  0.10200306414E+01 0.  0.
     999903    2    3    3    0    0 -0.11956638032E+00 -0.74921431347E-02  0.47121556889E-01  0.13071759253E+00  0.22680307800E-01 0.  0.
         14    1    1    2    0    0 -0.76839030424E-02  0.10826953296E-01 -0.19542582362E-01  0.23625786950E-01  0.00000000000E+00 0.  1.
     999901    1    3    3    0    0  0.12725028336E+00 -0.33348101610E-02 -0.27578974527E-01  0.88958662052E+00  0.88000000000E+00 0.  1.
        -11    1    4    4    0    0 -0.65769129160E-01  0.59803038100E-02  0.20163284849E-01  0.69051875869E-01  0.51100000000E-03 0.  1.
         11    1    4    4    0    0 -0.53797251158E-01 -0.13472446945E-01  0.26958272040E-01  0.61665716660E-01  0.51100000000E-03 0. -1.
</event>
<event>
 8    1  0.1088021E+005  0.1043930E+01  0.7957747E-01            NaN
         13   -1    0    0    0    0  0.00000000000E+00  0.00000000000E+00  0.74505805969E-08  0.10566000000E+00  0.10566000000E+00 0. -1.
     999900   -1    0    0    0    0 -0.00000000000E+00 -0.00000000000E+00 -0.74505805969E-08  0.93827000000E+00  0.93827000000E+00 0. -1.
     999902    2    1    2    0    0 -0.24239758309E-01 -0.88000626801E-02 -0.42570455956E-02  0.10177932553E+01  0.10174576065E+01 0.  0.
     999903    2    3    3    0    0 -0.10945942664E+00  0.14519432811E-01  0.66750611946E-01  0.13052312836E+00  0.19709460488E-01 0.  0.
         14    1    1    2    0    0  0.24239758309E-01  0.88000626801E-02  0.42570455956E-02  0.26136744695E-01  0.00000000000E+00 0. -1.
     999901    1    3    3    0    0  0.85219668327E-01 -0.23319495491E-01 -0.71007657542E-01  0.88727012695E+00  0.88000000000E+00 0. -1.
        -11    1    4    4    0    0 -0.34351239025E-01 -0.45842532317E-02  0.21039643469E-01  0.40545662142E-01  0.51100000000E-03 0.  1.
         11    1    4    4    0    0 -0.75108187611E-01  0.19103686043E-01  0.45710968478E-01  0.89977466217E-01  0.51100000000E-03 0. -1.
</event>
<event>
 8    1  0.1088021E+005  0.1043930E+01  0.7957747E-01            NaN
         13   -1    0    0    0    0  0.00000000000E+00  0.00000000000E+00  0.74505805969E-08  0.10566000000E+00  0.10566000000E+00 0. -1.
     999900   -1    0    0    0    0 -0.00000000000E+00 -0.00000000000E+00 -0.74505805969E-08  0.93827000000E+00  0.93827000000E+00 0. -1.
     999902    2    1    2    0    0  0.50051820748E-02 -0.64322717094E-02 -0.18492789571E-01  0.10237208626E+01  0.10235213703E+01 0.  0.
     999903    2    3    3    0    0  0.83467122635E-02 -0.12763081605E+00  0.34070566802E-01  0.13385392910E+00  0.19919287175E-01 0.  0.
         14    1    1    2    0    0 -0.50051820748E-02  0.64322717094E-02  0.18492789571E-01  0.20209137366E-01  0.00000000000E+00 0. -1.
     999901    1    3    3    0    0 -0.33415301887E-02  0.12119854434E+00 -0.52563356373E-01  0.88986693354E+00  0.88000000000E+00 0. -1.
        -11    1    4    4    0    0  0.95212910646E-02 -0.43036207012E-01  0.18616220553E-01  0.47849711454E-01  0.51100000000E-03 0. -1.
         11    1    4    4    0    0 -0.11745788010E-02 -0.84594609034E-01  0.15454346249E-01  0.86004217641E-01  0.51100000000E-03 0.  1.
</event>
<event>
 8    1  0.1088021E+005  0.1043930E+01  0.7957747E-01            NaN
         13   -1    0    0    0    0  0.00000000000E+00  0.00000000000E+00  0.74505805969E-08  0.10566000000E+00  0.10566000000E+00 0. -1.
     999900   -1    0    0    0    0 -0.00000000000E+00 -0.00000000000E+00 -0.74505805969E-08  0.93827000000E+00  0.93827000000E+00 0.  1.
     999902    2    1    2    0    0 -0.12200673909E-01 -0.14410020663E-01 -0.13270730245E-01  0.10208514944E+01  0.10205905919E+01 0.  0.
     999903    2    3    3    0    0 -0.44324642172E-01 -0.50674642654E-02  0.12043346219E+00  0.13012367752E+00  0.20918879925E-01 0.  0.
         14    1    1    2    0    0  0.12200673909E-01  0.14410020663E-01  0.13270730245E-01  0.23078505596E-01  0.00000000000E+00 0. -1.
     999901    1    3    3    0    0  0.32123968263E-01 -0.93425563974E-02 -0.13370419244E+00  0.89072781688E+00  0.88000000000E+00 0.  1.
        -11    1    4    4    0    0 -0.33132838298E-01 -0.49831110544E-03  0.10713974794E+00  0.11214820551E+00  0.51100000000E-03 0. -1.
         11    1    4    4    0    0 -0.11191803873E-01 -0.45691531600E-02  0.13293714250E-01  0.17975472013E-01  0.51100000000E-03 0.  1.
</event>
<event>
 8    1  0.1088021E+005  0.1043930E+01  0.7957747E-01            NaN
         13   -1    0    0    0    0  0.00000000000E+00  0.00000000000E+00  0.74505805969E-08  0.10566000000E+00  0.10566000000E+00 0. -1.
     999900   -1    0    0    0    0 -0.00000000000E+00 -0.00000000000E+00 -0.74505805969E-08  0.93827000000E+00  0.93827000000E+00 0. -1.
     999902    2    1    2    0    0  0.21181604455E-02 -0.23611548461E-01 -0.20575966005E-02  0.10201345061E+01  0.10198569434E+01 0.  0.
     999903    2    3    3    0    0  0.62348143408E-02  0.84885724142E-01  0.93751191344E-01  0.12830048074E+00  0.20670471879E-01 0.  0.
         14    1    1    2    0    0 -0.21181604455E-02  0.23611548461E-01  0.20575966005E-02  0.23795493863E-01  0.00000000000E+00 0.  1.
     999901    1    3    3    0    0 -0.41166538954E-02 -0.10849727260E+00 -0.95808787944E-01  0.89183402539E+00  0.88000000000E+00 0. -1.
        -11    1    4    4    0    0  0.75701575065E-02  0.27271667318E-01  0.43152089022E-01  0.51608284518E-01  0.51100000000E-03 0. -1.
         11    1    4    4    0    0 -0.13353431656E-02  0.57614056824E-01  0.50599102322E-01  0.76692196225E-01  0.51100000000E-03 0.  1.
</event>
<event>
 8    1  0.1088021E+005  0.1043930E+01  0.7957747E-01            NaN
         13   -1    0    0    0    0  0.00000000000E+00  0.00000000000E+00  0.74505805969E-08  0.10566000000E+00  0.10566000000E+00 0.  1.
     999900   -1    0    0    0    0 -0.00000000000E+00 -0.00000000000E+00 -0.74505805969E-08  0.93827000000E+00  0.93827000000E+00 0. -1.
     999902    2    1    2    0    0 -0.22581902310E-01 -0.55994780575E-02  0.23819556269E-02  0.10205426064E+01  0.10202745911E+01 0.  0.
     999903    2    3    3    0    0  0.36632336519E-01  0.10769282342E+00 -0.58112888898E-01  0.12925079231E+00  0.19722757459E-01 0.  0.
         14    1    1    2    0    0  0.22581902310E-01  0.55994780575E-02 -0.23819556269E-02  0.23387393593E-01  0.00000000000E+00 0.  1.
     999901    1    3    3    0    0 -0.59214238829E-01 -0.11329230148E+00  0.60494844525E-01  0.89129181409E+00  0.88000000000E+00 0.  1.
        -11    1    4    4    0    0  0.18759130646E-01  0.34232952162E-01 -0.27148166457E-01  0.47550857608E-01  0.51100000000E-03 0. -1.
         11    1    4    4    0    0  0.17873205873E-01  0.73459871262E-01 -0.30964722441E-01  0.81699934706E-01  0.51100000000E-03 0.  1.
</event>
<event>
 8    1  0.1088021E+005  0.1043930E+01  0.7957747E-01            NaN
         13   -1    0    0    0    0  0.00000000000E+00  0.00000000000E+00  0.74505805969E-08  0.10566000000E+00  0.10566000000E+00 0. -1.
     999900   -1    0    0    0    0 -0.00000000000E+00 -0.00000000000E+00 -0.74505805969E-08  0.93827000000E+00  0.93827000000E+00 0.  1.
     999902    2    1    2    0    0  0.20217954779E-01  0.10474291991E-01  0.38670528915E-02  0.10208338837E+01  0.10205725783E+01 0.  0.
     999903    2    3    3    0    0 -0.63571670841E-01 -0.93078193846E-01  0.59655128769E-01  0.12906254080E+00  0.19836772558E-01 0.  0.
         14    1    1    2    0    0 -0.20217954779E-01 -0.10474291991E-01 -0.38670528915E-02  0.23096116259E-01  0.00000000000E+00 0.  1.
     999901    1    3    3    0    0  0.83789625621E-01  0.10355248584E+00 -0.55788075878E-01  0.89177134294E+00  0.88000000000E+00 0. -1.
        -11    1    4    4    0    0 -0.34231894031E-01 -0.51255387106E-01  0.21436144883E-01  0.65258767264E-01  0.51100000000E-03 0.  1.
         11    1    4    4    0    0 -0.29339776810E-01 -0.41822806740E-01  0.38218983886E-01  0.63803773534E-01  0.51100000000E-03 0. -1.
</event>
<event>
 8    1  0.1088021E+005  0.1043930E+01  0.7957747E-01            NaN
         13   -1    0    0    0    0  0.00000000000E+00  0.00000000000E+00  0.74505805969E-08  0.10566000000E+00  0.10566000000E+00 0.  1.
     999900   -1    0    0    0    0 -0.00000000000E+00 -0.00000000000E+00 -0.74505805969E-08  0.93827000000E+00  0.93827000000E+00 0. -1.
     999902    2    1    2    0    0  0.14985870478E-01 -0.62591665221E-02 -0.20383018327E-01  0.10178681329E+01  0.10175344294E+01 0.  0.
     999903    2    3    3    0    0 -0.12226031943E+00 -0.18918589401E-01  0.15178758796E-01  0.12643029570E+00  0.21183158912E-01 0.  0.
         14    1    1    2    0    0 -0.14985870478E-01  0.62591665221E-02  0.20383018327E-01  0.26061867080E-01  0.00000000000E+00 0.  1.
     999901    1    3    3    0    0  0.13724618991E+00  0.12659422879E-01 -0.35561777124E-01  0.89143783722E+00  0.88000000000E+00 0. -1.
        -11    1    4    4    0    0 -0.93772521477E-01 -0.22834124774E-01  0.83773741894E-02  0.96876852538E-01  0.51100000000E-03 0. -1.
         11    1    4    4    0    0 -0.28487797951E-01  0.39155353733E-02  0.68013846071E-02  0.29553443165E-01  0.51100000000E-03 0.  1.
</event>
<event>
 8    1  0.1088021E+005  0.1043930E+01  0.7957747E-01            NaN
         13   -1    0    0    0    0  0.00000000000E+00  0.00000000000E+00  0.74505805969E-08  0.10566000000E+00  0.10566000000E+00 0.  1.
     999900   -1    0    0    0    0 -0.00000000000E+00 -0.00000000000E+00 -0.74505805969E-08  0.93827000000E+00  0.93827000000E+00 0. -1.
     999902    2    1    2    0    0 -0.24741375693E-02 -0.18892957070E-01 -0.14119969650E-01  0.10202142093E+01  0.10199385247E+01 0.  0.
     999903    2    3    3    0    0  0.11077697255E+00  0.51616016314E-02 -0.65720326197E-01  0.13113208010E+00  0.24047481734E-01 0.  0.
         14    1    1    2    0    0  0.24741375693E-02  0.18892957070E-01  0.14119969650E-01  0.23715790657E-01  0.00000000000E+00 0.  1.
     999901    1    3    3    0    0 -0.11325111012E+00 -0.24054558701E-01  0.51600356547E-01  0.88908212924E+00  0.88000000000E+00 0.  1.
        -11    1    4    4    0    0  0.89303968287E-01 -0.34932895583E-02 -0.45023803160E-01  0.10007400160E+00  0.51100000000E-03 0. -1.
         11    1    4    4    0    0  0.21473004264E-01  0.86548911898E-02 -0.20696523037E-01  0.31058078506E-01  0.51100000000E-03 0.  1.
</event>
<event>
 8    1  0.1088021E+005  0.1043930E+01  0.7957747E-01            NaN
         13   -1    0    0    0    0  0.00000000000E+00  0.00000000000E+00  0.74505805969E-08  0.10566000000E+00  0.10566000000E+00 0.  1.
     999900   -1    0    0    0    0 -0.00000000000E+00 -0.00000000000E+00 -0.74505805969E-08  0.93827000000E+00  0.93827000000E+00 0. -1.
     999902    2    1    2    0    0  0.21317139744E-01  0.11668788946E-01 -0.31345504725E-02  0.10194268066E+01  0.10191322816E+01 0.  0.
     999903    2    3    3    0    0 -0.22461487422E-01  0.42472683984E-01 -0.11929773676E+00  0.13018030867E+00  0.20162228726E-01 0.  0.
         14    1    1    2    0    0 -0.21317139744E-01 -0.11668788946E-01  0.31345504725E-02  0.24503193445E-01  0.00000000000E+00 0.  1.
     999901    1    3    3    0    0  0.43778627166E-01 -0.30803895038E-01  0.11616318629E+00  0.88924649788E+00  0.88000000000E+00 0. -1.
        -11    1    4    4    0    0 -0.14414132040E-02  0.95030353452E-02 -0.90834593459E-02  0.13234640437E-01  0.51100000000E-03 0. -1.
         11    1    4    4    0    0 -0.21020074218E-01  0.32969648639E-01 -0.11021427742E+00  0.11694566824E+00  0.51100000000E-03 0.  1.
</event>
<event>
 8    1  0.1088021E+005  0.1043930E+01  0.7957747E-01            NaN
         13   -1    0    0    0    0  0.00000000000E+00  0.00000000000E+00  0.74505805969E-08  0.10566000000E+00  0.10566000000E+00 0. -1.
     999900   -1    0    0    0    0 -0.00000000000E+00 -0.00000000000E+00 -0.74505805969E-08  0.93827000000E+00  0.93827000000E+00 0. -1.
     999902    2    1    2    0    0 -0.84745213168E-02 -0.20473336593E-01  0.10266747060E-01  0.10195090844E+01  0.10192165580E+01 0.  0.
     999903    2    3    3    0    0  0.10590973519E+00  0.48801356240E-01 -0.47615098772E-01  0.12752643364E+00  0.19933621520E-01 0.  0.
         14    1    1    2    0    0  0.84745213168E-02  0.20473336593E-01 -0.10266747060E-01  0.24420915584E-01  0.00000000000E+00 0.  1.
     999901    1    3    3    0    0 -0.11438425651E+00 -0.69274692833E-01  0.57881845831E-01  0.89198265077E+00  0.88000000000E+00 0.  1.
        -11    1    4    4    0    0  0.43254384588E-01  0.10591315162E-01 -0.13070045058E-01  0.46413413382E-01  0.51100000000E-03 0.  1.
         11    1    4    4    0    0  0.62655350604E-01  0.38210041078E-01 -0.34545053713E-01  0.81113020260E-01  0.51100000000E-03 0. -1.
</event>
<event>
 8    1  0.1088021E+005  0.1043930E+01  0.7957747E-01            NaN
         13   -1    0    0    0    0  0.00000000000E+00  0.00000000000E+00  0.74505805969E-08  0.10566000000E+00  0.10566000000E+00 0.  1.
     999900   -1    0    0    0    0 -0.00000000000E+00 -0.00000000000E+00 -0.74505805969E-08  0.93827000000E+00  0.93827000000E+00 0.  1.
     999902    2    1    2    0    0 -0.15382927947E-01 -0.64109583977E-02 -0.17430005551E-01  0.10198148605E+01  0.10195297003E+01 0.  0.
     999903    2    3    3    0    0 -0.52553392067E-01 -0.10310002694E+00 -0.61627006753E-01  0.13263742937E+00  0.20082956355E-01 0.  0.
         14    1    1    2    0    0  0.15382927947E-01  0.64109583977E-02  0.17430005551E-01  0.24115139504E-01  0.00000000000E+00 0. -1.
     999901    1    3    3    0    0  0.37170464121E-01  0.96689068545E-01  0.44197001203E-01  0.88717743112E+00  0.88000000000E+00 0. -1.
        -11    1    4    4    0    0 -0.29629511434E-01 -0.74646014223E-01 -0.48425588507E-01  0.93782909586E-01  0.51100000000E-03 0.  1.
         11    1    4    4    0    0 -0.22923880634E-01 -0.28454012720E-01 -0.13201418246E-01  0.38854519787E-01  0.51100000000E-03 0. -1.
</event>
<event>
 8    1  0.1088021E+005  0.1043930E+01  0.7957747E-01            NaN
         13   -1    0    0    0    0  0.00000000000E+00  0.00000000000E+00  0.74505805969E-08  0.10566000000E+00  0.10566000000E+00 0.  1.
     999900   -1    0    0    0    0 -0.00000000000E+00 -0.00000000000E+00 -0.74505805969E-08  0.93827000000E+00  0.93827000000E+00 0. -1.
     999902    2    1    2    0    0  0.12193718132E-01  0.93994229010E-02 -0.17918713845E-01  0.10203055165E+01  0.10200319754E+01 0.  0.
     999903    2    3    3    0    0  0.10833263643E+00 -0.68748477494E-01 -0.21781018054E-01  0.13161844938E+00  0.19664439905E-01 0.  0.
         14    1    1    2    0    0 -0.12193718132E-01 -0.93994229010E-02  0.17918713845E-01  0.23624483457E-01  0.00000000000E+00 0.  1.
     999901    1    3    3    0    0 -0.96138918296E-01  0.78147900395E-01  0.38623042095E-02  0.88868706716E+00  0.88000000000E+00 0.  1.
        -11    1    4    4    0    0  0.70117268769E-01 -0.55010735364E-01 -0.12981447118E-01  0.90063263738E-01  0.51100000000E-03 0.  1.
         11    1    4    4    0    0  0.38215367659E-01 -0.13737742130E-01 -0.87995709367E-02  0.41555185643E-01  0.51100000000E-03 0. -1.
</event>
<event>
 8    1  0.1088021E+005  0.1043930E+01  0.7957747E-01            NaN
         13   -1    0    0    0    0  0.00000000000E+00  0.00000000000E+00  0.74505805969E-08  0.10566000000E+00  0.10566000000E+00 0. -1.
     999900   -1    0    0    0    0 -0.00000000000E+00 -0.00000000000E+00 -0.74505805969E-08  0.93827000000E+00  0.93827000000E+00 0. -1.
     999902    2    1    2    0    0  0.11310566590E-01 -0.10402238163E-01  0.19797769591E-01  0.10188683329E+01  0.10185600585E+01 0.  0.
     999903    2    3    3    0    0  0.97437495172E-01 -0.76706772617E-01 -0.35876449266E-01  0.13043501649E+00  0.18659568186E-01 0.  0.
         14    1    1    2    0    0 -0.11310566590E-01  0.10402238163E-01 -0.19797769591E-01  0.25061667067E-01  0.00000000000E+00 0.  1.
     999901    1    3    3    0    0 -0.86126928581E-01  0.66304534454E-01  0.55674218857E-01  0.88843331644E+00  0.88000000000E+00 0.  1.
        -11    1    4    4    0    0  0.52506894159E-01 -0.52192877515E-01 -0.17743110913E-01  0.76132447114E-01  0.51100000000E-03 0.  1.
         11    1    4    4    0    0  0.44930601012E-01 -0.24513895101E-01 -0.18133338352E-01  0.54302569379E-01  0.51100000000E-03 0. -1.
</event>
<event>
 8    1  0.1088021E+005  0.1043930E+01  0.7957747E-01            NaN
         13   -1    0    0    0    0  0.00000000000E+00  0.00000000000E+00  0.74505805969E-08  0.10566000000E+00  0.10566000000E+00 0. -1.
     999900   -1    0    0    0    0 -0.00000000000E+00 -0.00000000000E+00 -0.74505805969E-08  0.93827000000E+00  0.93827000000E+00 0.  1.
     999902    2    1    2    0    0 -0.21909548798E-01 -0.33004463388E-02  0.54986865417E-02  0.10211011405E+01  0.10208459150E+01 0.  0.
     999903    2    3    3    0    0  0.60226346267E-01  0.10600302868E+00 -0.38750427179E-01  0.12944451429E+00  0.19759347181E-01 0.  0.
         14    1    1    2    0    0  0.21909548798E-01  0.33004463388E-02 -0.54986865417E-02  0.22828859548E-01  0.00000000000E+00 0.  1.
     999901    1    3    3    0    0 -0.82135895065E-01 -0.10930347501E+00  0.44249113720E-01  0.89165662616E+00  0.88000000000E+00 0. -1.
        -11    1    4    4    0    0  0.24630050257E-01  0.25396486069E-01 -0.11783669462E-01  0.37292584616E-01  0.51100000000E-03 0. -1.
         11    1    4    4    0    0  0.35596296011E-01  0.80606542606E-01 -0.26966757717E-01  0.92151929678E-01  0.51100000000E-03 0.  1.
</event>
<event>
 8    1  0.1088021E+005  0.1043930E+01  0.7957747E-01            NaN
         13   -1    0    0    0    0  0.00000000000E+00  0.00000000000E+00  0.74505805969E-08  0.10566000000E+00  0.10566000000E+00 0.  1.
     999900   -1    0    0    0    0 -0.00000000000E+00 -0.00000000000E+00 -0.74505805969E-08  0.93827000000E+00  0.93827000000E+00 0.  1.
     999902    2    1    2    0    0 -0.13221839830E-01 -0.30724017669E-02 -0.10239702111E-01  0.10269268179E+01  0.10267860445E+01 0.  0.
     999903    2    3    3    0    0  0.11323722491E+00  0.46710212240E-01  0.51506043840E-01  0.13435595752E+00  0.19852902464E-01 0.  0.
         14    1    1    2    0    0  0.13221839830E-01  0.30724017669E-02  0.10239702111E-01  0.17003182068E-01  0.00000000000E+00 0.  1.
     999901    1    3    3    0    0 -0.12645906474E+00 -0.49782614007E-01 -0.61745745951E-01  0.89257086041E+00  0.88000000000E+00 0.  1.
        -11    1    4    4    0    0  0.72421080693E-01  0.38526403632E-01  0.28843950529E-01  0.86955915892E-01  0.51100000000E-03 0.  1.
         11    1    4    4    0    0  0.40816144218E-01  0.81838086089E-02  0.22662093312E-01  0.47400041629E-01  0.51100000000E-03 0. -1.
</event>
<event>
 8    1  0.1088021E+005  0.1043930E+01  0.7957747E-01            NaN
         13   -1    0    0    0    0  0.00000000000E+00  0.00000000000E+00  0.74505805969E-08  0.10566000000E+00  0.10566000000E+00 0. -1.
     999900   -1    0    0    0    0 -0.00000000000E+00 -0.00000000000E+00 -0.74505805969E-08  0.93827000000E+00  0.93827000000E+00 0.  1.
     999902    2    1    2    0    0 -0.15711523788E-01  0.83000620119E-02  0.20649006347E-01  0.10166880384E+01  0.10163230013E+01 0.  0.
     999903    2    3    3    0    0  0.45891840608E-01  0.11669598043E+00 -0.79587217243E-02  0.12743945012E+00  0.21294584142E-01 0.  0.
         14    1    1    2    0    0  0.15711523788E-01 -0.83000620119E-02 -0.20649006347E-01  0.27241961609E-01  0.00000000000E+00 0.  1.
     999901    1    3    3    0    0 -0.61603364396E-01 -0.10839591841E+00  0.28607728072E-01  0.88924858827E+00  0.88000000000E+00 0.  1.
        -11    1    4    4    0    0  0.22705275306E-01  0.53176212785E-01  0.68146393577E-02  0.58223187507E-01  0.51100000000E-03 0.  1.
         11    1    4    4    0    0  0.23186565301E-01  0.63519767642E-01 -0.14773361082E-01  0.69216262615E-01  0.51100000000E-03 0. -1.
</event>
<event>
 8    1  0.1242436E+005  0.1043930E+01  0.7957747E-01            NaN
         13   -1    0    0    0    0  0.00000000000E+00  0.00000000000E+00  0.74505805969E-08  0.10566000000E+00  0.10566000000E+00 0. -1.
     999900   -1    0    0    0    0 -0.00000000000E+00 -0.00000000000E+00 -0.74505805969E-08  0.93827000000E+00  0.93827000000E+00 0. -1.
     999902    2    1    2    0    0 -0.10761136186E-01  0.14024677973E-01  0.15770784966E-01  0.10202401013E+01  0.10199650253E+01 0.  0.
     999903    2    3    3    0    0  0.78206030543E-01 -0.57826338420E-01 -0.80134752994E-01  0.12767324240E+00  0.20464837125E-01 0.  0.
         14    1    1    2    0    0  0.10761136186E-01 -0.14024677973E-01 -0.15770784966E-01  0.23689898749E-01  0.00000000000E+00 0. -1.
     999901    1    3    3    0    0 -0.88967166729E-01  0.71851016393E-01  0.95905537961E-01  0.89256685885E+00  0.88000000000E+00 0.  1.
        -11    1    4    4    0    0  0.50811248717E-01 -0.25065016246E-01 -0.47086517083E-01  0.73671156144E-01  0.51100000000E-03 0.  1.
         11    1    4    4    0    0  0.27394781825E-01 -0.32761322175E-01 -0.33048235911E-01  0.54002086254E-01  0.51100000000E-03 0. -1.
</event>
<event>
 8    1  0.1088021E+005  0.1043930E+01  0.7957747E-01            NaN
         13   -1    0    0    0    0  0.00000000000E+00  0.00000000000E+00  0.74505805969E-08  0.10566000000E+00  0.10566000000E+00 0.  1.
     999900   -1    0    0    0    0 -0.00000000000E+00 -0.00000000000E+00 -0.74505805969E-08  0.93827000000E+00  0.93827000000E+00 0. -1.
     999902    2    1    2    0    0 -0.41923459947E-02 -0.24041085039E-01 -0.69178295009E-02  0.10185645530E+01  0.10182486645E+01 0.  0.
     999903    2    3    3    0    0 -0.12643974985E+00 -0.20072579895E-01  0.10297490472E-01  0.12993834139E+00  0.19698107719E-01 0.  0.
         14    1    1    2    0    0  0.41923459947E-02  0.24041085039E-01  0.69178295009E-02  0.25365446966E-01  0.00000000000E+00 0.  1.
     999901    1    3    3    0    0  0.12224740385E+00 -0.39685051437E-02 -0.17215319973E-01  0.88862621165E+00  0.88000000000E+00 0. -1.
        -11    1    4    4    0    0 -0.10832593286E+00 -0.21213864190E-01  0.14410404700E-01  0.11132141146E+00  0.51100000000E-03 0.  1.
         11    1    4    4    0    0 -0.18113816984E-01  0.11412842946E-02 -0.41129142275E-02  0.18616929930E-01  0.51100000000E-03 0. -1.
</event>
<event>
 8    1  0.1088021E+005  0.1043930E+01  0.7957747E-01            NaN
         13   -1    0    0    0    0  0.00000000000E+00  0.00000000000E+00  0.74505805969E-08  0.10566000000E+00  0.10566000000E+00 0.  1.
     999900   -1    0    0    0    0 -0.00000000000E+00 -0.00000000000E+00 -0.74505805969E-08  0.93827000000E+00  0.93827000000E+00 0. -1.
     999902    2    1    2    0    0 -0.19260727229E-01 -0.96593554373E-02 -0.10259359877E-01  0.10200651047E+01  0.10197859014E+01 0.  0.
     999903    2    3    3    0    0 -0.88806344252E-01  0.89850794902E-01  0.27932064009E-01  0.13090963592E+00  0.19934905390E-01 0.  0.
         14    1    1    2    0    0  0.19260727229E-01  0.96593554373E-02  0.10259359877E-01  0.23864895264E-01  0.00000000000E+00 0.  1.
     999901    1    3    3    0    0  0.69545617023E-01 -0.99510150339E-01 -0.38191423886E-01  0.88915546882E+00  0.88000000000E+00 0. -1.
        -11    1    4    4    0    0 -0.12629229177E-01  0.20955516338E-01  0.10920520258E-01  0.26798320438E-01  0.51100000000E-03 0. -1.
         11    1    4    4    0    0 -0.76177115075E-01  0.68895278564E-01  0.17011543752E-01  0.10411131548E+00  0.51100000000E-03 0.  1.
</event>
<event>
 8    1  0.1088021E+005  0.1043930E+01  0.7957747E-01            NaN
         13   -1    0    0    0    0  0.00000000000E+00  0.00000000000E+00  0.74505805969E-08  0.10566000000E+00  0.10566000000E+00 0.  1.
     999900   -1    0    0    0    0 -0.00000000000E+00 -0.00000000000E+00 -0.74505805969E-08  0.93827000000E+00  0.93827000000E+00 0. -1.
     999902    2    1    2    0    0  0.15179705946E-01 -0.10573013147E-01 -0.15520992033E-01  0.10197822615E+01  0.10194963206E+01 0.  0.
     999903    2    3    3    0    0  0.71365758509E-01  0.61127075196E-01 -0.90324106154E-01  0.13192344333E+00  0.20390192201E-01 0.  0.
         14    1    1    2    0    0 -0.15179705946E-01  0.10573013147E-01  0.15520992033E-01  0.24147738471E-01  0.00000000000E+00 0. -1.
     999901    1    3    3    0    0 -0.56186052563E-01 -0.71700088343E-01  0.74803114121E-01  0.88785881820E+00  0.88000000000E+00 0.  1.
        -11    1    4    4    0    0  0.52508152049E-01  0.52624647167E-01 -0.61741720984E-01  0.96637263787E-01  0.51100000000E-03 0. -1.
         11    1    4    4    0    0  0.18857606459E-01  0.85024280288E-02 -0.28582385169E-01  0.35286179543E-01  0.51100000000E-03 0.  1.
</event>
<event>
 8    1  0.1088021E+005  0.1043930E+01  0.7957747E-01            NaN
         13   -1    0    0    0    0  0.00000000000E+00  0.00000000000E+00  0.74505805969E-08  0.10566000000E+00  0.10566000000E+00 0. -1.
     999900   -1    0    0    0    0 -0.00000000000E+00 -0.00000000000E+00 -0.74505805969E-08  0.93827000000E+00  0.93827000000E+00 0.  1.
     999902    2    1    2    0    0 -0.71780585642E-02 -0.21648794308E-01 -0.71103199546E-02  0.10200395946E+01  0.10197597870E+01 0.  0.
     999903    2    3    3    0    0  0.44289284388E-01 -0.72702843826E-01 -0.99411907957E-01  0.13224739679E+00  0.18957908710E-01 0.  0.
         14    1    1    2    0    0  0.71780585642E-02  0.21648794308E-01  0.71103199546E-02  0.23890405388E-01  0.00000000000E+00 0.  1.
     999901    1    3    3    0    0 -0.51467342952E-01  0.51054049518E-01  0.92301588003E-01  0.88779219782E+00  0.88000000000E+00 0. -1.
        -11    1    4    4    0    0  0.22608856897E-01 -0.23426056188E-01 -0.46453396972E-01  0.56728473714E-01  0.51100000000E-03 0. -1.
         11    1    4    4    0    0  0.21680427491E-01 -0.49276787637E-01 -0.52958510986E-01  0.75518923078E-01  0.51100000000E-03 0.  1.
</event>
<event>
 8    1  0.1088021E+005  0.1043930E+01  0.7957747E-01            NaN
         13   -1    0    0    0    0  0.00000000000E+00  0.00000000000E+00  0.74505805969E-08  0.10566000000E+00  0.10566000000E+00 0. -1.
     999900   -1    0    0    0    0 -0.00000000000E+00 -0.00000000000E+00 -0.74505805969E-08  0.93827000000E+00  0.93827000000E+00 0.  1.
     999902    2    1    2    0    0  0.25061496177E-02  0.88601378466E-02 -0.20656726300E-01  0.10213140063E+01  0.10210635712E+01 0.  0.
     999903    2    3    3    0    0  0.28300035421E-01 -0.28871350680E-01 -0.12598582942E+00  0.13385515672E+00  0.20256526608E-01 0.  0.
         14    1    1    2    0    0 -0.25061496177E-02 -0.88601378466E-02  0.20656726300E-01  0.22615993677E-01  0.00000000000E+00 0. -1.
     999901    1    3    3    0    0 -0.25793885804E-01  0.37731488526E-01  0.10532910312E+00  0.88745884960E+00  0.88000000000E+00 0. -1.
        -11    1    4    4    0    0  0.16442223923E-01 -0.35337724336E-02 -0.38839471778E-01  0.42327295734E-01  0.51100000000E-03 0. -1.
         11    1    4    4    0    0  0.11857811498E-01 -0.25337578246E-01 -0.87146357646E-01  0.91527860987E-01  0.51100000000E-03 0.  1.
</event>
<event>
 8    1  0.1088021E+005  0.1043930E+01  0.7957747E-01            NaN
         13   -1    0    0    0    0  0.00000000000E+00  0.00000000000E+00  0.74505805969E-08  0.10566000000E+00  0.10566000000E+00 0. -1.
     999900   -1    0    0    0    0 -0.00000000000E+00 -0.00000000000E+00 -0.74505805969E-08  0.93827000000E+00  0.93827000000E+00 0.  1.
     999902    2    1    2    0    0 -0.15198007103E-01 -0.13669312011E-01 -0.14320228542E-01  0.10189720663E+01  0.10186663700E+01 0.  0.
     999903    2    3    3    0    0  0.12214313032E+00  0.29098447927E-01 -0.26896867045E-03  0.12718223272E+00  0.20238182207E-01 0.  0.
         14    1    1    2    0    0  0.15198007103E-01  0.13669312011E-01  0.14320228542E-01  0.24957933733E-01  0.00000000000E+00 0. -1.
     999901    1    3    3    0    0 -0.13734113742E+00 -0.42767759938E-01 -0.14051259872E-01  0.89178983355E+00  0.88000000000E+00 0.  1.
        -11    1    4    4    0    0  0.38309093140E-01  0.11969149337E-01 -0.91088419047E-02  0.41159194294E-01  0.51100000000E-03 0.  1.
         11    1    4    4    0    0  0.83834037178E-01  0.17129298590E-01  0.88398732342E-02  0.86023038424E-01  0.51100000000E-03 0. -1.
</event>
<event>
 8    1  0.1088021E+005  0.1043930E+01  0.7957747E-01            NaN
         13   -1    0    0    0    0  0.00000000000E+00  0.00000000000E+00  0.74505805969E-08  0.10566000000E+00  0.10566000000E+00 0. -1.
     999900   -1    0    0    0    0 -0.00000000000E+00 -0.00000000000E+00 -0.74505805969E-08  0.93827000000E+00  0.93827000000E+00 0. -1.
     999902    2    1    2    0    0  0.21785324977E-03  0.21413052686E-01 -0.10018188602E-01  0.10202882913E+01  0.10200143465E+01 0.  0.
     999903    2    3    3    0    0  0.41547074670E-01 -0.18015035496E-01  0.11968836253E+00  0.12894858725E+00  0.15866099470E-01 0.  0.
         14    1    1    2    0    0 -0.21785324977E-03 -0.21413052686E-01  0.10018188602E-01  0.23641708658E-01  0.00000000000E+00 0.  1.
     999901    1    3    3    0    0 -0.41329221420E-01  0.39428088182E-01 -0.12970655113E+00  0.89133970409E+00  0.88000000000E+00 0. -1.
        -11    1    4    4    0    0  0.18636854627E-01 -0.12064867969E-01  0.39232825844E-01  0.45081804913E-01  0.51100000000E-03 0.  1.
         11    1    4    4    0    0  0.22910220043E-01 -0.59501675272E-02  0.80455536684E-01  0.83866782340E-01  0.51100000000E-03 0. -1.
</event>
<event>
 8    1  0.1088021E+005  0.1043930E+01  0.7957747E-01            NaN
         13   -1    0    0    0    0  0.00000000000E+00  0.00000000000E+00  0.74505805969E-08  0.10566000000E+00  0.10566000000E+00 0.  1.
     999900   -1    0    0    0    0 -0.00000000000E+00 -0.00000000000E+00 -0.74505805969E-08  0.93827000000E+00  0.93827000000E+00 0. -1.
     999902    2    1    2    0    0 -0.16753960427E-01 -0.16311039505E-01  0.33553620387E-02  0.10203078990E+01  0.10200344137E+01 0.  0.
     999903    2    3    3    0    0  0.48025586403E-01 -0.12093463468E+00  0.98430750577E-02  0.13172218185E+00  0.17950048810E-01 0.  0.
         14    1    1    2    0    0  0.16753960427E-01  0.16311039505E-01 -0.33553620387E-02  0.23622100968E-01  0.00000000000E+00 0. -1.
     999901    1    3    3    0    0 -0.64779546830E-01  0.10462359517E+00 -0.64877130191E-02  0.88858571718E+00  0.88000000000E+00 0.  1.
        -11    1    4    4    0    0  0.71471976696E-02 -0.39765329657E-01  0.49427000597E-02  0.40706943906E-01  0.51100000000E-03 0.  1.
         11    1    4    4    0    0  0.40878388734E-01 -0.81169305018E-01  0.49003749980E-02  0.91015237948E-01  0.51100000000E-03 0. -1.
</event>
<event>
 8    1  0.1088021E+005  0.1043930E+01  0.7957747E-01            NaN
         13   -1    0    0    0    0  0.00000000000E+00  0.00000000000E+00  0.74505805969E-08  0.10566000000E+00  0.10566000000E+00 0. -1.
     999900   -1    0    0    0    0 -0.00000000000E+00 -0.00000000000E+00 -0.74505805969E-08  0.93827000000E+00  0.93827000000E+00 0. -1.
     999902    2    1    2    0    0 -0.49205721747E-03 -0.68898551637E-02 -0.22892825938E-01  0.10200177917E+01  0.10197374671E+01 0.  0.
     999903    2    3    3    0    0 -0.88361560366E-01 -0.78852232586E-01 -0.55256415382E-01  0.13212870223E+00  0.19475178510E-01 0.  0.
         14    1    1    2    0    0  0.49205721747E-03  0.68898551637E-02  0.22892825938E-01  0.23912208261E-01  0.00000000000E+00 0. -1.
     999901    1    3    3    0    0  0.87869503149E-01  0.71962377422E-01  0.32363589444E-01  0.88788908951E+00  0.88000000000E+00 0.  1.
        -11    1    4    4    0    0 -0.77800479426E-01 -0.75298788029E-01 -0.53724677325E-01  0.12086945086E+00  0.51100000000E-03 0.  1.
         11    1    4    4    0    0 -0.10561080940E-01 -0.35534445569E-02 -0.15317380571E-02  0.11259251366E-01  0.51100000000E-03 0. -1.
</event>
<event>
 8    1  0.1088021E+005  0.1043930E+01  0.7957747E-01            NaN
         13   -1    0    0    0    0  0.00000000000E+00  0.00000000000E+00  0.74505805969E-08  0.10566000000E+00  0.10566000000E+00 0. -1.
     999900   -1    0    0    0    0 -0.00000000000E+00 -0.00000000000E+00 -0.74505805969E-08  0.93827000000E+00  0.93827000000E+00 0.  1.
     999902    2    1    2    0    0  0.42436458640E-03 -0.23080293608E-01  0.43481472660E-02  0.10204398654E+01  0.10201694626E+01 0.  0.
     999903    2    3    3    0    0  0.46400783572E-01  0.37599327461E-01 -0.11290881096E+00  0.12940392799E+00  0.20742103243E-01 0.  0.
         14    1    1    2    0    0 -0.42436458640E-03  0.23080293608E-01 -0.43481472660E-02  0.23490134589E-01  0.00000000000E+00 0. -1.
     999901    1    3    3    0    0 -0.45976418985E-01 -0.60679621069E-01  0.11725695822E+00  0.89103593742E+00  0.88000000000E+00 0.  1.
        -11    1    4    4    0    0  0.14470549785E-01  0.19502486587E-01 -0.29071368458E-01  0.37883365468E-01  0.51100000000E-03 0.  1.
         11    1    4    4    0    0  0.31930233786E-01  0.18096840874E-01 -0.83837442500E-01  0.91520562527E-01  0.51100000000E-03 0. -1.
</event>
<event>
 8    1  0.1088021E+005  0.1043930E+01  0.7957747E-01            NaN
         13   -1    0    0    0    0  0.00000000000E+00  0.00000000000E+00  0.74505805969E-08  0.10566000000E+00  0.10566000000E+00 0. -1.
     999900   -1    0    0    0    0 -0.00000000000E+00 -0.00000000000E+00 -0.74505805969E-08  0.93827000000E+00  0.93827000000E+00 0.  1.
     999902    2    1    2    0    0  0.10216570972E-02  0.65563110040E-02 -0.23782015493E-01  0.10192396525E+01  0.10189405557E+01 0.  0.
     999903    2    3    3    0    0 -0.80815219942E-02 -0.47762854519E-01  0.11544168471E+00  0.12659376624E+00  0.18777588015E-01 0.  0.
         14    1    1    2    0    0 -0.10216570972E-02 -0.65563110040E-02  0.23782015493E-01  0.24690347469E-01  0.00000000000E+00 0. -1.
     999901    1    3    3    0    0  0.91031790913E-02  0.54319165523E-01 -0.13922370021E+00  0.89264588629E+00  0.88000000000E+00 0.  1.
        -11    1    4    4    0    0  0.42024748157E-02 -0.28830720163E-01  0.71010056075E-01  0.76756500731E-01  0.51100000000E-03 0. -1.
         11    1    4    4    0    0 -0.12283996810E-01 -0.18932134356E-01  0.44431628640E-01  0.49837265510E-01  0.51100000000E-03 0.  1.
</event>
<event>
 7    1  0.1088021E+005  0.1043930E+01  0.7957747E-01            NaN
         13   -1    0    0    0    0  0.00000000000E+00  0.00000000000E+00  0.74505805969E-08  0.10566000000E+00  0.10566000000E+00 0.  1.
     999900   -1    0    0    0    0 -0.00000000000E+00 -0.00000000000E+00 -0.74505805969E-08  0.93827000000E+00  0.93827000000E+00 0. -1.
     999903    2    1    2    0    0  0.24900833549E-01  0.10789570873E+00 -0.11945920981E-01  0.11309267302E+00  0.19639556738E-01 0.  0.
         14    1    1    2    0    0  0.94528349410E-02 -0.39990799634E-01 -0.22561821475E-01  0.46879163091E-01  0.00000000000E+00 0. -1.
     999901    1    1    2    0    0 -0.34353668490E-01 -0.67904909096E-01  0.34507742456E-01  0.88395816389E+00  0.88000000000E+00 0.  1.
        -11    1    3    3    0    0  0.17408239659E-01  0.93792775450E-01 -0.45994720859E-02  0.95506794518E-01  0.51100000000E-03 0. -1.
         11    1    3    3    0    0  0.74925938902E-02  0.14102933280E-01 -0.73464488955E-02  0.17585878502E-01  0.51100000000E-03 0.  1.
</event>
<event>
 8    1  0.1088021E+005  0.1043930E+01  0.7957747E-01            NaN
         13   -1    0    0    0    0  0.00000000000E+00  0.00000000000E+00  0.74505805969E-08  0.10566000000E+00  0.10566000000E+00 0. -1.
     999900   -1    0    0    0    0 -0.00000000000E+00 -0.00000000000E+00 -0.74505805969E-08  0.93827000000E+00  0.93827000000E+00 0.  1.
     999902    2    1    2    0    0  0.10394264255E-01 -0.58753323892E-02 -0.21705286752E-01  0.10191574399E+01  0.10188563233E+01 0.  0.
     999903    2    3    3    0    0 -0.43362451702E-01 -0.33633097537E-01 -0.11815062590E+00  0.13182324049E+00  0.20157104530E-01 0.  0.
         14    1    1    2    0    0 -0.10394264255E-01  0.58753323892E-02  0.21705286752E-01  0.24772560083E-01  0.00000000000E+00 0.  1.
     999901    1    3    3    0    0  0.53756715957E-01  0.27757765148E-01  0.96445339152E-01  0.88733419943E+00  0.88000000000E+00 0. -1.
        -11    1    4    4    0    0 -0.10604383253E-01 -0.19899609557E-01 -0.53402776871E-01  0.57970381258E-01  0.51100000000E-03 0.  1.
         11    1    4    4    0    0 -0.32758068449E-01 -0.13733487981E-01 -0.64747849033E-01  0.73852859227E-01  0.51100000000E-03 0. -1.
</event>
<event>
 8    1  0.1088021E+005  0.1043930E+01  0.7957747E-01            NaN
         13   -1    0    0    0    0  0.00000000000E+00  0.00000000000E+00  0.74505805969E-08  0.10566000000E+00  0.10566000000E+00 0. -1.
     999900   -1    0    0    0    0 -0.00000000000E+00 -0.00000000000E+00 -0.74505805969E-08  0.93827000000E+00  0.93827000000E+00 0.  1.
     999902    2    1    2    0    0  0.21879000083E-03  0.22133760587E-01  0.75454620861E-03  0.10217823011E+01  0.10215422411E+01 0.  0.
     999903    2    3    3    0    0 -0.10150245634E+00  0.12114358654E-01 -0.81194934518E-01  0.13208385906E+00  0.20100301075E-01 0.  0.
         14    1    1    2    0    0 -0.21879000083E-03 -0.22133760587E-01 -0.75454620861E-03  0.22147698905E-01  0.00000000000E+00 0.  1.
     999901    1    3    3    0    0  0.10172124634E+00  0.10019401934E-01  0.81949480726E-01  0.88969844204E+00  0.88000000000E+00 0. -1.
        -11    1    4    4    0    0 -0.52338870940E-01 -0.20422027000E-02 -0.33786935639E-01  0.62332544822E-01  0.51100000000E-03 0. -1.
         11    1    4    4    0    0 -0.49163585401E-01  0.14156561354E-01 -0.47407998879E-01  0.69751314235E-01  0.51100000000E-03 0.  1.
</event>
<event>
 7    1  0.1088021E+005  0.1043930E+01  0.7957747E-01            NaN
         13   -1    0    0    0    0  0.00000000000E+00  0.00000000000E+00  0.74505805969E-08  0.10566000000E+00  0.10566000000E+00 0. -1.
     999900   -1    0    0    0    0 -0.00000000000E+00 -0.00000000000E+00 -0.74505805969E-08  0.93827000000E+00  0.93827000000E+00 0.  1.
     999903    2    1    2    0    0  0.78949218814E-01 -0.70927765421E-01 -0.42719544026E-01  0.11574597409E+00  0.17562574312E-01 0.  0.
         14    1    1    2    0    0 -0.20787712683E-01  0.35700182753E-01 -0.14311605712E-01  0.43720179611E-01  0.00000000000E+00 0. -1.
     999901    1    1    2    0    0 -0.58161506131E-01  0.35227582668E-01  0.57031149738E-01  0.88446384630E+00  0.88000000000E+00 0. -1.
        -11    1    3    3    0    0  0.64583088093E-01 -0.61172771446E-01 -0.41960963871E-01  0.98356834252E-01  0.51100000000E-03 0. -1.
         11    1    3    3    0    0  0.14366130721E-01 -0.97549939748E-02 -0.75858015542E-03  0.17389139835E-01  0.51100000000E-03 0.  1.
</event>
<event>
 8    1  0.1088021E+005  0.1043930E+01  0.7957747E-01            NaN
         13   -1    0    0    0    0  0.00000000000E+00  0.00000000000E+00  0.74505805969E-08  0.10566000000E+00  0.10566000000E+00 0.  1.
     999900   -1    0    0    0    0 -0.00000000000E+00 -0.00000000000E+00 -0.74505805969E-08  0.93827000000E+00  0.93827000000E+00 0.  1.
     999902    2    1    2    0    0  0.20426720025E-01 -0.12238954783E-01  0.33034115038E-02  0.10198892963E+01  0.10196059147E+01 0.  0.
     999903    2    3    3    0    0 -0.29672649584E-01  0.50179306958E-01  0.11404157229E+00  0.12934512197E+00  0.18062430322E-01 0.  0.
         14    1    1    2    0    0 -0.20426720025E-01  0.12238954783E-01 -0.33034115038E-02  0.24040703665E-01  0.00000000000E+00 0. -1.
     999901    1    3    3    0    0  0.50099369608E-01 -0.62418261741E-01 -0.11073816078E+00  0.89054417436E+00  0.88000000000E+00 0.  1.
        -11    1    4    4    0    0 -0.59191741015E-02  0.18700594153E-01  0.54519141987E-01  0.57942616507E-01  0.51100000000E-03 0. -1.
         11    1    4    4    0    0 -0.23753475482E-01  0.31478712805E-01  0.59522430299E-01  0.71402505467E-01  0.51100000000E-03 0.  1.
</event>
<event>
 8    1  0.1088021E+005  0.1043930E+01  0.7957747E-01            NaN
         13   -1    0    0    0    0  0.00000000000E+00  0.00000000000E+00  0.74505805969E-08  0.10566000000E+00  0.10566000000E+00 0. -1.
     999900   -1    0    0    0    0 -0.00000000000E+00 -0.00000000000E+00 -0.74505805969E-08  0.93827000000E+00  0.93827000000E+00 0. -1.
     999902    2    1    2    0    0 -0.93362505357E-02  0.88543002291E-02 -0.20071552045E-01  0.10200882004E+01  0.10198095436E+01 0.  0.
     999903    2    3    3    0    0  0.39158750018E-01  0.31440430945E-01 -0.12110449671E+00  0.13269338732E+00  0.20477487990E-01 0.  0.
         14    1    1    2    0    0  0.93362505357E-02 -0.88543002291E-02  0.20071552045E-01  0.23841799598E-01  0.00000000000E+00 0. -1.
     999901    1    3    3    0    0 -0.48495000553E-01 -0.22586130716E-01  0.10103294466E+00  0.88739481308E+00  0.88000000000E+00 0.  1.
        -11    1    4    4    0    0  0.88059167931E-02  0.17679263079E-01 -0.58847689759E-01  0.62075858629E-01  0.51100000000E-03 0. -1.
         11    1    4    4    0    0  0.30352833224E-01  0.13761167866E-01 -0.62256806948E-01  0.70617528689E-01  0.51100000000E-03 0.  1.
</event>
<event>
 8    1  0.1088021E+005  0.1043930E+01  0.7957747E-01            NaN
         13   -1    0    0    0    0  0.00000000000E+00  0.00000000000E+00  0.74505805969E-08  0.10566000000E+00  0.10566000000E+00 0.  1.
     999900   -1    0    0    0    0 -0.00000000000E+00 -0.00000000000E+00 -0.74505805969E-08  0.93827000000E+00  0.93827000000E+00 0. -1.
     999902    2    1    2    0    0  0.42512382374E-02  0.10658216918E-01  0.20782350417E-01  0.10201902295E+01  0.10199139805E+01 0.  0.
     999903    2    3    3    0    0 -0.87558832093E-01 -0.65041818274E-01  0.69889417899E-01  0.13082467563E+00  0.18264112817E-01 0.  0.
         14    1    1    2    0    0 -0.42512382374E-02 -0.10658216918E-01 -0.20782350417E-01  0.23739770498E-01  0.00000000000E+00 0. -1.
     999901    1    3    3    0    0  0.91810070330E-01  0.75700035192E-01 -0.49107067482E-01  0.88936555387E+00  0.88000000000E+00 0. -1.
        -11    1    4    4    0    0 -0.75171004601E-01 -0.47017282004E-01  0.57597337954E-01  0.10573088101E+00  0.51100000000E-03 0. -1.
         11    1    4    4    0    0 -0.12387827492E-01 -0.18024536270E-01  0.12292079945E-01  0.25093794613E-01  0.51100000000E-03 0.  1.
</event>
<event>
 8    1  0.1088021E+005  0.1043930E+01  0.7957747E-01            NaN
         13   -1    0    0    0    0  0.00000000000E+00  0.00000000000E+00  0.74505805969E-08  0.10566000000E+00  0.10566000000E+00 0. -1.
     999900   -1    0    0    0    0 -0.00000000000E+00 -0.00000000000E+00 -0.74505805969E-08  0.93827000000E+00  0.93827000000E+00 0.  1.
     999902    2    1    2    0    0  0.13452665126E-01  0.22230778253E-02 -0.22194572494E-01  0.10178816733E+01  0.10175483210E+01 0.  0.
     999903    2    3    3    0    0  0.12860825267E-01  0.12659384539E+00  0.19986256317E-02  0.12880701452E+00  0.19895978745E-01 0.  0.
         14    1    1    2    0    0 -0.13452665126E-01 -0.22230778253E-02  0.22194572494E-01  0.26048326668E-01  0.00000000000E+00 0.  1.
     999901    1    3    3    0    0  0.59183985863E-03 -0.12437076756E+00 -0.24193198125E-01  0.88907465881E+00  0.88000000000E+00 0. -1.
        -11    1    4    4    0    0  0.24693398499E-02  0.21687714045E-01  0.79053191765E-02  0.23220890854E-01  0.51100000000E-03 0.  1.
         11    1    4    4    0    0  0.10391485417E-01  0.10490613134E+00 -0.59066935448E-02  0.10558612367E+00  0.51100000000E-03 0. -1.
</event>
<event>
 8    1  0.1088021E+005  0.1043930E+01  0.7957747E-01            NaN
         13   -1    0    0    0    0  0.00000000000E+00  0.00000000000E+00  0.74505805969E-08  0.10566000000E+00  0.10566000000E+00 0.  1.
     999900   -1    0    0    0    0 -0.00000000000E+00 -0.00000000000E+00 -0.74505805969E-08  0.93827000000E+00  0.93827000000E+00 0.  1.
     999902    2    1    2    0    0 -0.18046369894E-01 -0.12919749905E-01 -0.73051008996E-02  0.10205643007E+01  0.10202967882E+01 0.  0.
     999903    2    3    3    0    0 -0.61650392566E-01 -0.93016337015E-01 -0.71284465106E-01  0.13354111437E+00  0.17290008905E-01 0.  0.
         14    1    1    2    0    0  0.18046369894E-01  0.12919749905E-01  0.73051008996E-02  0.23365699285E-01  0.00000000000E+00 0.  1.
     999901    1    3    3    0    0  0.43604022672E-01  0.80096587110E-01  0.63979364207E-01  0.88702318634E+00  0.88000000000E+00 0. -1.
        -11    1    4    4    0    0 -0.47468859733E-01 -0.82433901282E-01 -0.58056745498E-01  0.11144275456E+00  0.51100000000E-03 0.  1.
         11    1    4    4    0    0 -0.14181532833E-01 -0.10582435733E-01 -0.13227719608E-01  0.22098359816E-01  0.51100000000E-03 0. -1.
</event>
<event>
 8    1  0.1088021E+005  0.1043930E+01  0.7957747E-01            NaN
         13   -1    0    0    0    0  0.00000000000E+00  0.00000000000E+00  0.74505805969E-08  0.10566000000E+00  0.10566000000E+00 0. -1.
     999900   -1    0    0    0    0 -0.00000000000E+00 -0.00000000000E+00 -0.74505805969E-08  0.93827000000E+00  0.93827000000E+00 0.  1.
     999902    2    1    2    0    0 -0.11254553092E-02  0.29552708842E-01 -0.78491287490E-02  0.10133319924E+01  0.10128699268E+01 0.  0.
     999903    2    3    3    0    0 -0.97579394713E-01  0.71981693275E-01  0.26197152672E-01  0.12639189831E+00  0.24197493914E-01 0.  0.
         14    1    1    2    0    0  0.11254553092E-02 -0.29552708842E-01  0.78491287490E-02  0.30598007642E-01  0.00000000000E+00 0. -1.
     999901    1    3    3    0    0  0.96453939403E-01 -0.42428984433E-01 -0.34046281421E-01  0.88694009405E+00  0.88000000000E+00 0. -1.
        -11    1    4    4    0    0 -0.46499197375E-01  0.32652887315E-01  0.46085302212E-04  0.56821207760E-01  0.51100000000E-03 0.  1.
         11    1    4    4    0    0 -0.51080197338E-01  0.39328805960E-01  0.26151067370E-01  0.69570690552E-01  0.51100000000E-03 0. -1.
</event>
<event>
 8    1  0.1088021E+005  0.1043930E+01  0.7957747E-01            NaN
         13   -1    0    0    0    0  0.00000000000E+00  0.00000000000E+00  0.74505805969E-08  0.10566000000E+00  0.10566000000E+00 0. -1.
     999900   -1    0    0    0    0 -0.00000000000E+00 -0.00000000000E+00 -0.74505805969E-08  0.93827000000E+00  0.93827000000E+00 0.  1.
     999902    2    1    2    0    0 -0.94227276693E-02  0.20911461167E-01  0.66620221034E-02  0.10200457051E+01  0.10197660423E+01 0.  0.
     999903    2    3    3    0    0 -0.12489894626E+00  0.59672982743E-02 -0.35035637778E-01  0.13139685436E+00  0.20056968769E-01 0.  0.
         14    1    1    2    0    0  0.94227276693E-02 -0.20911461167E-01 -0.66620221034E-02  0.23884294911E-01  0.00000000000E+00 0. -1.
     999901    1    3    3    0    0  0.11547621859E+00  0.14944162893E-01  0.41697659881E-01  0.88864885073E+00  0.88000000000E+00 0.  1.
        -11    1    4    4    0    0 -0.60994045912E-01  0.12643835029E-01 -0.19752465756E-01  0.65349531179E-01  0.51100000000E-03 0.  1.
         11    1    4    4    0    0 -0.63904900346E-01 -0.66765367547E-02 -0.15283172022E-01  0.66047323180E-01  0.51100000000E-03 0. -1.
</event>
<event>
 8    1  0.1088021E+005  0.1043930E+01  0.7957747E-01            NaN
         13   -1    0    0    0    0  0.00000000000E+00  0.00000000000E+00  0.74505805969E-08  0.10566000000E+00  0.10566000000E+00 0. -1.
     999900   -1    0    0    0    0 -0.00000000000E+00 -0.00000000000E+00 -0.74505805969E-08  0.93827000000E+00  0.93827000000E+00 0.  1.
     999902    2    1    2    0    0  0.19193856409E-01 -0.55351864652E-02 -0.12742951660E-01  0.10202355865E+01  0.10199604045E+01 0.  0.
     999903    2    3    3    0    0 -0.89821620642E-02 -0.95545071835E-01 -0.88664634874E-01  0.13194522326E+00  0.18400665117E-01 0.  0.
         14    1    1    2    0    0 -0.19193856409E-01  0.55351864652E-02  0.12742951660E-01  0.23694413478E-01  0.00000000000E+00 0. -1.
     999901    1    3    3    0    0  0.28176018473E-01  0.90009885370E-01  0.75921683214E-01  0.88829036326E+00  0.88000000000E+00 0. -1.
        -11    1    4    4    0    0 -0.10676736882E-01 -0.73940502159E-01 -0.58959615784E-01  0.95171886523E-01  0.51100000000E-03 0.  1.
         11    1    4    4    0    0  0.16945748178E-02 -0.21604569676E-01 -0.29705019090E-01  0.36773336738E-01  0.51100000000E-03 0. -1.
</event>
<event>
 8    1  0.1088021E+005  0.1043930E+01  0.7957747E-01            NaN
         13   -1    0    0    0    0  0.00000000000E+00  0.00000000000E+00  0.74505805969E-08  0.10566000000E+00  0.10566000000E+00 0.  1.
     999900   -1    0    0    0    0 -0.00000000000E+00 -0.00000000000E+00 -0.74505805969E-08  0.93827000000E+00  0.93827000000E+00 0.  1.
     999902    2    1    2    0    0  0.97789864398E-02 -0.25878292560E-02  0.21405608756E-01  0.10202545798E+01  0.10199798439E+01 0.  0.
     999903    2    3    3    0    0  0.12012185317E+00  0.44233558312E-01  0.26045714322E-01  0.13211645925E+00  0.19761383534E-01 0.  0.
         14    1    1    2    0    0 -0.97789864398E-02  0.25878292560E-02 -0.21405608756E-01  0.23675420213E-01  0.00000000000E+00 0. -1.
     999901    1    3    3    0    0 -0.11034286673E+00 -0.46821387568E-01 -0.46401055667E-02  0.88813812054E+00  0.88000000000E+00 0.  1.
        -11    1    4    4    0    0  0.48390677431E-01  0.24014570251E-01  0.18950008243E-01  0.57251385834E-01  0.51100000000E-03 0.  1.
         11    1    4    4    0    0  0.71731175743E-01  0.20218988061E-01  0.70957060797E-02  0.74865073415E-01  0.51100000000E-03 0. -1.
</event>
<event>
 8    1  0.1088021E+005  0.1043930E+01  0.7957747E-01            NaN
         13   -1    0    0    0    0  0.00000000000E+00  0.00000000000E+00  0.74505805969E-08  0.10566000000E+00  0.10566000000E+00 0. -1.
     999900   -1    0    0    0    0 -0.00000000000E+00 -0.00000000000E+00 -0.74505805969E-08  0.93827000000E+00  0.93827000000E+00 0.  1.
     999902    2    1    2    0    0 -0.16817047430E-01 -0.11355424843E-01  0.11241879598E-01  0.10207321851E+01  0.10204685469E+01 0.  0.
     999903    2    3    3    0    0  0.11803628181E+00 -0.56080869502E-02 -0.46588479213E-01  0.12856471055E+00  0.19859102258E-01 0.  0.
         14    1    1    2    0    0  0.16817047430E-01  0.11355424843E-01 -0.11241879598E-01  0.23197814865E-01  0.00000000000E+00 0.  1.
     999901    1    3    3    0    0 -0.13485332924E+00 -0.57473378924E-02  0.57830358811E-01  0.89216747458E+00  0.88000000000E+00 0. -1.
        -11    1    4    4    0    0  0.69294850046E-01  0.36254957577E-02 -0.34535857597E-01  0.77510689865E-01  0.51100000000E-03 0. -1.
         11    1    4    4    0    0  0.48741431761E-01 -0.92335827079E-02 -0.12052621616E-01  0.51054020689E-01  0.51100000000E-03 0.  1.
</event>
<event>
 8    1  0.1088021E+005  0.1043930E+01  0.7957747E-01            NaN
         13   -1    0    0    0    0  0.00000000000E+00  0.00000000000E+00  0.74505805969E-08  0.10566000000E+00  0.10566000000E+00 0.  1.
     999900   -1    0    0    0    0 -0.00000000000E+00 -0.00000000000E+00 -0.74505805969E-08  0.93827000000E+00  0.93827000000E+00 0.  1.
     999902    2    1    2    0    0 -0.93940756684E-02  0.23635771569E-02  0.22118788387E-01  0.10197830343E+01  0.10194971118E+01 0.  0.
     999903    2    3    3    0    0 -0.78885711014E-01 -0.70654671203E-01  0.76718453708E-01  0.13234747298E+00  0.20373868057E-01 0.  0.
         14    1    1    2    0    0  0.93940756684E-02 -0.23635771569E-02 -0.22118788387E-01  0.24146965738E-01  0.00000000000E+00 0. -1.
     999901    1    3    3    0    0  0.69491635345E-01  0.73018248360E-01 -0.54599665322E-01  0.88743556128E+00  0.88000000000E+00 0.  1.
        -11    1    4    4    0    0 -0.92253217088E-02 -0.14491972202E-01  0.20149677101E-01  0.26483852197E-01  0.51100000000E-03 0.  1.
         11    1    4    4    0    0 -0.69660389305E-01 -0.56162699001E-01  0.56568776608E-01  0.10586362078E+00  0.51100000000E-03 0. -1.
</event>
<event>
 8    1  0.1088021E+005  0.1043930E+01  0.7957747E-01            NaN
         13   -1    0    0    0    0  0.00000000000E+00  0.00000000000E+00  0.74505805969E-08  0.10566000000E+00  0.10566000000E+00 0.  1.
     999900   -1    0    0    0    0 -0.00000000000E+00 -0.00000000000E+00 -0.74505805969E-08  0.93827000000E+00  0.93827000000E+00 0.  1.
     999902    2    1    2    0    0 -0.88244821453E-02 -0.40426015302E-02  0.20328566259E-01  0.10214030224E+01  0.10211545767E+01 0.  0.
     999903    2    3    3    0    0  0.52659321847E-01 -0.10963791763E+00  0.48132299127E-01  0.13252526003E+00  0.21277903233E-01 0.  0.
         14    1    1    2    0    0  0.88244821453E-02  0.40426015302E-02 -0.20328566259E-01  0.22526977569E-01  0.00000000000E+00 0. -1.
     999901    1    3    3    0    0 -0.61483803993E-01  0.10559531610E+00 -0.27803732868E-01  0.88887776240E+00  0.88000000000E+00 0.  1.
        -11    1    4    4    0    0  0.28352413878E-01 -0.59995199138E-01  0.37544570502E-01  0.76243945251E-01  0.51100000000E-03 0.  1.
         11    1    4    4    0    0  0.24306907969E-01 -0.49642718493E-01  0.10587728625E-01  0.56281314775E-01  0.51100000000E-03 0. -1.
</event>
<event>
 8    1  0.1088021E+005  0.1043930E+01  0.7957747E-01            NaN
         13   -1    0    0    0    0  0.00000000000E+00  0.00000000000E+00  0.74505805969E-08  0.10566000000E+00  0.10566000000E+00 0.  1.
     999900   -1    0    0    0    0 -0.00000000000E+00 -0.00000000000E+00 -0.74505805969E-08  0.93827000000E+00  0.93827000000E+00 0.  1.
     999902    2    1    2    0    0  0.14654528326E-03 -0.10490328382E-01 -0.19021173042E-01  0.10222073508E+01  0.10219765137E+01 0.  0.
     999903    2    3    3    0    0 -0.72714493971E-01  0.10501000401E+00  0.20072561339E-01  0.13081665199E+00  0.19889448049E-01 0.  0.
         14    1    1    2    0    0 -0.14654528326E-03  0.10490328382E-01  0.19021173042E-01  0.21722649217E-01  0.00000000000E+00 0.  1.
     999901    1    3    3    0    0  0.72861039254E-01 -0.11550033239E+00 -0.39093734381E-01  0.89139069879E+00  0.88000000000E+00 0.  1.
        -11    1    4    4    0    0 -0.21414468920E-01  0.30930428306E-01 -0.31727361063E-02  0.37757095356E-01  0.51100000000E-03 0. -1.
         11    1    4    4    0    0 -0.51300025051E-01  0.74079575705E-01  0.23245297445E-01  0.93059556636E-01  0.51100000000E-03 0.  1.
</event>
<event>
 8    1  0.1088021E+005  0.1043930E+01  0.7957747E-01            NaN
         13   -1    0    0    0    0  0.00000000000E+00  0.00000000000E+00  0.74505805969E-08  0.10566000000E+00  0.10566000000E+00 0.  1.
     999900   -1    0    0    0    0 -0.00000000000E+00 -0.00000000000E+00 -0.74505805969E-08  0.93827000000E+00  0.93827000000E+00 0.  1.
     999902    2    1    2    0    0  0.20004687423E-01  0.12823600471E-01 -0.26763054983E-02  0.10200177676E+01  0.10197374423E+01 0.  0.
     999903    2    3    3    0    0  0.45174826920E-02  0.28039940483E-01  0.12594432647E+00  0.13040287479E+00  0.18338224331E-01 0.  0.
         14    1    1    2    0    0 -0.20004687423E-01 -0.12823600471E-01  0.26763054983E-02  0.23912232415E-01  0.00000000000E+00 0. -1.
     999901    1    3    3    0    0  0.15487204731E-01 -0.15216340011E-01 -0.12862063197E+00  0.88961489279E+00  0.88000000000E+00 0.  1.
        -11    1    4    4    0    0  0.86255618705E-02  0.22318449303E-01  0.69218985757E-01  0.73239624570E-01  0.51100000000E-03 0. -1.
         11    1    4    4    0    0 -0.41080791785E-02  0.57214911795E-02  0.56725340713E-01  0.57163250221E-01  0.51100000000E-03 0.  1.
</event>
<event>
 8    1  0.1234860E+005  0.1043930E+01  0.7957747E-01            NaN
         13   -1    0    0    0    0  0.00000000000E+00  0.00000000000E+00  0.74505805969E-08  0.10566000000E+00  0.10566000000E+00 0. -1.
     999900   -1    0    0    0    0 -0.00000000000E+00 -0.00000000000E+00 -0.74505805969E-08  0.93827000000E+00  0.93827000000E+00 0. -1.
     999902    2    1    2    0    0 -0.20006300328E-01 -0.40112239927E-02  0.10929515266E-01  0.10207827264E+01  0.10205202488E+01 0.  0.
     999903    2    3    3    0    0  0.74887239285E-01 -0.33823218830E-01  0.99905111788E-01  0.13072082088E+00  0.18835947297E-01 0.  0.
         14    1    1    2    0    0  0.20006300328E-01  0.40112239927E-02 -0.10929515266E-01  0.23147273590E-01  0.00000000000E+00 0. -1.
     999901    1    3    3    0    0 -0.94893539613E-01  0.29811994837E-01 -0.88975596523E-01  0.89006190553E+00  0.88000000000E+00 0. -1.
        -11    1    4    4    0    0  0.34975145769E-01 -0.13052690210E-01  0.59513212613E-01  0.70254659204E-01  0.51100000000E-03 0.  1.
         11    1    4    4    0    0  0.39912093517E-01 -0.20770528620E-01  0.40391899175E-01  0.60466161677E-01  0.51100000000E-03 0. -1.
</event>
<event>
 8    1  0.1088021E+005  0.1043930E+01  0.7957747E-01            NaN
         13   -1    0    0    0    0  0.00000000000E+00  0.00000000000E+00  0.74505805969E-08  0.10566000000E+00  0.10566000000E+00 0.  1.
     999900   -1    0    0    0    0 -0.00000000000E+00 -0.00000000000E+00 -0.74505805969E-08  0.93827000000E+00  0.93827000000E+00 0.  1.
     999902    2    1    2    0    0  0.10248058387E-01  0.18984794433E-01 -0.87509024023E-02  0.10206486037E+01  0.10203830403E+01 0.  0.
     999903    2    3    3    0    0 -0.10145508099E+00 -0.15777733749E-01 -0.77483506032E-01  0.13024970686E+00  0.20474913637E-01 0.  0.
         14    1    1    2    0    0 -0.10248058387E-01 -0.18984794433E-01  0.87509024023E-02  0.23281396290E-01  0.00000000000E+00 0. -1.
     999901    1    3    3    0    0  0.11170313938E+00  0.34762528182E-01  0.68732603629E-01  0.89039889685E+00  0.88000000000E+00 0. -1.
        -11    1    4    4    0    0 -0.26102999898E-01  0.45801258559E-02 -0.16822823332E-01  0.31394468659E-01  0.51100000000E-03 0.  1.
         11    1    4    4    0    0 -0.75352081093E-01 -0.20357859605E-01 -0.60660682700E-01  0.98855238199E-01  0.51100000000E-03 0. -1.
</event>
<event>
 8    1  0.1088021E+005  0.1043930E+01  0.7957747E-01            NaN
         13   -1    0    0    0    0  0.00000000000E+00  0.00000000000E+00  0.74505805969E-08  0.10566000000E+00  0.10566000000E+00 0. -1.
     999900   -1    0    0    0    0 -0.00000000000E+00 -0.00000000000E+00 -0.74505805969E-08  0.93827000000E+00  0.93827000000E+00 0. -1.
     999902    2    1    2    0    0  0.21147144088E-01 -0.97125053888E-02 -0.18049923408E-03  0.10206584069E+01  0.10203930697E+01 0.  0.
     999903    2    3    3    0    0  0.55812826806E-01  0.94999247704E-01  0.68528116072E-01  0.13111519010E+00  0.18845733789E-01 0.  0.
         14    1    1    2    0    0 -0.21147144088E-01  0.97125053888E-02  0.18049923408E-03  0.23271593069E-01  0.00000000000E+00 0.  1.
     999901    1    3    3    0    0 -0.34665682719E-01 -0.10471175309E+00 -0.68708615306E-01  0.88954321683E+00  0.88000000000E+00 0. -1.
        -11    1    4    4    0    0  0.41277275108E-01  0.75692916201E-01  0.61624729067E-01  0.10597688124E+00  0.51100000000E-03 0.  1.
         11    1    4    4    0    0  0.14535551699E-01  0.19306331502E-01  0.69033870050E-02  0.25138308861E-01  0.51100000000E-03 0. -1.
</event>
<event>
 8    1  0.1088021E+005  0.1043930E+01  0.7957747E-01            NaN
         13   -1    0    0    0    0  0.00000000000E+00  0.00000000000E+00  0.74505805969E-08  0.10566000000E+00  0.10566000000E+00 0.  1.
     999900   -1    0    0    0    0 -0.00000000000E+00 -0.00000000000E+00 -0.74505805969E-08  0.93827000000E+00  0.93827000000E+00 0. -1.
     999902    2    1    2    0    0 -0.33551752919E-02 -0.31991285327E-02  0.23024873015E-01  0.10204430589E+01  0.10201727305E+01 0.  0.
     999903    2    3    3    0    0 -0.61831889300E-01 -0.10348240244E+00  0.51289884602E-01  0.13236920388E+00  0.18951615309E-01 0.  0.
         14    1    1    2    0    0  0.33551752919E-02  0.31991285327E-02 -0.23024873015E-01  0.23486941095E-01  0.00000000000E+00 0. -1.
     999901    1    3    3    0    0  0.58476714008E-01  0.10028327391E+00 -0.28265011587E-01  0.88807385503E+00  0.88000000000E+00 0.  1.
        -11    1    4    4    0    0 -0.53995734637E-01 -0.79607303077E-01  0.46255524658E-01  0.10673657641E+00  0.51100000000E-03 0. -1.
         11    1    4    4    0    0 -0.78361546628E-02 -0.23875099365E-01  0.50343599442E-02  0.25632627462E-01  0.51100000000E-03 0.  1.
</event>
<event>
 8    1  0.1088021E+005  0.1043930E+01  0.7957747E-01            NaN
         13   -1    0    0    0    0  0.00000000000E+00  0.00000000000E+00  0.74505805969E-08  0.10566000000E+00  0.10566000000E+00 0. -1.
     999900   -1    0    0    0    0 -0.00000000000E+00 -0.00000000000E+00 -0.74505805969E-08  0.93827000000E+00  0.93827000000E+00 0. -1.
     999902    2    1    2    0    0 -0.20953298834E-01 -0.74268032190E-03  0.96510316802E-02  0.10208489533E+01  0.10205879926E+01 0.  0.
     999903    2    3    3    0    0 -0.27952236153E-01  0.78379307309E-01  0.10120174519E+00  0.13254111968E+00  0.20017788525E-01 0.  0.
         14    1    1    2    0    0  0.20953298834E-01  0.74268032190E-03 -0.96510316802E-02  0.23081046740E-01  0.00000000000E+00 0.  1.
     999901    1    3    3    0    0  0.69989373186E-02 -0.79121987631E-01 -0.91550713509E-01  0.88830783358E+00  0.88000000000E+00 0. -1.
        -11    1    4    4    0    0 -0.19280407409E-01  0.40697899138E-01  0.68064024516E-01  0.81615106802E-01  0.51100000000E-03 0.  1.
         11    1    4    4    0    0 -0.86718287444E-02  0.37681408172E-01  0.33137720673E-01  0.50926012881E-01  0.51100000000E-03 0. -1.
</event>
<event>
 8    1  0.1088021E+005  0.1043930E+01  0.7957747E-01            NaN
         13   -1    0    0    0    0  0.00000000000E+00  0.00000000000E+00  0.74505805969E-08  0.10566000000E+00  0.10566000000E+00 0. -1.
     999900   -1    0    0    0    0 -0.00000000000E+00 -0.00000000000E+00 -0.74505805969E-08  0.93827000000E+00  0.93827000000E+00 0.  1.
     999902    2    1    2    0    0  0.61473567463E-02  0.20515048912E-01  0.95883839865E-02  0.10204652534E+01  0.10201954416E+01 0.  0.
     999903    2    3    3    0    0 -0.10724889252E+00  0.72705928836E-01  0.10162406244E-01  0.13165541612E+00  0.21009451663E-01 0.  0.
         14    1    1    2    0    0 -0.61473567463E-02 -0.20515048912E-01 -0.95883839865E-02  0.23464746628E-01  0.00000000000E+00 0.  1.
     999901    1    3    3    0    0  0.11339624926E+00 -0.52190879924E-01 -0.57402225708E-03  0.88880983725E+00  0.88000000000E+00 0. -1.
        -11    1    4    4    0    0 -0.45019684459E-01  0.31752486798E-01  0.14696910273E-01  0.57019757095E-01  0.51100000000E-03 0. -1.
         11    1    4    4    0    0 -0.62229208059E-01  0.40953442037E-01 -0.45345040299E-02  0.74635659025E-01  0.51100000000E-03 0.  1.
</event>
<event>
 8    1  0.1088021E+005  0.1043930E+01  0.7957747E-01            NaN
         13   -1    0    0    0    0  0.00000000000E+00  0.00000000000E+00  0.74505805969E-08  0.10566000000E+00  0.10566000000E+00 0. -1.
     999900   -1    0    0    0    0 -0.00000000000E+00 -0.00000000000E+00 -0.74505805969E-08  0.93827000000E+00  0.93827000000E+00 0.  1.
     999902    2    1    2    0    0 -0.59083520791E-02  0.17205981940E-01  0.66403286534E-02  0.10245638335E+01  0.10243807889E+01 0.  0.
     999903    2    3    3    0    0  0.10881022748E+00  0.15671972498E-01  0.74894340162E-01  0.13449568122E+00  0.19865793528E-01 0.  0.
         14    1    1    2    0    0  0.59083520791E-02 -0.17205981940E-01 -0.66403286534E-02  0.19366166462E-01  0.00000000000E+00 0.  1.
     999901    1    3    3    0    0 -0.11471857956E+00  0.15340094420E-02 -0.68254011509E-01  0.89006815232E+00  0.88000000000E+00 0.  1.
        -11    1    4    4    0    0  0.70008843878E-01  0.10211623365E-01  0.36405992404E-01  0.79568667682E-01  0.51100000000E-03 0.  1.
         11    1    4    4    0    0  0.38801383604E-01  0.54603491326E-02  0.38488347758E-01  0.54927013539E-01  0.51100000000E-03 0. -1.
</event>
<event>
 8    1  0.1088021E+005  0.1043930E+01  0.7957747E-01            NaN
         13   -1    0    0    0    0  0.00000000000E+00  0.00000000000E+00  0.74505805969E-08  0.10566000000E+00  0.10566000000E+00 0.  1.
     999900   -1    0    0    0    0 -0.00000000000E+00 -0.00000000000E+00 -0.74505805969E-08  0.93827000000E+00  0.93827000000E+00 0. -1.
     999902    2    1    2    0    0 -0.13925721768E-01  0.14819179678E-01  0.11827100217E-01  0.10204052447E+01  0.10201340350E+01 0.  0.
     999903    2    3    3    0    0  0.12378451410E+00  0.26215559023E-03  0.18595071448E-01  0.12955069907E+00  0.33390601812E-01 0.  0.
         14    1    1    2    0    0  0.13925721768E-01 -0.14819179678E-01 -0.11827100217E-01  0.23524755315E-01  0.00000000000E+00 0. -1.
     999901    1    3    3    0    0 -0.13771023587E+00  0.14557024087E-01 -0.67679712312E-02  0.89085454562E+00  0.88000000000E+00 0. -1.
        -11    1    4    4    0    0  0.44808786624E-01 -0.10705195445E-01  0.18942394721E-01  0.49814696697E-01  0.51100000000E-03 0. -1.
         11    1    4    4    0    0  0.78975727478E-01  0.10967351035E-01 -0.34732327326E-03  0.79736002370E-01  0.51100000000E-03 0.  1.
</event>
<event>
 8    1  0.1088021E+005  0.1043930E+01  0.7957747E-01            NaN
         13   -1    0    0    0    0  0.00000000000E+00  0.00000000000E+00  0.74505805969E-08  0.10566000000E+00  0.10566000000E+00 0.  1.
     999900   -1    0    0    0    0 -0.00000000000E+00 -0.00000000000E+00 -0.74505805969E-08  0.93827000000E+00  0.93827000000E+00 0.  1.
     999902    2    1    2    0    0  0.35141673730E-02  0.17097291477E-01  0.15112058728E-01  0.10208423178E+01  0.10205812054E+01 0.  0.
     999903    2    3    3    0    0  0.21492353326E-01  0.73393456711E-01  0.10834535530E+00  0.13394608887E+00  0.18823335752E-01 0.  0.
         14    1    1    2    0    0 -0.35141673730E-02 -0.17097291477E-01 -0.15112058728E-01  0.23087682152E-01  0.00000000000E+00 0. -1.
     999901    1    3    3    0    0 -0.17978185953E-01 -0.56296165234E-01 -0.93233296570E-01  0.88689622898E+00  0.88000000000E+00 0.  1.
        -11    1    4    4    0    0  0.85534982639E-02  0.68777142397E-02  0.15700528354E-01  0.19163324276E-01  0.51100000000E-03 0.  1.
         11    1    4    4    0    0  0.12938855062E-01  0.66515742471E-01  0.92644826944E-01  0.11478276459E+00  0.51100000000E-03 0. -1.
</event>
<event>
 7    1  0.1088021E+005  0.1043930E+01  0.7957747E-01            NaN
         13   -1    0    0    0    0  0.00000000000E+00  0.00000000000E+00  0.74505805969E-08  0.10566000000E+00  0.10566000000E+00 0.  1.
     999900   -1    0    0    0    0 -0.00000000000E+00 -0.00000000000E+00 -0.74505805969E-08  0.93827000000E+00  0.93827000000E+00 0. -1.
     999903    2    1    2    0    0 -0.60325763082E-01 -0.26156777177E-01  0.79674098256E-01  0.10524871752E+00  0.20148347893E-01 0.  0.
         14    1    1    2    0    0  0.30612934467E-01  0.76288540872E-02 -0.47969382990E-01  0.57414396067E-01  0.00000000000E+00 0. -1.
     999901    1    1    2    0    0  0.29712828615E-01  0.18527923090E-01 -0.31704715266E-01  0.88126688641E+00  0.88000000000E+00 0. -1.
        -11    1    3    3    0    0 -0.43423198821E-01 -0.24008422172E-01  0.69503501511E-01  0.85398924901E-01  0.51100000000E-03 0. -1.
         11    1    3    3    0    0 -0.16902564261E-01 -0.21483550056E-02  0.10170596746E-01  0.19849792618E-01  0.51100000000E-03 0.  1.
</event>
<event>
 8    1  0.1088021E+005  0.1043930E+01  0.7957747E-01            NaN
         13   -1    0    0    0    0  0.00000000000E+00  0.00000000000E+00  0.74505805969E-08  0.10566000000E+00  0.10566000000E+00 0. -1.
     999900   -1    0    0    0    0 -0.00000000000E+00 -0.00000000000E+00 -0.74505805969E-08  0.93827000000E+00  0.93827000000E+00 0.  1.
     999902    2    1    2    0    0  0.16821124702E-01 -0.11611333194E-01  0.11863437729E-01  0.10202970897E+01  0.10200233511E+01 0.  0.
     999903    2    3    3    0    0 -0.26130307619E-01  0.52957650718E-01  0.11507833519E+00  0.13087745067E+00  0.19964421335E-01 0.  0.
         14    1    1    2    0    0 -0.16821124702E-01  0.11611333194E-01 -0.11863437729E-01  0.23632910306E-01  0.00000000000E+00 0.  1.
     999901    1    3    3    0    0  0.42951432322E-01 -0.64568983911E-01 -0.10321489746E+00  0.88941963902E+00  0.88000000000E+00 0.  1.
        -11    1    4    4    0    0 -0.13915374133E-01  0.43732406022E-01  0.74469651574E-01  0.87476574580E-01  0.51100000000E-03 0.  1.
         11    1    4    4    0    0 -0.12214933487E-01  0.92252446955E-02  0.40608683612E-01  0.43400876091E-01  0.51100000000E-03 0. -1.
</event>
<event>
 8    1  0.1088021E+005  0.1043930E+01  0.7957747E-01            NaN
         13   -1    0    0    0    0  0.00000000000E+00  0.00000000000E+00  0.74505805969E-08  0.10566000000E+00  0.10566000000E+00 0. -1.
     999900   -1    0    0    0    0 -0.00000000000E+00 -0.00000000000E+00 -0.74505805969E-08  0.93827000000E+00  0.93827000000E+00 0.  1.
     999902    2    1    2    0    0 -0.18409640528E-01  0.13919716346E-01  0.20534015029E-02  0.10207591169E+01  0.10204960974E+01 0.  0.
     999903    2    3    3    0    0  0.11763871970E+00  0.43361301366E-01 -0.27206226851E-01  0.12933772992E+00  0.16401182024E-01 0.  0.
         14    1    1    2    0    0  0.18409640528E-01 -0.13919716346E-01 -0.20534015029E-02  0.23170883135E-01  0.00000000000E+00 0. -1.
     999901    1    3    3    0    0 -0.13604836023E+00 -0.29441585019E-01  0.29259628354E-01  0.89142138694E+00  0.88000000000E+00 0.  1.
        -11    1    4    4    0    0  0.36449856014E-01  0.21237697841E-01 -0.66137210551E-02  0.42704030726E-01  0.51100000000E-03 0. -1.
         11    1    4    4    0    0  0.81188863690E-01  0.22123603525E-01 -0.20592505796E-01  0.86633699195E-01  0.51100000000E-03 0.  1.
</event>
<event>
 8    1  0.1088021E+005  0.1043930E+01  0.7957747E-01            NaN
         13   -1    0    0    0    0  0.00000000000E+00  0.00000000000E+00  0.74505805969E-08  0.10566000000E+00  0.10566000000E+00 0. -1.
     999900   -1    0    0    0    0 -0.00000000000E+00 -0.00000000000E+00 -0.74505805969E-08  0.93827000000E+00  0.93827000000E+00 0.  1.
     999902    2    1    2    0    0  0.16250151561E-01 -0.18301973654E-01 -0.12929120388E-02  0.10194207918E+01  0.10191261205E+01 0.  0.
     999903    2    3    3    0    0  0.11737325834E+00 -0.44512608375E-01 -0.37538964606E-01  0.13250103419E+00  0.19735656065E-01 0.  0.
         14    1    1    2    0    0 -0.16250151561E-01  0.18301973654E-01  0.12929120388E-02  0.24509208207E-01  0.00000000000E+00 0. -1.
     999901    1    3    3    0    0 -0.10112310678E+00  0.26210634721E-01  0.36246052567E-01  0.88691975760E+00  0.88000000000E+00 0.  1.
        -11    1    4    4    0    0  0.77604425308E-01 -0.38927998690E-01 -0.27946105728E-01  0.91209000958E-01  0.51100000000E-03 0.  1.
         11    1    4    4    0    0  0.39768833032E-01 -0.55846096848E-02 -0.95928588781E-02  0.41292033233E-01  0.51100000000E-03 0. -1.
</event>
<event>
 8    1  0.1088021E+005  0.1043930E+01  0.7957747E-01            NaN
         13   -1    0    0    0    0  0.00000000000E+00  0.00000000000E+00  0.74505805969E-08  0.10566000000E+00  0.10566000000E+00 0. -1.
     999900   -1    0    0    0    0 -0.00000000000E+00 -0.00000000000E+00 -0.74505805969E-08  0.93827000000E+00  0.93827000000E+00 0. -1.
     999902    2    1    2    0    0 -0.22819274884E-01  0.54803511845E-02 -0.28678385222E-02  0.10202872833E+01  0.10200133148E+01 0.  0.
     999903    2    3    3    0    0  0.47651591463E-01 -0.48233024969E-01  0.10823787965E+00  0.12888627904E+00  0.17295533107E-01 0.  0.
         14    1    1    2    0    0  0.22819274884E-01 -0.54803511845E-02  0.28678385222E-02  0.23642716704E-01  0.00000000000E+00 0.  1.
     999901    1    3    3    0    0 -0.70470866348E-01  0.53713376154E-01 -0.11110571818E+00  0.89140100426E+00  0.88000000000E+00 0.  1.
        -11    1    4    4    0    0  0.29761669748E-01 -0.34575477480E-01  0.57678453737E-01  0.73541048236E-01  0.51100000000E-03 0. -1.
         11    1    4    4    0    0  0.17889921716E-01 -0.13657547489E-01  0.50559425917E-01  0.55345230801E-01  0.51100000000E-03 0.  1.
</event>
<event>
 8    1  0.1088021E+005  0.1043930E+01  0.7957747E-01            NaN
         13   -1    0    0    0    0  0.00000000000E+00  0.00000000000E+00  0.74505805969E-08  0.10566000000E+00  0.10566000000E+00 0.  1.
     999900   -1    0    0    0    0 -0.00000000000E+00 -0.00000000000E+00 -0.74505805969E-08  0.93827000000E+00  0.93827000000E+00 0. -1.
     999902    2    1    2    0    0  0.43655418589E-02  0.23517318707E-01 -0.22458146633E-02  0.10199057223E+01  0.10196227324E+01 0.  0.
     999903    2    3    3    0    0 -0.28997503035E-01 -0.24310801197E-01 -0.12258262090E+00  0.12980372324E+00  0.19764548645E-01 0.  0.
         14    1    1    2    0    0 -0.43655418589E-02 -0.23517318707E-01  0.22458146633E-02  0.24024277687E-01  0.00000000000E+00 0.  1.
     999901    1    3    3    0    0  0.33363044893E-01  0.47828119904E-01  0.12033680624E+00  0.89010199907E+00  0.88000000000E+00 0.  1.
        -11    1    4    4    0    0 -0.28236021907E-01 -0.16327599023E-01 -0.78723070759E-01  0.85214120976E-01  0.51100000000E-03 0. -1.
         11    1    4    4    0    0 -0.76148112709E-03 -0.79832021748E-02 -0.43859550142E-01  0.44589602265E-01  0.51100000000E-03 0.  1.
</event>
<event>
 8    1  0.1088021E+005  0.1043930E+01  0.7957747E-01            NaN
         13   -1    0    0    0    0  0.00000000000E+00  0.00000000000E+00  0.74505805969E-08  0.10566000000E+00  0.10566000000E+00 0.  1.
     999900   -1    0    0    0    0 -0.00000000000E+00 -0.00000000000E+00 -0.74505805969E-08  0.93827000000E+00  0.93827000000E+00 0. -1.
     999902    2    1    2    0    0  0.62746346715E-03  0.12594635340E-01 -0.21214575689E-01  0.10192505192E+01  0.10189516888E+01 0.  0.
     999903    2    3    3    0    0  0.92625511262E-01 -0.52245213503E-02  0.86018588141E-01  0.12780219511E+00  0.18094822701E-01 0.  0.
         14    1    1    2    0    0 -0.62746346715E-03 -0.12594635340E-01  0.21214575689E-01  0.24679480777E-01  0.00000000000E+00 0.  1.
     999901    1    3    3    0    0 -0.91998047795E-01  0.17819156690E-01 -0.10723316383E+00  0.89144832412E+00  0.88000000000E+00 0. -1.
        -11    1    4    4    0    0  0.55153357974E-01 -0.77926842630E-02  0.61335010089E-01  0.82854471258E-01  0.51100000000E-03 0.  1.
         11    1    4    4    0    0  0.37472153288E-01  0.25681629128E-02  0.24683578052E-01  0.44947723850E-01  0.51100000000E-03 0. -1.
</event>
<event>
 8    1  0.1088021E+005  0.1043930E+01  0.7957747E-01            NaN
         13   -1    0    0    0    0  0.00000000000E+00  0.00000000000E+00  0.74505805969E-08  0.10566000000E+00  0.10566000000E+00 0.  1.
     999900   -1    0    0    0    0 -0.00000000000E+00 -0.00000000000E+00 -0.74505805969E-08  0.93827000000E+00  0.93827000000E+00 0.  1.
     999902    2    1    2    0    0 -0.18858271681E-01  0.18507157200E-02  0.13418527536E-01  0.10207111189E+01  0.10204469961E+01 0.  0.
     999903    2    3    3    0    0 -0.31731041784E-02  0.62889571022E-01 -0.11157738813E+00  0.12964672992E+00  0.19839211257E-01 0.  0.
         14    1    1    2    0    0  0.18858271681E-01 -0.18507157200E-02 -0.13418527536E-01  0.23218881125E-01  0.00000000000E+00 0.  1.
     999901    1    3    3    0    0 -0.15685167503E-01 -0.61038855302E-01  0.12499591566E+00  0.89106438896E+00  0.88000000000E+00 0. -1.
        -11    1    4    4    0    0  0.25197413249E-02  0.47796257011E-01 -0.67837130716E-01  0.83023904421E-01  0.51100000000E-03 0. -1.
         11    1    4    4    0    0 -0.56928455034E-02  0.15093314012E-01 -0.43740257411E-01  0.46622825496E-01  0.51100000000E-03 0.  1.
</event>
<event>
 8    1  0.1088021E+005  0.1043930E+01  0.7957747E-01            NaN
         13   -1    0    0    0    0  0.00000000000E+00  0.00000000000E+00  0.74505805969E-08  0.10566000000E+00  0.10566000000E+00 0.  1.
     999900   -1    0    0    0    0 -0.00000000000E+00 -0.00000000000E+00 -0.74505805969E-08  0.93827000000E+00  0.93827000000E+00 0.  1.
     999902    2    1    2    0    0  0.10587127829E-01 -0.17067505825E-01  0.92332236087E-02  0.10218248095E+01  0.10215856801E+01 0.  0.
     999903    2    3    3    0    0  0.10489992895E+00  0.77218280120E-01  0.33282807208E-02  0.13175763096E+00  0.19553464809E-01 0.  0.
         14    1    1    2    0    0 -0.10587127829E-01  0.17067505825E-01 -0.92332236087E-02  0.22105190544E-01  0.00000000000E+00 0. -1.
     999901    1    3    3    0    0 -0.94312801116E-01 -0.94285785946E-01  0.59049428879E-02  0.89006717850E+00  0.88000000000E+00 0. -1.
        -11    1    4    4    0    0  0.10184940054E-01  0.15574963622E-01  0.21692536832E-02  0.18742445899E-01  0.51100000000E-03 0. -1.
         11    1    4    4    0    0  0.94714988892E-01  0.61643316498E-01  0.11590270377E-02  0.11301518506E+00  0.51100000000E-03 0.  1.
</event>
<event>
 8    1  0.1088021E+005  0.1043930E+01  0.7957747E-01            NaN
         13   -1    0    0    0    0  0.00000000000E+00  0.00000000000E+00  0.74505805969E-08  0.10566000000E+00  0.10566000000E+00 0. -1.
     999900   -1    0    0    0    0 -0.00000000000E+00 -0.00000000000E+00 -0.74505805969E-08  0.93827000000E+00  0.93827000000E+00 0. -1.
     999902    2    1    2    0    0  0.11642665221E-01 -0.17524841583E-01 -0.12872020567E-01  0.10192650321E+01  0.10189665574E+01 0.  0.
     999903    2    3    3    0    0 -0.74113865394E-01  0.10115990999E+00 -0.73039355712E-02  0.12714886461E+00  0.19679783109E-01 0.  0.
         14    1    1    2    0    0 -0.11642665221E-01  0.17524841583E-01  0.12872020567E-01  0.24664967858E-01  0.00000000000E+00 0.  1.
     999901    1    3    3    0    0  0.85756530615E-01 -0.11868475158E+00 -0.55680849955E-02  0.89211616753E+00  0.88000000000E+00 0. -1.
        -11    1    4    4    0    0 -0.40982981804E-01  0.62725901058E-01  0.44454171152E-02  0.75061083895E-01  0.51100000000E-03 0. -1.
         11    1    4    4    0    0 -0.33130883590E-01  0.38434008937E-01 -0.11749352686E-01  0.52087780716E-01  0.51100000000E-03 0.  1.
</event>
<event>
 8    1  0.1088021E+005  0.1043930E+01  0.7957747E-01            NaN
         13   -1    0    0    0    0  0.00000000000E+00  0.00000000000E+00  0.74505805969E-08  0.10566000000E+00  0.10566000000E+00 0. -1.
     999900   -1    0    0    0    0 -0.00000000000E+00 -0.00000000000E+00 -0.74505805969E-08  0.93827000000E+00  0.93827000000E+00 0. -1.
     999902    2    1    2    0    0 -0.17773390197E-01  0.14738515781E-01 -0.24507468233E-02  0.10207109689E+01  0.10204468426E+01 0.  0.
     999903    2    3    3    0    0 -0.91091238288E-01 -0.85392613813E-01 -0.35715375765E-01  0.13138072341E+00  0.19894577908E-01 0.  0.
         14    1    1    2    0    0  0.17773390197E-01 -0.14738515781E-01  0.24507468233E-02  0.23219031128E-01  0.00000000000E+00 0.  1.
     999901    1    3    3    0    0  0.73317848091E-01  0.10013112959E+00  0.33264628941E-01  0.88933024547E+00  0.88000000000E+00 0. -1.
        -11    1    4    4    0    0 -0.41576143507E-01 -0.38639606388E-01 -0.59977979266E-02  0.57077400008E-01  0.51100000000E-03 0. -1.
         11    1    4    4    0    0 -0.49515094781E-01 -0.46753007424E-01 -0.29717577838E-01  0.74303323398E-01  0.51100000000E-03 0.  1.
</event>
<event>
 8    1  0.1181368E+005  0.1043930E+01  0.7957747E-01            NaN
         13   -1    0    0    0    0  0.00000000000E+00  0.00000000000E+00  0.74505805969E-08  0.10566000000E+00  0.10566000000E+00 0. -1.
     999900   -1    0    0    0    0 -0.00000000000E+00 -0.00000000000E+00 -0.74505805969E-08  0.93827000000E+00  0.93827000000E+00 0.  1.
     999902    2    1    2    0    0  0.84984622596E-02 -0.32542809696E-01 -0.50338945906E-02  0.10099212009E+01  0.10093484203E+01 0.  0.
     999903    2    3    3    0    0 -0.33655652152E-01  0.69658302343E-01  0.87358858276E-01  0.11820462176E+00  0.18862144104E-01 0.  0.
         14    1    1    2    0    0 -0.84984622596E-02  0.32542809696E-01  0.50338945906E-02  0.34008799133E-01  0.00000000000E+00 0.  1.
     999901    1    3    3    0    0  0.42154114411E-01 -0.10220111204E+00 -0.92392752867E-01  0.89171657910E+00  0.88000000000E+00 0.  1.
        -11    1    4    4    0    0 -0.23088715092E-01  0.48342618656E-01  0.72508126907E-01  0.90154240786E-01  0.51100000000E-03 0. -1.
         11    1    4    4    0    0 -0.10566937060E-01  0.21315683687E-01  0.14850731369E-01  0.28050380979E-01  0.51100000000E-03 0.  1.
</event>
<event>
 8    1  0.1088021E+005  0.1043930E+01  0.7957747E-01            NaN
         13   -1    0    0    0    0  0.00000000000E+00  0.00000000000E+00  0.74505805969E-08  0.10566000000E+00  0.10566000000E+00 0.  1.
     999900   -1    0    0    0    0 -0.00000000000E+00 -0.00000000000E+00 -0.74505805969E-08  0.93827000000E+00  0.93827000000E+00 0. -1.
     999902    2    1    2    0    0  0.26896407617E-01 -0.10183736364E-02 -0.10517339875E-01  0.10150324523E+01  0.10146210183E+01 0.  0.
     999903    2    3    3    0    0  0.11011974263E+00 -0.47494926556E-01 -0.41905167537E-01  0.12932855750E+00  0.24242668009E-01 0.  0.
         14    1    1    2    0    0 -0.26896407617E-01  0.10183736364E-02  0.10517339875E-01  0.28897547744E-01  0.00000000000E+00 0. -1.
     999901    1    3    3    0    0 -0.83223335017E-01  0.46476552920E-01  0.31387827663E-01  0.88570389476E+00  0.88000000000E+00 0. -1.
        -11    1    4    4    0    0  0.27754309256E-01 -0.10773706558E-02 -0.84146701817E-02  0.29026370856E-01  0.51100000000E-03 0.  1.
         11    1    4    4    0    0  0.82365433378E-01 -0.46417555900E-01 -0.33490497355E-01  0.10030218664E+00  0.51100000000E-03 0. -1.
</event>
<event>
 8    1  0.1088021E+005  0.1043930E+01  0.7957747E-01            NaN
         13   -1    0    0    0    0  0.00000000000E+00  0.00000000000E+00  0.74505805969E-08  0.10566000000E+00  0.10566000000E+00 0. -1.
     999900   -1    0    0    0    0 -0.00000000000E+00 -0.00000000000E+00 -0.74505805969E-08  0.93827000000E+00  0.93827000000E+00 0. -1.
     999902    2    1    2    0    0  0.25049341045E-01 -0.69918291004E-03 -0.82766597798E-03  0.10188572384E+01  0.10185486875E+01 0.  0.
     999903    2    3    3    0    0  0.41447889990E-01 -0.10432078492E+00  0.63214982496E-01  0.13031471852E+00  0.19622387682E-01 0.  0.
         14    1    1    2    0    0 -0.25049341045E-01  0.69918291004E-03  0.82766597798E-03  0.25072761605E-01  0.00000000000E+00 0.  1.
     999901    1    3    3    0    0 -0.16398548945E-01  0.10362160201E+00 -0.64042648474E-01  0.88854251988E+00  0.88000000000E+00 0.  1.
        -11    1    4    4    0    0  0.32094944921E-02 -0.39589518891E-02  0.81362746618E-02  0.96142727924E-02  0.51100000000E-03 0.  1.
         11    1    4    4    0    0  0.38238395497E-01 -0.10036183303E+00  0.55078707834E-01  0.12070044572E+00  0.51100000000E-03 0. -1.
</event>
<event>
 8    1  0.1088021E+005  0.1043930E+01  0.7957747E-01            NaN
         13   -1    0    0    0    0  0.00000000000E+00  0.00000000000E+00  0.74505805969E-08  0.10566000000E+00  0.10566000000E+00 0.  1.
     999900   -1    0    0    0    0 -0.00000000000E+00 -0.00000000000E+00 -0.74505805969E-08  0.93827000000E+00  0.93827000000E+00 0.  1.
     999902    2    1    2    0    0 -0.14164583618E-01  0.14618457207E-01 -0.12179584299E-01  0.10202091865E+01  0.10199333837E+01 0.  0.
     999903    2    3    3    0    0 -0.35784582643E-02 -0.57901982200E-01  0.11271641570E+00  0.12837383677E+00  0.20233800733E-01 0.  0.
         14    1    1    2    0    0  0.14164583618E-01 -0.14618457207E-01  0.12179584299E-01  0.23720813517E-01  0.00000000000E+00 0.  1.
     999901    1    3    3    0    0 -0.10586125354E-01  0.72520439408E-01 -0.12489600000E+00  0.89183534971E+00  0.88000000000E+00 0.  1.
        -11    1    4    4    0    0 -0.95828652655E-02 -0.13418345794E-01  0.32701210561E-01  0.36626678852E-01  0.51100000000E-03 0. -1.
         11    1    4    4    0    0  0.60044070012E-02 -0.44483636407E-01  0.80015205141E-01  0.91747157918E-01  0.51100000000E-03 0.  1.
</event>
<event>
 8    1  0.1088021E+005  0.1043930E+01  0.7957747E-01            NaN
         13   -1    0    0    0    0  0.00000000000E+00  0.00000000000E+00  0.74505805969E-08  0.10566000000E+00  0.10566000000E+00 0.  1.
     999900   -1    0    0    0    0 -0.00000000000E+00 -0.00000000000E+00 -0.74505805969E-08  0.93827000000E+00  0.93827000000E+00 0.  1.
     999902    2    1    2    0    0 -0.96492426046E-02  0.31702905991E-02  0.21238059173E-01  0.10203882545E+01  0.10201166483E+01 0.  0.
     999903    2    3    3    0    0 -0.32672786452E-01 -0.12497175495E+00  0.85260366700E-02  0.13071861751E+00  0.18144231911E-01 0.  0.
         14    1    1    2    0    0  0.96492426046E-02 -0.31702905991E-02 -0.21238059173E-01  0.23541745534E-01  0.00000000000E+00 0. -1.
     999901    1    3    3    0    0  0.23023543847E-01  0.12814204555E+00  0.12712022503E-01  0.88966963696E+00  0.88000000000E+00 0. -1.
        -11    1    4    4    0    0 -0.47306953636E-02 -0.48332226054E-01  0.74613895381E-02  0.49135699942E-01  0.51100000000E-03 0.  1.
         11    1    4    4    0    0 -0.27942091088E-01 -0.76639528898E-01  0.10646471319E-02  0.81582917567E-01  0.51100000000E-03 0. -1.
</event>
<event>
 8    1  0.1088021E+005  0.1043930E+01  0.7957747E-01            NaN
         13   -1    0    0    0    0  0.00000000000E+00  0.00000000000E+00  0.74505805969E-08  0.10566000000E+00  0.10566000000E+00 0.  1.
     999900   -1    0    0    0    0 -0.00000000000E+00 -0.00000000000E+00 -0.74505805969E-08  0.93827000000E+00  0.93827000000E+00 0. -1.
     999902    2    1    2    0    0 -0.18538514685E-01 -0.17026628340E-01  0.77943431990E-03  0.10187468684E+01  0.10184355609E+01 0.  0.
     999903    2    3    3    0    0  0.77693389715E-01  0.19942119074E-01 -0.96934583893E-01  0.12735733679E+00  0.19738965547E-01 0.  0.
         14    1    1    2    0    0  0.18538514685E-01  0.17026628340E-01 -0.77943431990E-03  0.25183131600E-01  0.00000000000E+00 0.  1.
     999901    1    3    3    0    0 -0.96231904400E-01 -0.36968747414E-01  0.97714018213E-01  0.89138953161E+00  0.88000000000E+00 0.  1.
        -11    1    4    4    0    0  0.26603953641E-01  0.16659312108E-01 -0.37984039335E-01  0.49278305516E-01  0.51100000000E-03 0.  1.
         11    1    4    4    0    0  0.51089436074E-01  0.32828069661E-02 -0.58950544558E-01  0.78079031274E-01  0.51100000000E-03 0. -1.
</event>
<event>
 8    1  0.1088021E+005  0.1043930E+01  0.7957747E-01            NaN
         13   -1    0    0    0    0  0.00000000000E+00  0.00000000000E+00  0.74505805969E-08  0.10566000000E+00  0.10566000000E+00 0.  1.
     999900   -1    0    0    0    0 -0.00000000000E+00 -0.00000000000E+00 -0.74505805969E-08  0.93827000000E+00  0.93827000000E+00 0. -1.
     999902    2    1    2    0    0 -0.19749708368E-01 -0.12335049937E-01 -0.19753274417E-02  0.10205610814E+01  0.10202934943E+01 0.  0.
     999903    2    3    3    0    0 -0.11281957558E+00  0.25435344336E-01  0.61240315267E-01  0.13259440391E+00  0.21346811423E-01 0.  0.
         14    1    1    2    0    0  0.19749708368E-01  0.12335049937E-01  0.19753274417E-02  0.23368918591E-01  0.00000000000E+00 0.  1.
     999901    1    3    3    0    0  0.93069867215E-01 -0.37770394274E-01 -0.63215642708E-01  0.88796667750E+00  0.88000000000E+00 0.  1.
        -11    1    4    4    0    0 -0.24739167356E-01  0.99572842899E-02  0.23416734651E-01  0.35493358458E-01  0.51100000000E-03 0. -1.
         11    1    4    4    0    0 -0.88080408227E-01  0.15478060047E-01  0.37823580615E-01  0.97101045452E-01  0.51100000000E-03 0.  1.
</event>
<event>
 8    1  0.1088021E+005  0.1043930E+01  0.7957747E-01            NaN
         13   -1    0    0    0    0  0.00000000000E+00  0.00000000000E+00  0.74505805969E-08  0.10566000000E+00  0.10566000000E+00 0. -1.
     999900   -1    0    0    0    0 -0.00000000000E+00 -0.00000000000E+00 -0.74505805969E-08  0.93827000000E+00  0.93827000000E+00 0.  1.
     999902    2    1    2    0    0 -0.10747410251E-01  0.84035038452E-02  0.18824258396E-01  0.10206818085E+01  0.10204170107E+01 0.  0.
     999903    2    3    3    0    0 -0.19734954596E-01  0.10787375156E+00  0.73204491786E-01  0.13336432534E+00  0.20023260129E-01 0.  0.
         14    1    1    2    0    0  0.10747410251E-01 -0.84035038452E-02 -0.18824258396E-01  0.23248191502E-01  0.00000000000E+00 0.  1.
     999901    1    3    3    0    0  0.89875443444E-02 -0.99470247719E-01 -0.54380233390E-01  0.88731748316E+00  0.88000000000E+00 0.  1.
        -11    1    4    4    0    0 -0.20808355518E-01  0.59758701282E-01  0.39276184091E-01  0.74477981955E-01  0.51100000000E-03 0. -1.
         11    1    4    4    0    0  0.10734009226E-02  0.48115050282E-01  0.33928307695E-01  0.58886343385E-01  0.51100000000E-03 0.  1.
</event>
<event>
 8    1  0.1088021E+005  0.1043930E+01  0.7957747E-01            NaN
         13   -1    0    0    0    0  0.00000000000E+00  0.00000000000E+00  0.74505805969E-08  0.10566000000E+00  0.10566000000E+00 0.  1.
     999900   -1    0    0    0    0 -0.00000000000E+00 -0.00000000000E+00 -0.74505805969E-08  0.93827000000E+00  0.93827000000E+00 0.  1.
     999902    2    1    2    0    0  0.10866759729E-01  0.16619009953E-01  0.12641919886E-01  0.10203907541E+01  0.10201192063E+01 0.  0.
     999903    2    3    3    0    0  0.19698678029E-01  0.12629282482E+00  0.32178204592E-01  0.13332366822E+00  0.20046150228E-01 0.  0.
         14    1    1    2    0    0 -0.10866759729E-01 -0.16619009953E-01 -0.12641919886E-01  0.23539245893E-01  0.00000000000E+00 0. -1.
     999901    1    3    3    0    0 -0.88319182999E-02 -0.10967381487E+00 -0.19536284706E-01  0.88706708589E+00  0.88000000000E+00 0. -1.
        -11    1    4    4    0    0  0.14537872883E-01  0.55493430377E-01  0.22735716459E-01  0.61709354938E-01  0.51100000000E-03 0.  1.
         11    1    4    4    0    0  0.51608051456E-02  0.70799394443E-01  0.94424881328E-02  0.71614313279E-01  0.51100000000E-03 0. -1.
</event>
<event>
 8    1  0.1088021E+005  0.1043930E+01  0.7957747E-01            NaN
         13   -1    0    0    0    0  0.00000000000E+00  0.00000000000E+00  0.74505805969E-08  0.10566000000E+00  0.10566000000E+00 0.  1.
     999900   -1    0    0    0    0 -0.00000000000E+00 -0.00000000000E+00 -0.74505805969E-08  0.93827000000E+00  0.93827000000E+00 0. -1.
     999902    2    1    2    0    0  0.19835517405E-01 -0.11275571244E-01  0.12254379515E-02  0.10210807559E+01  0.10208250693E+01 0.  0.
     999903    2    3    3    0    0 -0.27323098658E-01  0.12249577274E+00  0.23505997158E-01  0.12944454597E+00  0.21250706342E-01 0.  0.
         14    1    1    2    0    0 -0.19835517405E-01  0.11275571244E-01 -0.12254379515E-02  0.22849244097E-01  0.00000000000E+00 0.  1.
     999901    1    3    3    0    0  0.47158616063E-01 -0.13377134399E+00 -0.22280559206E-01  0.89163620993E+00  0.88000000000E+00 0. -1.
        -11    1    4    4    0    0 -0.13590082292E-01  0.22562205685E-01  0.30820467304E-02  0.26523642192E-01  0.51100000000E-03 0. -1.
         11    1    4    4    0    0 -0.13733016366E-01  0.99933567056E-01  0.20423950427E-01  0.10292090378E+00  0.51100000000E-03 0.  1.
</event>
<event>
 8    1  0.1088021E+005  0.1043930E+01  0.7957747E-01            NaN
         13   -1    0    0    0    0  0.00000000000E+00  0.00000000000E+00  0.74505805969E-08  0.10566000000E+00  0.10566000000E+00 0. -1.
     999900   -1    0    0    0    0 -0.00000000000E+00 -0.00000000000E+00 -0.74505805969E-08  0.93827000000E+00  0.93827000000E+00 0. -1.
     999902    2    1    2    0    0  0.12667322258E-01 -0.17737015840E-01 -0.84477896780E-02  0.10205542019E+01  0.10202864555E+01 0.  0.
     999903    2    3    3    0    0 -0.42400099812E-01 -0.63770307230E-01  0.10391836135E+00  0.13051058684E+00  0.19224122964E-01 0.  0.
         14    1    1    2    0    0 -0.12667322258E-01  0.17737015840E-01  0.84477896780E-02  0.23375798051E-01  0.00000000000E+00 0.  1.
     999901    1    3    3    0    0  0.55067422070E-01  0.46033291390E-01 -0.11236615103E+00  0.89004361510E+00  0.88000000000E+00 0. -1.
        -11    1    4    4    0    0 -0.19846028025E-01 -0.38929592546E-01  0.45133355626E-01  0.62822439583E-01  0.51100000000E-03 0. -1.
         11    1    4    4    0    0 -0.22554071787E-01 -0.24840714684E-01  0.58785005728E-01  0.67688147261E-01  0.51100000000E-03 0.  1.
</event>
<event>
 8    1  0.1088021E+005  0.1043930E+01  0.7957747E-01            NaN
         13   -1    0    0    0    0  0.00000000000E+00  0.00000000000E+00  0.74505805969E-08  0.10566000000E+00  0.10566000000E+00 0. -1.
     999900   -1    0    0    0    0 -0.00000000000E+00 -0.00000000000E+00 -0.74505805969E-08  0.93827000000E+00  0.93827000000E+00 0.  1.
     999902    2    1    2    0    0  0.15867547862E-02 -0.19834234465E-01 -0.14223278048E-01  0.10194715396E+01  0.10191781021E+01 0.  0.
     999903    2    3    3    0    0  0.38577556277E-01  0.11893468891E+00  0.14506552860E-01  0.12736698479E+00  0.19447896172E-01 0.  0.
         14    1    1    2    0    0 -0.15867547862E-02  0.19834234465E-01  0.14223278048E-01  0.24458460417E-01  0.00000000000E+00 0. -1.
     999901    1    3    3    0    0 -0.36990801491E-01 -0.13876892337E+00 -0.28729830908E-01  0.89210455479E+00  0.88000000000E+00 0.  1.
        -11    1    4    4    0    0  0.11886607276E-01  0.16494945728E-01  0.57977845048E-02  0.21148288188E-01  0.51100000000E-03 0.  1.
         11    1    4    4    0    0  0.26690949001E-01  0.10243974318E+00  0.87087683553E-02  0.10621869661E+00  0.51100000000E-03 0. -1.
</event>
<event>
 8    1  0.1088021E+005  0.1043930E+01  0.7957747E-01            NaN
         13   -1    0    0    0    0  0.00000000000E+00  0.00000000000E+00  0.74505805969E-08  0.10566000000E+00  0.10566000000E+00 0.  1.
     999900   -1    0    0    0    0 -0.00000000000E+00 -0.00000000000E+00 -0.74505805969E-08  0.93827000000E+00  0.93827000000E+00 0. -1.
     999902    2    1    2    0    0  0.12555152808E-01 -0.20214023915E-01 -0.30730417644E-02  0.10199366215E+01  0.10196543678E+01 0.  0.
     999903    2    3    3    0    0  0.95418236894E-01 -0.90343289625E-01  0.94371329519E-02  0.13317796829E+00  0.19513119895E-01 0.  0.
         14    1    1    2    0    0 -0.12555152808E-01  0.20214023915E-01  0.30730417644E-02  0.23993378473E-01  0.00000000000E+00 0.  1.
     999901    1    3    3    0    0 -0.82863084086E-01  0.70129265710E-01 -0.12510174716E-01  0.88675865323E+00  0.88000000000E+00 0. -1.
        -11    1    4    4    0    0  0.61077293440E-01 -0.64182912113E-01 -0.16029671837E-02  0.88615532532E-01  0.51100000000E-03 0.  1.
         11    1    4    4    0    0  0.34340943454E-01 -0.26160377512E-01  0.11040100136E-01  0.44562435761E-01  0.51100000000E-03 0. -1.
</event>
<event>
 8    1  0.1088021E+005  0.1043930E+01  0.7957747E-01            NaN
         13   -1    0    0    0    0  0.00000000000E+00  0.00000000000E+00  0.74505805969E-08  0.10566000000E+00  0.10566000000E+00 0. -1.
     999900   -1    0    0    0    0 -0.00000000000E+00 -0.00000000000E+00 -0.74505805969E-08  0.93827000000E+00  0.93827000000E+00 0. -1.
     999902    2    1    2    0    0  0.64279225418E-02 -0.14666480827E-01 -0.17935054138E-01  0.10198864974E+01  0.10196030491E+01 0.  0.
     999903    2    3    3    0    0 -0.12608399136E+00 -0.22948507959E-01 -0.70995590519E-02  0.12986098812E+00  0.19739949371E-01 0.  0.
         14    1    1    2    0    0 -0.64279225418E-02  0.14666480827E-01  0.17935054138E-01  0.24043502552E-01  0.00000000000E+00 0. -1.
     999901    1    3    3    0    0  0.13251191391E+00  0.82820271323E-02 -0.10835495086E-01  0.89002550933E+00  0.88000000000E+00 0.  1.
        -11    1    4    4    0    0 -0.56804325936E-01 -0.32546707455E-02 -0.10021179162E-01  0.57775509340E-01  0.51100000000E-03 0.  1.
         11    1    4    4    0    0 -0.69279665427E-01 -0.19693837213E-01  0.29216201097E-02  0.72085478780E-01  0.51100000000E-03 0. -1.
</event>
<event>
 8    1  0.1088021E+005  0.1043930E+01  0.7957747E-01            NaN
         13   -1    0    0    0    0  0.00000000000E+00  0.00000000000E+00  0.74505805969E-08  0.10566000000E+00  0.10566000000E+00 0.  1.
     999900   -1    0    0    0    0 -0.00000000000E+00 -0.00000000000E+00 -0.74505805969E-08  0.93827000000E+00  0.93827000000E+00 0. -1.
     999902    2    1    2    0    0 -0.16294503839E-01  0.15589636371E-01 -0.14567593768E-02  0.10213319964E+01  0.10210819640E+01 0.  0.
     999903    2    3    3    0    0 -0.11076348397E+00  0.39111293592E-01 -0.61561829594E-01  0.13392550782E+00  0.18653152926E-01 0.  0.
         14    1    1    2    0    0  0.16294503839E-01 -0.15589636371E-01  0.14567593768E-02  0.22598003572E-01  0.00000000000E+00 0. -1.
     999901    1    3    3    0    0  0.94468980127E-01 -0.23521657221E-01  0.60105070218E-01  0.88740648861E+00  0.88000000000E+00 0.  1.
        -11    1    4    4    0    0 -0.10190865441E+00  0.30709744257E-01 -0.57930194378E-01  0.12118015835E+00  0.51100000000E-03 0. -1.
         11    1    4    4    0    0 -0.88548295599E-02  0.84015493349E-02 -0.36316352163E-02  0.12745349470E-01  0.51100000000E-03 0.  1.
</event>
<event>
 8    1  0.1088021E+005  0.1043930E+01  0.7957747E-01            NaN
         13   -1    0    0    0    0  0.00000000000E+00  0.00000000000E+00  0.74505805969E-08  0.10566000000E+00  0.10566000000E+00 0.  1.
     999900   -1    0    0    0    0 -0.00000000000E+00 -0.00000000000E+00 -0.74505805969E-08  0.93827000000E+00  0.93827000000E+00 0.  1.
     999902    2    1    2    0    0 -0.16776925728E-01  0.15567634879E-01  0.35003769776E-02  0.10207768332E+01  0.10205142204E+01 0.  0.
     999903    2    3    3    0    0 -0.36809881071E-01 -0.11845053622E+00 -0.31593090893E-01  0.12971356893E+00  0.21023551014E-01 0.  0.
         14    1    1    2    0    0  0.16776925728E-01 -0.15567634879E-01 -0.35003769776E-02  0.23153166773E-01  0.00000000000E+00 0. -1.
     999901    1    3    3    0    0  0.20032955343E-01  0.13401817110E+00  0.35093467871E-01  0.89106326429E+00  0.88000000000E+00 0. -1.
        -11    1    4    4    0    0 -0.85900498119E-02 -0.45538231331E-01 -0.29162807959E-02  0.46435818968E-01  0.51100000000E-03 0.  1.
         11    1    4    4    0    0 -0.28219831259E-01 -0.72912304893E-01 -0.28676810098E-01  0.83277749967E-01  0.51100000000E-03 0. -1.
</event>
<event>
 8    1  0.1088021E+005  0.1043930E+01  0.7957747E-01            NaN
         13   -1    0    0    0    0  0.00000000000E+00  0.00000000000E+00  0.74505805969E-08  0.10566000000E+00  0.10566000000E+00 0. -1.
     999900   -1    0    0    0    0 -0.00000000000E+00 -0.00000000000E+00 -0.74505805969E-08  0.93827000000E+00  0.93827000000E+00 0. -1.
     999902    2    1    2    0    0 -0.10951178894E-01 -0.63970363996E-02  0.23083342188E-01  0.10175919841E+01  0.10172510777E+01 0.  0.
     999903    2    3    3    0    0 -0.16132536771E-01 -0.12546879533E+00 -0.13979229422E-01  0.12878460091E+00  0.19681901134E-01 0.  0.
         14    1    1    2    0    0  0.10951178894E-01  0.63970363996E-02 -0.23083342188E-01  0.26338015879E-01  0.00000000000E+00 0.  1.
     999901    1    3    3    0    0  0.51813578771E-02  0.11907175893E+00  0.37062571610E-01  0.88880738321E+00  0.88000000000E+00 0. -1.
        -11    1    4    4    0    0 -0.10442241489E-01 -0.22783030489E-01 -0.60989270076E-03  0.25074687948E-01  0.51100000000E-03 0. -1.
         11    1    4    4    0    0 -0.56902952817E-02 -0.10268576484E+00 -0.13369336721E-01  0.10370991296E+00  0.51100000000E-03 0.  1.
</event>
<event>
 8    1  0.1088021E+005  0.1043930E+01  0.7957747E-01            NaN
         13   -1    0    0    0    0  0.00000000000E+00  0.00000000000E+00  0.74505805969E-08  0.10566000000E+00  0.10566000000E+00 0. -1.
     999900   -1    0    0    0    0 -0.00000000000E+00 -0.00000000000E+00 -0.74505805969E-08  0.93827000000E+00  0.93827000000E+00 0. -1.
     999902    2    1    2    0    0 -0.13237633355E-01  0.14397780723E-01 -0.13408321632E-01  0.10202168367E+01  0.10199412138E+01 0.  0.
     999903    2    3    3    0    0  0.11628343878E+00  0.23524965207E-01 -0.49404396358E-01  0.12996140645E+00  0.19336769736E-01 0.  0.
         14    1    1    2    0    0  0.13237633355E-01 -0.14397780723E-01  0.13408321632E-01  0.23713163340E-01  0.00000000000E+00 0. -1.
     999901    1    3    3    0    0 -0.12952107214E+00 -0.91271844837E-02  0.35996074726E-01  0.89025543021E+00  0.88000000000E+00 0. -1.
        -11    1    4    4    0    0  0.53529835560E-01  0.13042670504E-01 -0.12826968497E-01  0.56571607638E-01  0.51100000000E-03 0.  1.
         11    1    4    4    0    0  0.62753603222E-01  0.10482294703E-01 -0.36577427861E-01  0.73389798811E-01  0.51100000000E-03 0. -1.
</event>
<event>
 8    1  0.1088021E+005  0.1043930E+01  0.7957747E-01            NaN
         13   -1    0    0    0    0  0.00000000000E+00  0.00000000000E+00  0.74505805969E-08  0.10566000000E+00  0.10566000000E+00 0. -1.
     999900   -1    0    0    0    0 -0.00000000000E+00 -0.00000000000E+00 -0.74505805969E-08  0.93827000000E+00  0.93827000000E+00 0. -1.
     999902    2    1    2    0    0  0.79790225797E-02  0.12858946457E-01 -0.18573030077E-01  0.10199722298E+01  0.10196908232E+01 0.  0.
     999903    2    3    3    0    0  0.10460601657E+00  0.54481563861E-01 -0.59415147722E-01  0.13276464599E+00  0.13624681398E-01 0.  0.
         14    1    1    2    0    0 -0.79790225797E-02 -0.12858946457E-01  0.18573030077E-01  0.23957770171E-01  0.00000000000E+00 0. -1.
     999901    1    3    3    0    0 -0.96626993989E-01 -0.41622617404E-01  0.40842117645E-01  0.88720758384E+00  0.88000000000E+00 0.  1.
        -11    1    4    4    0    0  0.15405115399E-01  0.13787912977E-01 -0.10126619010E-01  0.23026803041E-01  0.51100000000E-03 0.  1.
         11    1    4    4    0    0  0.89200901169E-01  0.40693650885E-01 -0.49288528711E-01  0.10973784295E+00  0.51100000000E-03 0. -1.
</event>
<event>
 8    1  0.1088021E+005  0.1043930E+01  0.7957747E-01            NaN
         13   -1    0    0    0    0  0.00000000000E+00  0.00000000000E+00  0.74505805969E-08  0.10566000000E+00  0.10566000000E+00 0.  1.
     999900   -1    0    0    0    0 -0.00000000000E+00 -0.00000000000E+00 -0.74505805969E-08  0.93827000000E+00  0.93827000000E+00 0. -1.
     999902    2    1    2    0    0  0.32688020600E-02  0.16162425416E-01  0.17404668969E-01  0.10199543548E+01  0.10196725230E+01 0.  0.
     999903    2    3    3    0    0 -0.61767421918E-01 -0.63226846143E-01  0.94197148486E-01  0.13066843237E+00  0.19705023522E-01 0.  0.
         14    1    1    2    0    0 -0.32688020600E-02 -0.16162425416E-01 -0.17404668969E-01  0.23975645229E-01  0.00000000000E+00 0. -1.
     999901    1    3    3    0    0  0.65036223978E-01  0.79389271558E-01 -0.76792479517E-01  0.88928592240E+00  0.88000000000E+00 0.  1.
        -11    1    4    4    0    0 -0.20966178651E-01 -0.30870519344E-01  0.49821697576E-01  0.62249757286E-01  0.51100000000E-03 0. -1.
         11    1    4    4    0    0 -0.40801243266E-01 -0.32356326798E-01  0.44375450910E-01  0.68418675085E-01  0.51100000000E-03 0.  1.
</event>
<event>
 8    1  0.1088021E+005  0.1043930E+01  0.7957747E-01            NaN
         13   -1    0    0    0    0  0.00000000000E+00  0.00000000000E+00  0.74505805969E-08  0.10566000000E+00  0.10566000000E+00 0.  1.
     999900   -1    0    0    0    0 -0.00000000000E+00 -0.00000000000E+00 -0.74505805969E-08  0.93827000000E+00  0.93827000000E+00 0. -1.
     999902    2    1    2    0    0 -0.10883904775E-01 -0.27821569631E-02 -0.21196552865E-01  0.10199405516E+01  0.10196583914E+01 0.  0.
     999903    2    3    3    0    0  0.79631653516E-01  0.69988284714E-01 -0.74301031996E-01  0.13072253044E+00  0.18115638832E-01 0.  0.
         14    1    1    2    0    0  0.10883904775E-01  0.27821569631E-02  0.21196552865E-01  0.23989448387E-01  0.00000000000E+00 0.  1.
     999901    1    3    3    0    0 -0.90515558291E-01 -0.72770441677E-01  0.53104479131E-01  0.88921802117E+00  0.88000000000E+00 0.  1.
        -11    1    4    4    0    0  0.43681442495E-01  0.26727695117E-01 -0.32737133073E-01  0.60781733338E-01  0.51100000000E-03 0.  1.
         11    1    4    4    0    0  0.35950211021E-01  0.43260589596E-01 -0.41563898923E-01  0.69940797103E-01  0.51100000000E-03 0. -1.
</event>
<event>
 8    1  0.1088021E+005  0.1043930E+01  0.7957747E-01            NaN
         13   -1    0    0    0    0  0.00000000000E+00  0.00000000000E+00  0.74505805969E-08  0.10566000000E+00  0.10566000000E+00 0.  1.
     999900   -1    0    0    0    0 -0.00000000000E+00 -0.00000000000E+00 -0.74505805969E-08  0.93827000000E+00  0.93827000000E+00 0. -1.
     999902    2    1    2    0    0  0.19802666114E-01  0.10573483498E-01  0.85209821137E-02  0.10199185179E+01  0.10196358329E+01 0.  0.
     999903    2    3    3    0    0 -0.98294735432E-01 -0.71632105050E-01 -0.31429115164E-01  0.12733756057E+00  0.20833904197E-01 0.  0.
         14    1    1    2    0    0 -0.19802666114E-01 -0.10573483498E-01 -0.85209821137E-02  0.24011482143E-01  0.00000000000E+00 0.  1.
     999901    1    3    3    0    0  0.11809740155E+00  0.82205588548E-01  0.39950097278E-01  0.89258095729E+00  0.88000000000E+00 0.  1.
        -11    1    4    4    0    0 -0.45282506712E-01 -0.45834382660E-01 -0.15728112873E-01  0.66324435192E-01  0.51100000000E-03 0.  1.
         11    1    4    4    0    0 -0.53012228720E-01 -0.25797722391E-01 -0.15701002291E-01  0.61013125377E-01  0.51100000000E-03 0. -1.
</event>
<event>
 8    1  0.1088021E+005  0.1043930E+01  0.7957747E-01            NaN
         13   -1    0    0    0    0  0.00000000000E+00  0.00000000000E+00  0.74505805969E-08  0.10566000000E+00  0.10566000000E+00 0. -1.
     999900   -1    0    0    0    0 -0.00000000000E+00 -0.00000000000E+00 -0.74505805969E-08  0.93827000000E+00  0.93827000000E+00 0.  1.
     999902    2    1    2    0    0  0.14408399422E-01  0.15013944267E-02  0.15088786920E-01  0.10230128384E+01  0.10227989733E+01 0.  0.
     999903    2    3    3    0    0  0.11437308704E+00 -0.59466397303E-01 -0.31428067403E-01  0.13403936964E+00  0.19009832906E-01 0.  0.
         14    1    1    2    0    0 -0.14408399422E-01 -0.15013944267E-02 -0.15088786920E-01  0.20917161610E-01  0.00000000000E+00 0.  1.
     999901    1    3    3    0    0 -0.99964687616E-01  0.60967791730E-01  0.46516854323E-01  0.88897346875E+00  0.88000000000E+00 0. -1.
        -11    1    4    4    0    0  0.10503824410E+00 -0.49436740861E-01 -0.24384921345E-01  0.11862507989E+00  0.51100000000E-03 0. -1.
         11    1    4    4    0    0  0.93348429394E-02 -0.10029656443E-01 -0.70431460582E-02  0.15414289749E-01  0.51100000000E-03 0.  1.
</event>
<event>
 8    1  0.1088021E+005  0.1043930E+01  0.7957747E-01            NaN
         13   -1    0    0    0    0  0.00000000000E+00  0.00000000000E+00  0.74505805969E-08  0.10566000000E+00  0.10566000000E+00 0. -1.
     999900   -1    0    0    0    0 -0.00000000000E+00 -0.00000000000E+00 -0.74505805969E-08  0.93827000000E+00  0.93827000000E+00 0. -1.
     999902    2    1    2    0    0 -0.16178184212E-01 -0.16144696115E-01  0.85822185824E-02  0.10195160832E+01  0.10192237265E+01 0.  0.
     999903    2    3    3    0    0 -0.63088553454E-01 -0.24010817878E-02  0.11394149734E+00  0.13188437620E+00  0.20612935248E-01 0.  0.
         14    1    1    2    0    0  0.16178184212E-01  0.16144696115E-01 -0.85822185824E-02  0.24413916786E-01  0.00000000000E+00 0. -1.
     999901    1    3    3    0    0  0.46910369242E-01 -0.13743614328E-01 -0.10535927875E+00  0.88763170701E+00  0.88000000000E+00 0. -1.
        -11    1    4    4    0    0 -0.37693105814E-01  0.52759670118E-03  0.47170184426E-01  0.60384898807E-01  0.51100000000E-03 0.  1.
         11    1    4    4    0    0 -0.25395447640E-01 -0.29286784890E-02  0.66771312911E-01  0.71499477393E-01  0.51100000000E-03 0. -1.
</event>
<event>
 8    1  0.1088021E+005  0.1043930E+01  0.7957747E-01            NaN
         13   -1    0    0    0    0  0.00000000000E+00  0.00000000000E+00  0.74505805969E-08  0.10566000000E+00  0.10566000000E+00 0.  1.
     999900   -1    0    0    0    0 -0.00000000000E+00 -0.00000000000E+00 -0.74505805969E-08  0.93827000000E+00  0.93827000000E+00 0.  1.
     999902    2    1    2    0    0  0.11293166779E-01 -0.18878405857E-01 -0.64141225888E-02  0.10210155768E+01  0.10207584128E+01 0.  0.
     999903    2    3    3    0    0  0.21098907372E-02 -0.10240573880E+00  0.81810366770E-01  0.13262112134E+00  0.20100714821E-01 0.  0.
         14    1    1    2    0    0 -0.11293166779E-01  0.18878405857E-01  0.64141225888E-02  0.22914423235E-01  0.00000000000E+00 0. -1.
     999901    1    3    3    0    0  0.91832760418E-02  0.83527332943E-01 -0.88224489359E-01  0.88839445543E+00  0.88000000000E+00 0.  1.
        -11    1    4    4    0    0 -0.56660944496E-02 -0.73143555499E-01  0.64822877140E-01  0.97899697951E-01  0.51100000000E-03 0.  1.
         11    1    4    4    0    0  0.77759851868E-02 -0.29262183302E-01  0.16987489631E-01  0.34721423389E-01  0.51100000000E-03 0. -1.
</event>
<event>
 8    1  0.1088021E+005  0.1043930E+01  0.7957747E-01            NaN
         13   -1    0    0    0    0  0.00000000000E+00  0.00000000000E+00  0.74505805969E-08  0.10566000000E+00  0.10566000000E+00 0.  1.
     999900   -1    0    0    0    0 -0.00000000000E+00 -0.00000000000E+00 -0.74505805969E-08  0.93827000000E+00  0.93827000000E+00 0. -1.
     999902    2    1    2    0    0  0.19250639547E-01  0.44829476898E-02 -0.12961755614E-01  0.10202933536E+01  0.10200195275E+01 0.  0.
     999903    2    3    3    0    0  0.58836027439E-01  0.99503856443E-01 -0.62449908853E-01  0.13291234564E+00  0.20074982827E-01 0.  0.
         14    1    1    2    0    0 -0.19250639547E-01 -0.44829476898E-02  0.12961755614E-01  0.23636646369E-01  0.00000000000E+00 0. -1.
     999901    1    3    3    0    0 -0.39585387892E-01 -0.95020908753E-01  0.49488153239E-01  0.88738100799E+00  0.88000000000E+00 0.  1.
        -11    1    4    4    0    0  0.37106844497E-01  0.48974703808E-01 -0.24837456500E-01  0.66276691891E-01  0.51100000000E-03 0.  1.
         11    1    4    4    0    0  0.21729182942E-01  0.50529152635E-01 -0.37612452353E-01  0.66635653748E-01  0.51100000000E-03 0. -1.
</event>
<event>
 8    1  0.1088021E+005  0.1043930E+01  0.7957747E-01            NaN
         13   -1    0    0    0    0  0.00000000000E+00  0.00000000000E+00  0.74505805969E-08  0.10566000000E+00  0.10566000000E+00 0.  1.
     999900   -1    0    0    0    0 -0.00000000000E+00 -0.00000000000E+00 -0.74505805969E-08  0.93827000000E+00  0.93827000000E+00 0.  1.
     999902    2    1    2    0    0 -0.98592941453E-02  0.26133609593E-02 -0.20593064818E-01  0.10209493635E+01  0.10206906941E+01 0.  0.
     999903    2    3    3    0    0 -0.15255528249E-02  0.41510490925E-01 -0.12565078696E+00  0.13380813292E+00  0.19774933708E-01 0.  0.
         14    1    1    2    0    0  0.98592941453E-02 -0.26133609593E-02  0.20593064818E-01  0.22980636526E-01  0.00000000000E+00 0.  1.
     999901    1    3    3    0    0 -0.83337413204E-02 -0.38897129966E-01  0.10505772214E+00  0.88714123055E+00  0.88000000000E+00 0. -1.
        -11    1    4    4    0    0  0.56458408569E-02  0.36821239679E-01 -0.10628720132E+00  0.11262730351E+00  0.51100000000E-03 0. -1.
         11    1    4    4    0    0 -0.71713936818E-02  0.46892512461E-02 -0.19363585642E-01  0.21180829410E-01  0.51100000000E-03 0.  1.
</event>
<event>
 8    1  0.1088021E+005  0.1043930E+01  0.7957747E-01            NaN
         13   -1    0    0    0    0  0.00000000000E+00  0.00000000000E+00  0.74505805969E-08  0.10566000000E+00  0.10566000000E+00 0. -1.
     999900   -1    0    0    0    0 -0.00000000000E+00 -0.00000000000E+00 -0.74505805969E-08  0.93827000000E+00  0.93827000000E+00 0. -1.
     999902    2    1    2    0    0  0.45922846383E-02  0.11768944352E-01  0.18776019366E-01  0.10212995773E+01  0.10210488189E+01 0.  0.
     999903    2    3    3    0    0 -0.11706125871E+00 -0.52149058224E-01 -0.10765600925E-01  0.13014425805E+00  0.19969155625E-01 0.  0.
         14    1    1    2    0    0 -0.45922846383E-02 -0.11768944352E-01 -0.18776019366E-01  0.22630422722E-01  0.00000000000E+00 0. -1.
     999901    1    3    3    0    0  0.12165354334E+00  0.63918002576E-01  0.29541620291E-01  0.89115531923E+00  0.88000000000E+00 0.  1.
        -11    1    4    4    0    0 -0.42268060710E-01 -0.11290190050E-01 -0.10148595041E-01  0.44914501555E-01  0.51100000000E-03 0. -1.
         11    1    4    4    0    0 -0.74793197995E-01 -0.40858868173E-01 -0.61700588383E-03  0.85229756494E-01  0.51100000000E-03 0.  1.
</event>
<event>
 8    1  0.1088021E+005  0.1043930E+01  0.7957747E-01            NaN
         13   -1    0    0    0    0  0.00000000000E+00  0.00000000000E+00  0.74505805969E-08  0.10566000000E+00  0.10566000000E+00 0. -1.
     999900   -1    0    0    0    0 -0.00000000000E+00 -0.00000000000E+00 -0.74505805969E-08  0.93827000000E+00  0.93827000000E+00 0. -1.
     999902    2    1    2    0    0  0.22858617644E-01 -0.71833647289E-02  0.37964211620E-02  0.10196703639E+01  0.10193817347E+01 0.  0.
     999903    2    3    3    0    0 -0.36542015293E-01  0.12122712949E+00  0.69888710926E-02  0.12836352452E+00  0.19925217719E-01 0.  0.
         14    1    1    2    0    0 -0.22858617644E-01  0.71833647289E-02 -0.37964211620E-02  0.24259636087E-01  0.00000000000E+00 0.  1.
     999901    1    3    3    0    0  0.59400632937E-01 -0.12841049422E+00 -0.31924499306E-02  0.89130683940E+00  0.88000000000E+00 0.  1.
        -11    1    4    4    0    0 -0.33891793357E-01  0.10998333209E+00  0.46918248228E-03  0.11508895798E+00  0.51100000000E-03 0. -1.
         11    1    4    4    0    0 -0.26502219357E-02  0.11243797396E-01  0.65196886103E-02  0.13274566538E-01  0.51100000000E-03 0.  1.
</event>
<event>
 8    1  0.1088021E+005  0.1043930E+01  0.7957747E-01            NaN
         13   -1    0    0    0    0  0.00000000000E+00  0.00000000000E+00  0.74505805969E-08  0.10566000000E+00  0.10566000000E+00 0.  1.
     999900   -1    0    0    0    0 -0.00000000000E+00 -0.00000000000E+00 -0.74505805969E-08  0.93827000000E+00  0.93827000000E+00 0.  1.
     999902    2    1    2    0    0  0.17805172974E-01  0.64210292258E-02 -0.14401039664E-01  0.10201467339E+01  0.10198694598E+01 0.  0.
     999903    2    3    3    0    0  0.78684671000E-01 -0.96280213619E-01 -0.37851941901E-01  0.13177530071E+00  0.21698004227E-01 0.  0.
         14    1    1    2    0    0 -0.17805172974E-01 -0.64210292258E-02  0.14401039664E-01  0.23783266057E-01  0.00000000000E+00 0.  1.
     999901    1    3    3    0    0 -0.60879498027E-01  0.10270124284E+00  0.23450902237E-01  0.88837143323E+00  0.88000000000E+00 0.  1.
        -11    1    4    4    0    0  0.45263302967E-01 -0.45831254044E-01 -0.10121764396E-01  0.65207221059E-01  0.51100000000E-03 0. -1.
         11    1    4    4    0    0  0.33421368033E-01 -0.50448959576E-01 -0.27730177505E-01  0.66568079655E-01  0.51100000000E-03 0.  1.
</event>
<event>
 8    1  0.1088021E+005  0.1043930E+01  0.7957747E-01            NaN
         13   -1    0    0    0    0  0.00000000000E+00  0.00000000000E+00  0.74505805969E-08  0.10566000000E+00  0.10566000000E+00 0. -1.
     999900   -1    0    0    0    0 -0.00000000000E+00 -0.00000000000E+00 -0.74505805969E-08  0.93827000000E+00  0.93827000000E+00 0.  1.
     999902    2    1    2    0    0  0.16489965028E-01  0.14267937575E-01  0.89276696818E-02  0.10203673967E+01  0.10200953034E+01 0.  0.
     999903    2    3    3    0    0  0.16035765793E-01 -0.80343645418E-01 -0.97867884244E-01  0.12887603482E+00  0.17851118759E-01 0.  0.
         14    1    1    2    0    0 -0.16489965028E-01 -0.14267937575E-01 -0.89276696818E-02  0.23562603320E-01  0.00000000000E+00 0. -1.
     999901    1    3    3    0    0  0.45419923524E-03  0.94611582992E-01  0.10679555393E+00  0.89149136186E+00  0.88000000000E+00 0. -1.
        -11    1    4    4    0    0 -0.10370128324E-02 -0.37610714691E-01 -0.48496204177E-01  0.61382279167E-01  0.51100000000E-03 0. -1.
         11    1    4    4    0    0  0.17072778625E-01 -0.42732930727E-01 -0.49371680067E-01  0.67493755653E-01  0.51100000000E-03 0.  1.
</event>
<event>
 8    1  0.1088021E+005  0.1043930E+01  0.7957747E-01            NaN
         13   -1    0    0    0    0  0.00000000000E+00  0.00000000000E+00  0.74505805969E-08  0.10566000000E+00  0.10566000000E+00 0.  1.
     999900   -1    0    0    0    0 -0.00000000000E+00 -0.00000000000E+00 -0.74505805969E-08  0.93827000000E+00  0.93827000000E+00 0.  1.
     999902    2    1    2    0    0  0.13158929514E-01 -0.17283922164E-01  0.86197284922E-02  0.10205592681E+01  0.10202916390E+01 0.  0.
     999903    2    3    3    0    0  0.37142440056E-01  0.91073630395E-01  0.83166835718E-01  0.13046161098E+00  0.20725403963E-01 0.  0.
         14    1    1    2    0    0 -0.13158929514E-01  0.17283922164E-01 -0.86197284922E-02  0.23370731923E-01  0.00000000000E+00 0. -1.
     999901    1    3    3    0    0 -0.23983510542E-01 -0.10835755256E+00 -0.74547107226E-01  0.89009765710E+00  0.88000000000E+00 0.  1.
        -11    1    4    4    0    0  0.28439541415E-01  0.43572319228E-01  0.39155777035E-01  0.65121352220E-01  0.51100000000E-03 0.  1.
         11    1    4    4    0    0  0.87028986415E-02  0.47501311167E-01  0.44011058683E-01  0.65340258760E-01  0.51100000000E-03 0. -1.
</event>
<event>
 8    1  0.1088021E+005  0.1043930E+01  0.7957747E-01            NaN
         13   -1    0    0    0    0  0.00000000000E+00  0.00000000000E+00  0.74505805969E-08  0.10566000000E+00  0.10566000000E+00 0. -1.
     999900   -1    0    0    0    0 -0.00000000000E+00 -0.00000000000E+00 -0.74505805969E-08  0.93827000000E+00  0.93827000000E+00 0.  1.
     999902    2    1    2    0    0  0.47250974801E-02  0.12863071659E-01  0.19780751795E-01  0.10198662659E+01  0.10195823346E+01 0.  0.
     999903    2    3    3    0    0  0.63418363942E-02  0.74180277251E-01  0.10838070461E+00  0.13329288189E+00  0.21855955920E-01 0.  0.
         14    1    1    2    0    0 -0.47250974801E-02 -0.12863071659E-01 -0.19780751795E-01  0.24063734130E-01  0.00000000000E+00 0.  1.
     999901    1    3    3    0    0 -0.16167389140E-02 -0.61317205592E-01 -0.88599952811E-01  0.88657338398E+00  0.88000000000E+00 0. -1.
        -11    1    4    4    0    0  0.20969724497E-02  0.30558593583E-01  0.26888578689E-01  0.40761277214E-01  0.51100000000E-03 0. -1.
         11    1    4    4    0    0  0.42448639444E-02  0.43621683668E-01  0.81492125918E-01  0.92531604674E-01  0.51100000000E-03 0.  1.
</event>
<event>
 8    1  0.1088021E+005  0.1043930E+01  0.7957747E-01            NaN
         13   -1    0    0    0    0  0.00000000000E+00  0.00000000000E+00  0.74505805969E-08  0.10566000000E+00  0.10566000000E+00 0. -1.
     999900   -1    0    0    0    0 -0.00000000000E+00 -0.00000000000E+00 -0.74505805969E-08  0.93827000000E+00  0.93827000000E+00 0.  1.
     999902    2    1    2    0    0  0.21049710670E-01 -0.50754142449E-02 -0.57831763249E-02  0.10215180550E+01  0.10212721682E+01 0.  0.
     999903    2    3    3    0    0  0.11280996680E+00 -0.35667433067E-01  0.58937564538E-01  0.13385562453E+00  0.21105385856E-01 0.  0.
         14    1    1    2    0    0 -0.21049710670E-01  0.50754142449E-02  0.57831763249E-02  0.22411944973E-01  0.00000000000E+00 0. -1.
     999901    1    3    3    0    0 -0.91760256134E-01  0.30592018822E-01 -0.64720740863E-01  0.88766243050E+00  0.88000000000E+00 0.  1.
        -11    1    4    4    0    0  0.22420016006E-01 -0.13227334257E-01  0.59688137023E-02  0.26711558309E-01  0.51100000000E-03 0. -1.
         11    1    4    4    0    0  0.90389950798E-01 -0.22440098810E-01  0.52968750836E-01  0.10714406622E+00  0.51100000000E-03 0.  1.
</event>
<event>
 8    1  0.1088021E+005  0.1043930E+01  0.7957747E-01            NaN
         13   -1    0    0    0    0  0.00000000000E+00  0.00000000000E+00  0.74505805969E-08  0.10566000000E+00  0.10566000000E+00 0.  1.
     999900   -1    0    0    0    0 -0.00000000000E+00 -0.00000000000E+00 -0.74505805969E-08  0.93827000000E+00  0.93827000000E+00 0.  1.
     999902    2    1    2    0    0  0.16747797850E-01  0.89796028582E-02  0.13474827871E-01  0.10206342281E+01  0.10203683328E+01 0.  0.
     999903    2    3    3    0    0  0.97882725571E-01  0.77516870275E-01 -0.39827984500E-01  0.13264694032E+00  0.20470693328E-01 0.  0.
         14    1    1    2    0    0 -0.16747797850E-01 -0.89796028582E-02 -0.13474827871E-01  0.23295771858E-01  0.00000000000E+00 0. -1.
     999901    1    3    3    0    0 -0.81134927721E-01 -0.68537267416E-01  0.53302812371E-01  0.88798728782E+00  0.88000000000E+00 0.  1.
        -11    1    4    4    0    0  0.47294754810E-01  0.35816059467E-01 -0.83265746823E-02  0.59909739736E-01  0.51100000000E-03 0. -1.
         11    1    4    4    0    0  0.50587970760E-01  0.41700810808E-01 -0.31501409818E-01  0.72737200587E-01  0.51100000000E-03 0.  1.
</event>
<event>
 8    1  0.1088021E+005  0.1043930E+01  0.7957747E-01            NaN
         13   -1    0    0    0    0  0.00000000000E+00  0.00000000000E+00  0.74505805969E-08  0.10566000000E+00  0.10566000000E+00 0.  1.
     999900   -1    0    0    0    0 -0.00000000000E+00 -0.00000000000E+00 -0.74505805969E-08  0.93827000000E+00  0.93827000000E+00 0. -1.
     999902    2    1    2    0    0 -0.15337659692E-01 -0.21772930278E-01  0.66298693484E-02  0.10164844272E+01  0.10161138378E+01 0.  0.
     999903    2    3    3    0    0 -0.10516963181E+00  0.61580588790E-01 -0.31255187581E-01  0.12718533811E+00  0.18611907673E-01 0.  0.
         14    1    1    2    0    0  0.15337659692E-01  0.21772930278E-01 -0.66298693484E-02  0.27445572782E-01  0.00000000000E+00 0. -1.
     999901    1    3    3    0    0  0.89831972121E-01 -0.83353519068E-01  0.37885056929E-01  0.88929908911E+00  0.88000000000E+00 0. -1.
        -11    1    4    4    0    0 -0.14352011272E-01  0.15629336472E-01 -0.22109963251E-02  0.21340243951E-01  0.51100000000E-03 0. -1.
         11    1    4    4    0    0 -0.90817620541E-01  0.45951252318E-01 -0.29044191256E-01  0.10584509416E+00  0.51100000000E-03 0.  1.
</event>
<event>
 8    1  0.1088021E+005  0.1043930E+01  0.7957747E-01            NaN
         13   -1    0    0    0    0  0.00000000000E+00  0.00000000000E+00  0.74505805969E-08  0.10566000000E+00  0.10566000000E+00 0.  1.
     999900   -1    0    0    0    0 -0.00000000000E+00 -0.00000000000E+00 -0.74505805969E-08  0.93827000000E+00  0.93827000000E+00 0. -1.
     999902    2    1    2    0    0 -0.20525741151E-02  0.22972481220E-01 -0.50240186131E-02  0.10203251548E+01  0.10200520736E+01 0.  0.
     999903    2    3    3    0    0  0.22655287930E-02  0.46875061615E-01 -0.12211544362E+00  0.13223710670E+00  0.19289033078E-01 0.  0.
         14    1    1    2    0    0  0.20525741151E-02 -0.22972481220E-01  0.50240186131E-02  0.23604845201E-01  0.00000000000E+00 0. -1.
     999901    1    3    3    0    0 -0.43181029082E-02 -0.23902580394E-01  0.11709142500E+00  0.88808804810E+00  0.88000000000E+00 0.  1.
        -11    1    4    4    0    0  0.80989743401E-02  0.12213651677E-01 -0.48334771065E-01  0.50510176079E-01  0.51100000000E-03 0.  1.
         11    1    4    4    0    0 -0.58334455471E-02  0.34661409938E-01 -0.73780672553E-01  0.81726930624E-01  0.51100000000E-03 0. -1.
</event>
<event>
 8    1  0.1088021E+005  0.1043930E+01  0.7957747E-01            NaN
         13   -1    0    0    0    0  0.00000000000E+00  0.00000000000E+00  0.74505805969E-08  0.10566000000E+00  0.10566000000E+00 0.  1.
     999900   -1    0    0    0    0 -0.00000000000E+00 -0.00000000000E+00 -0.74505805969E-08  0.93827000000E+00  0.93827000000E+00 0. -1.
     999902    2    1    2    0    0 -0.21813842057E-01 -0.44997042100E-02  0.10128765729E-01  0.10194620017E+01  0.10191683325E+01 0.  0.
     999903    2    3    3    0    0 -0.11228871708E+00 -0.54178649962E-02  0.68049820992E-01  0.13292864385E+00  0.20028404170E-01 0.  0.
         14    1    1    2    0    0  0.21813842057E-01  0.44997042100E-02 -0.10128765729E-01  0.24467998252E-01  0.00000000000E+00 0. -1.
     999901    1    3    3    0    0  0.90474875022E-01  0.91816078622E-03 -0.57921055263E-01  0.88653335790E+00  0.88000000000E+00 0. -1.
        -11    1    4    4    0    0 -0.23406187124E-01 -0.59958659714E-02  0.22638454261E-01  0.33114358468E-01  0.51100000000E-03 0. -1.
         11    1    4    4    0    0 -0.88882529955E-01  0.57800097522E-03  0.45411366731E-01  0.99814285379E-01  0.51100000000E-03 0.  1.
</event>
<event>
 8    1  0.1088021E+005  0.1043930E+01  0.7957747E-01            NaN
         13   -1    0    0    0    0  0.00000000000E+00  0.00000000000E+00  0.74505805969E-08  0.10566000000E+00  0.10566000000E+00 0. -1.
     999900   -1    0    0    0    0 -0.00000000000E+00 -0.00000000000E+00 -0.74505805969E-08  0.93827000000E+00  0.93827000000E+00 0. -1.
     999902    2    1    2    0    0  0.22774360965E-01 -0.74181404845E-02  0.81977607888E-02  0.10186139259E+01  0.10182992814E+01 0.  0.
     999903    2    3    3    0    0  0.10512106022E+00  0.17087135317E-01 -0.72980016224E-01  0.13071116158E+00  0.20418557679E-01 0.  0.
         14    1    1    2    0    0 -0.22774360965E-01  0.74181404845E-02 -0.81977607888E-02  0.25316074095E-01  0.00000000000E+00 0.  1.
     999901    1    3    3    0    0 -0.82346699255E-01 -0.24505275802E-01  0.81177777012E-01  0.88790276433E+00  0.88000000000E+00 0.  1.
        -11    1    4    4    0    0  0.47884279613E-01  0.16261885015E-01 -0.41237505856E-01  0.65254472249E-01  0.51100000000E-03 0.  1.
         11    1    4    4    0    0  0.57236780607E-01  0.82525030221E-03 -0.31742510368E-01  0.65456689328E-01  0.51100000000E-03 0. -1.
</event>
<event>
 8    1  0.1088021E+005  0.1043930E+01  0.7957747E-01            NaN
         13   -1    0    0    0    0  0.00000000000E+00  0.00000000000E+00  0.74505805969E-08  0.10566000000E+00  0.10566000000E+00 0. -1.
     999900   -1    0    0    0    0 -0.00000000000E+00 -0.00000000000E+00 -0.74505805969E-08  0.93827000000E+00  0.93827000000E+00 0. -1.
     999902    2    1    2    0    0 -0.17669327898E-02  0.93129316881E-02  0.21261277127E-01  0.10206513692E+01  0.10203858695E+01 0.  0.
     999903    2    3    3    0    0 -0.81120076981E-01  0.10216915596E+00  0.49269302107E-02  0.13206484510E+00  0.19946060998E-01 0.  0.
         14    1    1    2    0    0  0.17669327898E-02 -0.93129316881E-02 -0.21261277127E-01  0.23278630827E-01  0.00000000000E+00 0.  1.
     999901    1    3    3    0    0  0.79353144191E-01 -0.92856224276E-01  0.16334346917E-01  0.88858652408E+00  0.88000000000E+00 0.  1.
        -11    1    4    4    0    0 -0.39531077620E-01  0.63608936673E-01 -0.20418464985E-02  0.74921513469E-01  0.51100000000E-03 0. -1.
         11    1    4    4    0    0 -0.41588999361E-01  0.38560219292E-01  0.69687767092E-02  0.57143331628E-01  0.51100000000E-03 0.  1.
</event>
<event>
 7    1  0.1088021E+005  0.1043930E+01  0.7957747E-01            NaN
         13   -1    0    0    0    0  0.00000000000E+00  0.00000000000E+00  0.74505805969E-08  0.10566000000E+00  0.10566000000E+00 0.  1.
     999900   -1    0    0    0    0 -0.00000000000E+00 -0.00000000000E+00 -0.74505805969E-08  0.93827000000E+00  0.93827000000E+00 0.  1.
     999903    2    1    2    0    0 -0.48195641383E-01 -0.10155905587E+00  0.34681084498E-01  0.11936842678E+00  0.20223303723E-01 0.  0.
         14    1    1    2    0    0 -0.41520481166E-02  0.39992662200E-01 -0.16918290439E-02  0.40243195933E-01  0.00000000000E+00 0.  1.
     999901    1    1    2    0    0  0.52347689500E-01  0.61566393670E-01 -0.32989255454E-01  0.88431837728E+00  0.88000000000E+00 0.  1.
        -11    1    3    3    0    0 -0.32505268443E-01 -0.57429148435E-01  0.29358262813E-01  0.72227891309E-01  0.51100000000E-03 0. -1.
         11    1    3    3    0    0 -0.15690372940E-01 -0.44129907434E-01  0.53228216845E-02  0.47140535475E-01  0.51100000000E-03 0.  1.
</event>
<event>
 8    1  0.1088021E+005  0.1043930E+01  0.7957747E-01            NaN
         13   -1    0    0    0    0  0.00000000000E+00  0.00000000000E+00  0.74505805969E-08  0.10566000000E+00  0.10566000000E+00 0.  1.
     999900   -1    0    0    0    0 -0.00000000000E+00 -0.00000000000E+00 -0.74505805969E-08  0.93827000000E+00  0.93827000000E+00 0. -1.
     999902    2    1    2    0    0 -0.94864788694E-02  0.15956981151E-01  0.13769992517E-01  0.10208165575E+01  0.10205548554E+01 0.  0.
     999903    2    3    3    0    0  0.11821749941E+00  0.71781950567E-02 -0.47917787227E-01  0.12941835509E+00  0.20642011770E-01 0.  0.
         14    1    1    2    0    0  0.94864788694E-02 -0.15956981151E-01 -0.13769992517E-01  0.23113442468E-01  0.00000000000E+00 0.  1.
     999901    1    3    3    0    0 -0.12770397828E+00  0.87787860943E-02  0.61687779744E-01  0.89139820245E+00  0.88000000000E+00 0. -1.
        -11    1    4    4    0    0  0.88726511038E-02 -0.49521541729E-02 -0.32627882177E-02  0.10684319188E-01  0.51100000000E-03 0. -1.
         11    1    4    4    0    0  0.10934484830E+00  0.12130349230E-01 -0.44654999010E-01  0.11873403590E+00  0.51100000000E-03 0.  1.
</event>
<event>
 8    1  0.1088021E+005  0.1043930E+01  0.7957747E-01            NaN
         13   -1    0    0    0    0  0.00000000000E+00  0.00000000000E+00  0.74505805969E-08  0.10566000000E+00  0.10566000000E+00 0. -1.
     999900   -1    0    0    0    0 -0.00000000000E+00 -0.00000000000E+00 -0.74505805969E-08  0.93827000000E+00  0.93827000000E+00 0. -1.
     999902    2    1    2    0    0  0.38077215975E-03  0.20351472822E-02  0.24070357805E-01  0.10197707588E+01  0.10194845421E+01 0.  0.
     999903    2    3    3    0    0  0.51570258460E-01  0.60377289345E-01 -0.98118677528E-01  0.12794435784E+00  0.20918298117E-01 0.  0.
         14    1    1    2    0    0 -0.38077215975E-03 -0.20351472822E-02 -0.24070357805E-01  0.24159241229E-01  0.00000000000E+00 0.  1.
     999901    1    3    3    0    0 -0.51189486301E-01 -0.58342142063E-01  0.12218903533E+00  0.89182640093E+00  0.88000000000E+00 0.  1.
        -11    1    4    4    0    0  0.38504749531E-01  0.29272196592E-01 -0.57934780707E-01  0.75473022772E-01  0.51100000000E-03 0. -1.
         11    1    4    4    0    0  0.13065508929E-01  0.31105092753E-01 -0.40183896821E-01  0.52471335065E-01  0.51100000000E-03 0.  1.
</event>
<event>
 8    1  0.1088021E+005  0.1043930E+01  0.7957747E-01            NaN
         13   -1    0    0    0    0  0.00000000000E+00  0.00000000000E+00  0.74505805969E-08  0.10566000000E+00  0.10566000000E+00 0.  1.
     999900   -1    0    0    0    0 -0.00000000000E+00 -0.00000000000E+00 -0.74505805969E-08  0.93827000000E+00  0.93827000000E+00 0.  1.
     999902    2    1    2    0    0 -0.12586075702E-01 -0.10326432635E-01 -0.13066838363E-01  0.10230544934E+01  0.10228414880E+01 0.  0.
     999903    2    3    3    0    0 -0.10528990963E-01 -0.20094709860E-01  0.12819691270E+00  0.13173238649E+00  0.20107615722E-01 0.  0.
         14    1    1    2    0    0  0.12586075702E-01  0.10326432635E-01  0.13066838363E-01  0.20875506637E-01  0.00000000000E+00 0.  1.
     999901    1    3    3    0    0 -0.20570847390E-02  0.97682772241E-02 -0.14126375106E+00  0.89132210687E+00  0.88000000000E+00 0.  1.
        -11    1    4    4    0    0 -0.17538463168E-03 -0.16455784549E-01  0.10207237724E+00  0.10339175461E+00  0.51100000000E-03 0. -1.
         11    1    4    4    0    0 -0.10353606331E-01 -0.36389253110E-02  0.26124535460E-01  0.28340631882E-01  0.51100000000E-03 0.  1.
</event>
<event>
 8    1  0.1088021E+005  0.1043930E+01  0.7957747E-01            NaN
         13   -1    0    0    0    0  0.00000000000E+00  0.00000000000E+00  0.74505805969E-08  0.10566000000E+00  0.10566000000E+00 0.  1.
     999900   -1    0    0    0    0 -0.00000000000E+00 -0.00000000000E+00 -0.74505805969E-08  0.93827000000E+00  0.93827000000E+00 0. -1.
     999902    2    1    2    0    0  0.14108843108E-01  0.14014821490E-01  0.12916448450E-01  0.10202169379E+01  0.10199413174E+01 0.  0.
     999903    2    3    3    0    0  0.10577183454E+00  0.75599481739E-01  0.21257248305E-01  0.13327593457E+00  0.20190133964E-01 0.  0.
         14    1    1    2    0    0 -0.14108843108E-01 -0.14014821490E-01 -0.12916448450E-01  0.23713062134E-01  0.00000000000E+00 0. -1.
     999901    1    3    3    0    0 -0.91662991435E-01 -0.61584660249E-01 -0.83407998552E-02  0.88694100329E+00  0.88000000000E+00 0. -1.
        -11    1    4    4    0    0  0.49088636079E-01  0.47131272927E-01  0.13373989273E-01  0.69355430861E-01  0.51100000000E-03 0.  1.
         11    1    4    4    0    0  0.56683198464E-01  0.28468208811E-01  0.78832590323E-02  0.63920503714E-01  0.51100000000E-03 0. -1.
</event>
<event>
 8    1  0.1088021E+005  0.1043930E+01  0.7957747E-01            NaN
         13   -1    0    0    0    0  0.00000000000E+00  0.00000000000E+00  0.74505805969E-08  0.10566000000E+00  0.10566000000E+00 0.  1.
     999900   -1    0    0    0    0 -0.00000000000E+00 -0.00000000000E+00 -0.74505805969E-08  0.93827000000E+00  0.93827000000E+00 0.  1.
     999902    2    1    2    0    0 -0.13831642709E-02 -0.12721939166E-01 -0.17864678071E-01  0.10219548412E+01  0.10217185473E+01 0.  0.
     999903    2    3    3    0    0  0.70068922310E-01  0.10542494002E+00  0.23293397926E-01  0.13023847773E+00  0.19884839541E-01 0.  0.
         14    1    1    2    0    0  0.13831642709E-02  0.12721939166E-01  0.17864678071E-01  0.21975158751E-01  0.00000000000E+00 0.  1.
     999901    1    3    3    0    0 -0.71452086581E-01 -0.11814687919E+00 -0.41158075997E-01  0.89171636351E+00  0.88000000000E+00 0. -1.
        -11    1    4    4    0    0  0.60363775405E-01  0.75450396847E-01  0.17386695317E-01  0.98178949172E-01  0.51100000000E-03 0. -1.
         11    1    4    4    0    0  0.97051469053E-02  0.29974543174E-01  0.59067026089E-02  0.32059528563E-01  0.51100000000E-03 0.  1.
</event>
<event>
 8    1  0.1088021E+005  0.1043930E+01  0.7957747E-01            NaN
         13   -1    0    0    0    0  0.00000000000E+00  0.00000000000E+00  0.74505805969E-08  0.10566000000E+00  0.10566000000E+00 0.  1.
     999900   -1    0    0    0    0 -0.00000000000E+00 -0.00000000000E+00 -0.74505805969E-08  0.93827000000E+00  0.93827000000E+00 0. -1.
     999902    2    1    2    0    0 -0.23756640642E-01  0.27212977910E-02 -0.31343250393E-02  0.10198134615E+01  0.10195282678E+01 0.  0.
     999903    2    3    3    0    0 -0.71494111847E-01 -0.57611937785E-01 -0.92561733106E-01  0.13194172144E+00  0.20258332009E-01 0.  0.
         14    1    1    2    0    0  0.23756640642E-01 -0.27212977910E-02  0.31343250393E-02  0.24116538510E-01  0.00000000000E+00 0. -1.
     999901    1    3    3    0    0  0.47737471205E-01  0.60333235576E-01  0.89427408067E-01  0.88787174005E+00  0.88000000000E+00 0.  1.
        -11    1    4    4    0    0 -0.40905945655E-01 -0.30611164344E-01 -0.37357304646E-01  0.63294305461E-01  0.51100000000E-03 0. -1.
         11    1    4    4    0    0 -0.30588166192E-01 -0.27000773441E-01 -0.55204428460E-01  0.68647415975E-01  0.51100000000E-03 0.  1.
</event>
<event>
 8    1  0.1088021E+005  0.1043930E+01  0.7957747E-01            NaN
         13   -1    0    0    0    0  0.00000000000E+00  0.00000000000E+00  0.74505805969E-08  0.10566000000E+00  0.10566000000E+00 0.  1.
     999900   -1    0    0    0    0 -0.00000000000E+00 -0.00000000000E+00 -0.74505805969E-08  0.93827000000E+00  0.93827000000E+00 0. -1.
     999902    2    1    2    0    0  0.86755891584E-02  0.15943729674E-01 -0.13783462654E-01  0.10211385058E+01  0.10208841246E+01 0.  0.
     999903    2    3    3    0    0 -0.70321024297E-02 -0.12454838341E+00  0.25688970064E-01  0.12898222001E+00  0.20365156988E-01 0.  0.
         14    1    1    2    0    0 -0.86755891584E-02 -0.15943729674E-01  0.13783462654E-01  0.22791494157E-01  0.00000000000E+00 0. -1.
     999901    1    3    3    0    0  0.15707691588E-01  0.14049211309E+00 -0.39472432718E-01  0.89215628584E+00  0.88000000000E+00 0. -1.
        -11    1    4    4    0    0  0.49031914122E-02 -0.10933140889E-01  0.54025073611E-03  0.12005325800E-01  0.51100000000E-03 0. -1.
         11    1    4    4    0    0 -0.11935293842E-01 -0.11361524252E+00  0.25148719327E-01  0.11697689421E+00  0.51100000000E-03 0.  1.
</event>
<event>
 8    1  0.1088021E+005  0.1043930E+01  0.7957747E-01            NaN
         13   -1    0    0    0    0  0.00000000000E+00  0.00000000000E+00  0.74505805969E-08  0.10566000000E+00  0.10566000000E+00 0.  1.
     999900   -1    0    0    0    0 -0.00000000000E+00 -0.00000000000E+00 -0.74505805969E-08  0.93827000000E+00  0.93827000000E+00 0.  1.
     999902    2    1    2    0    0 -0.19325795695E-01 -0.60702967204E-02 -0.10756082354E-01  0.10209946956E+01  0.10207370573E+01 0.  0.
     999903    2    3    3    0    0  0.11502841353E+00 -0.20287519556E-01 -0.52025835378E-01  0.12972797036E+00  0.21898387531E-01 0.  0.
         14    1    1    2    0    0  0.19325795695E-01  0.60702967204E-02  0.10756082354E-01  0.22935304427E-01  0.00000000000E+00 0.  1.
     999901    1    3    3    0    0 -0.13435420923E+00  0.14217222836E-01  0.41269753024E-01  0.89126672522E+00  0.88000000000E+00 0.  1.
        -11    1    4    4    0    0  0.61692006597E-01 -0.21318573092E-01 -0.24725994836E-01  0.69799865174E-01  0.51100000000E-03 0. -1.
         11    1    4    4    0    0  0.53336406936E-01  0.10310535351E-02 -0.27299840542E-01  0.59928105183E-01  0.51100000000E-03 0.  1.
</event>
<event>
 8    1  0.1088021E+005  0.1043930E+01  0.7957747E-01            NaN
         13   -1    0    0    0    0  0.00000000000E+00  0.00000000000E+00  0.74505805969E-08  0.10566000000E+00  0.10566000000E+00 0. -1.
     999900   -1    0    0    0    0 -0.00000000000E+00 -0.00000000000E+00 -0.74505805969E-08  0.93827000000E+00  0.93827000000E+00 0. -1.
     999902    2    1    2    0    0  0.97630629736E-04  0.22884199543E-01  0.28114856854E-02  0.10208735351E+01  0.10206131364E+01 0.  0.
     999903    2    3    3    0    0  0.10262021829E+00 -0.59278690979E-01 -0.47304553066E-01  0.12970955533E+00  0.23280369322E-01 0.  0.
         14    1    1    2    0    0 -0.97630629736E-04 -0.22884199543E-01 -0.28114856854E-02  0.23056464868E-01  0.00000000000E+00 0. -1.
     999901    1    3    3    0    0 -0.10252258766E+00  0.82162890521E-01  0.50116038751E-01  0.89116397980E+00  0.88000000000E+00 0. -1.
        -11    1    4    4    0    0  0.11440091507E-01 -0.16302816562E-01 -0.64148232600E-02  0.20930088390E-01  0.51100000000E-03 0.  1.
         11    1    4    4    0    0  0.91180126787E-01 -0.42975874417E-01 -0.40889729806E-01  0.10877946694E+00  0.51100000000E-03 0. -1.
</event>
<event>
 8    1  0.1088021E+005  0.1043930E+01  0.7957747E-01            NaN
         13   -1    0    0    0    0  0.00000000000E+00  0.00000000000E+00  0.74505805969E-08  0.10566000000E+00  0.10566000000E+00 0. -1.
     999900   -1    0    0    0    0 -0.00000000000E+00 -0.00000000000E+00 -0.74505805969E-08  0.93827000000E+00  0.93827000000E+00 0.  1.
     999902    2    1    2    0    0 -0.10502278448E-01 -0.14468181623E-01 -0.65481560168E-02  0.10248904496E+01  0.10247135840E+01 0.  0.
     999903    2    3    3    0    0 -0.56928638975E-01 -0.10319255255E+00 -0.67397806016E-01  0.13712353151E+00  0.19256837778E-01 0.  0.
         14    1    1    2    0    0  0.10502278448E-01  0.14468181623E-01  0.65481560168E-02  0.19039550396E-01  0.00000000000E+00 0. -1.
     999901    1    3    3    0    0  0.46426360526E-01  0.88724370931E-01  0.60849649999E-01  0.88776691809E+00  0.88000000000E+00 0.  1.
        -11    1    4    4    0    0 -0.45620692020E-01 -0.77867433089E-01 -0.42119198303E-01  0.99593537255E-01  0.51100000000E-03 0. -1.
         11    1    4    4    0    0 -0.11307946954E-01 -0.25325119464E-01 -0.25278607712E-01  0.37529994259E-01  0.51100000000E-03 0.  1.
</event>
<event>
 8    1  0.1088021E+005  0.1043930E+01  0.7957747E-01            NaN
         13   -1    0    0    0    0  0.00000000000E+00  0.00000000000E+00  0.74505805969E-08  0.10566000000E+00  0.10566000000E+00 0.  1.
     999900   -1    0    0    0    0 -0.00000000000E+00 -0.00000000000E+00 -0.74505805969E-08  0.93827000000E+00  0.93827000000E+00 0.  1.
     999902    2    1    2    0    0  0.18746623158E-01  0.52933752851E-02  0.13610372462E-01  0.10201666261E+01  0.10198898210E+01 0.  0.
     999903    2    3    3    0    0 -0.10235883647E+00 -0.32315533409E-01  0.69863235481E-01  0.12929887665E+00  0.17768025426E-01 0.  0.
         14    1    1    2    0    0 -0.18746623158E-01 -0.52933752851E-02 -0.13610372462E-01  0.23763373925E-01  0.00000000000E+00 0. -1.
     999901    1    3    3    0    0  0.12110545963E+00  0.37608908694E-01 -0.56252863019E-01  0.89086774942E+00  0.88000000000E+00 0.  1.
        -11    1    4    4    0    0 -0.91020889420E-01 -0.29878574953E-01  0.55091521177E-01  0.11051184723E+00  0.51100000000E-03 0. -1.
         11    1    4    4    0    0 -0.11337947054E-01 -0.24369584557E-02  0.14771714304E-01  0.18787029419E-01  0.51100000000E-03 0.  1.
</event>
<event>
 8    1  0.1088021E+005  0.1043930E+01  0.7957747E-01            NaN
         13   -1    0    0    0    0  0.00000000000E+00  0.00000000000E+00  0.74505805969E-08  0.10566000000E+00  0.10566000000E+00 0. -1.
     999900   -1    0    0    0    0 -0.00000000000E+00 -0.00000000000E+00 -0.74505805969E-08  0.93827000000E+00  0.93827000000E+00 0.  1.
     999902    2    1    2    0    0  0.20827176557E-01  0.90775030685E-02  0.67592818844E-02  0.10202264088E+01  0.10199510110E+01 0.  0.
     999903    2    3    3    0    0 -0.40971499221E-01 -0.11240098372E+00 -0.42244569612E-01  0.12838703056E+00  0.19646400772E-01 0.  0.
         14    1    1    2    0    0 -0.20827176557E-01 -0.90775030685E-02 -0.67592818844E-02  0.23703591223E-01  0.00000000000E+00 0. -1.
     999901    1    3    3    0    0  0.61798675778E-01  0.12147848679E+00  0.49003851496E-01  0.89183937822E+00  0.88000000000E+00 0. -1.
        -11    1    4    4    0    0 -0.58471610015E-02 -0.40996119589E-01 -0.10608265875E-01  0.42751228509E-01  0.51100000000E-03 0.  1.
         11    1    4    4    0    0 -0.35124338219E-01 -0.71404864134E-01 -0.31636303736E-01  0.85635802048E-01  0.51100000000E-03 0. -1.
</event>
<event>
 8    1  0.1088021E+005  0.1043930E+01  0.7957747E-01            NaN
         13   -1    0    0    0    0  0.00000000000E+00  0.00000000000E+00  0.74505805969E-08  0.10566000000E+00  0.10566000000E+00 0. -1.
     999900   -1    0    0    0    0 -0.00000000000E+00 -0.00000000000E+00 -0.74505805969E-08  0.93827000000E+00  0.93827000000E+00 0. -1.
     999902    2    1    2    0    0  0.94375501186E-02 -0.13582914389E-01  0.34562364887E-02  0.10270330036E+01  0.10268939975E+01 0.  0.
     999903    2    3    3    0    0  0.11699646299E+00  0.57874237019E-02  0.70006996518E-01  0.13777874674E+00  0.18982541154E-01 0.  0.
         14    1    1    2    0    0 -0.94375501186E-02  0.13582914389E-01 -0.34562364887E-02  0.16896996366E-01  0.00000000000E+00 0.  1.
     999901    1    3    3    0    0 -0.10755891287E+00 -0.19370338090E-01 -0.66550760029E-01  0.88925425689E+00  0.88000000000E+00 0.  1.
        -11    1    4    4    0    0  0.35488581695E-01  0.65062085207E-02  0.30256439230E-01  0.47090162624E-01  0.51100000000E-03 0. -1.
         11    1    4    4    0    0  0.81507881291E-01 -0.71878481881E-03  0.39750557289E-01  0.90688584121E-01  0.51100000000E-03 0.  1.
</event>
<event>
 8    1  0.1088021E+005  0.1043930E+01  0.7957747E-01            NaN
         13   -1    0    0    0    0  0.00000000000E+00  0.00000000000E+00  0.74505805969E-08  0.10566000000E+00  0.10566000000E+00 0. -1.
     999900   -1    0    0    0    0 -0.00000000000E+00 -0.00000000000E+00 -0.74505805969E-08  0.93827000000E+00  0.93827000000E+00 0. -1.
     999902    2    1    2    0    0  0.20654080506E-01 -0.86238045679E-02  0.11851445045E-01  0.10186037726E+01  0.10182888724E+01 0.  0.
     999903    2    3    3    0    0 -0.10775234261E+00  0.45947156425E-01 -0.42096737917E-01  0.12598033251E+00  0.19421645513E-01 0.  0.
         14    1    1    2    0    0 -0.20654080506E-01  0.86238045679E-02 -0.11851445045E-01  0.25326227441E-01  0.00000000000E+00 0.  1.
     999901    1    3    3    0    0  0.12840642312E+00 -0.54570960993E-01  0.53948182962E-01  0.89262344005E+00  0.88000000000E+00 0.  1.
        -11    1    4    4    0    0 -0.83531880586E-01  0.38544858987E-01 -0.24717208850E-01  0.95260079587E-01  0.51100000000E-03 0.  1.
         11    1    4    4    0    0 -0.24220462023E-01  0.74022974381E-02 -0.17379529067E-01  0.30720252922E-01  0.51100000000E-03 0. -1.
</event>
<event>
 8    1  0.1088021E+005  0.1043930E+01  0.7957747E-01            NaN
         13   -1    0    0    0    0  0.00000000000E+00  0.00000000000E+00  0.74505805969E-08  0.10566000000E+00  0.10566000000E+00 0.  1.
     999900   -1    0    0    0    0 -0.00000000000E+00 -0.00000000000E+00 -0.74505805969E-08  0.93827000000E+00  0.93827000000E+00 0. -1.
     999902    2    1    2    0    0 -0.71717154575E-02  0.15307681219E-01  0.16709833522E-01  0.10201607522E+01  0.10198838086E+01 0.  0.
     999903    2    3    3    0    0 -0.10891742914E+00 -0.26361279046E-01 -0.62583863892E-01  0.12978106744E+00  0.19195365138E-01 0.  0.
         14    1    1    2    0    0  0.71717154575E-02 -0.15307681219E-01 -0.16709833522E-01  0.23769247847E-01  0.00000000000E+00 0.  1.
     999901    1    3    3    0    0  0.10174571368E+00  0.41668960265E-01  0.79293697414E-01  0.89037968471E+00  0.88000000000E+00 0.  1.
        -11    1    4    4    0    0 -0.24578341317E-01 -0.11937105526E-01 -0.21978259757E-01  0.35069849917E-01  0.51100000000E-03 0.  1.
         11    1    4    4    0    0 -0.84339087822E-01 -0.14424173520E-01 -0.40605604134E-01  0.94711217522E-01  0.51100000000E-03 0. -1.
</event>
<event>
 8    1  0.1088021E+005  0.1043930E+01  0.7957747E-01            NaN
         13   -1    0    0    0    0  0.00000000000E+00  0.00000000000E+00  0.74505805969E-08  0.10566000000E+00  0.10566000000E+00 0. -1.
     999900   -1    0    0    0    0 -0.00000000000E+00 -0.00000000000E+00 -0.74505805969E-08  0.93827000000E+00  0.93827000000E+00 0.  1.
     999902    2    1    2    0    0 -0.62041710984E-02 -0.24078496001E-01 -0.12371203579E-03  0.10190647428E+01  0.10187613406E+01 0.  0.
     999903    2    3    3    0    0  0.37282546275E-01  0.10622305349E+00 -0.54369106860E-01  0.12675753608E+00  0.20931980863E-01 0.  0.
         14    1    1    2    0    0  0.62041710984E-02  0.24078496001E-01  0.12371203579E-03  0.24865257154E-01  0.00000000000E+00 0.  1.
     999901    1    3    3    0    0 -0.43486717374E-01 -0.13030154949E+00  0.54245394824E-01  0.89230720677E+00  0.88000000000E+00 0. -1.
        -11    1    4    4    0    0  0.17923357822E-01  0.53185136791E-01 -0.38651875964E-01  0.68147884542E-01  0.51100000000E-03 0. -1.
         11    1    4    4    0    0  0.19359188453E-01  0.53037916699E-01 -0.15717230896E-01  0.58609651537E-01  0.51100000000E-03 0.  1.
</event>
<event>
 8    1  0.1088021E+005  0.1043930E+01  0.7957747E-01            NaN
         13   -1    0    0    0    0  0.00000000000E+00  0.00000000000E+00  0.74505805969E-08  0.10566000000E+00  0.10566000000E+00 0.  1.
     999900   -1    0    0    0    0 -0.00000000000E+00 -0.00000000000E+00 -0.74505805969E-08  0.93827000000E+00  0.93827000000E+00 0. -1.
     999902    2    1    2    0    0 -0.37081778510E-02  0.16365626313E-01  0.16120873433E-01  0.10206605594E+01  0.10203952717E+01 0.  0.
     999903    2    3    3    0    0 -0.35662769734E-01 -0.57601589049E-01 -0.10728568080E+00  0.12840419344E+00  0.19688661279E-01 0.  0.
         14    1    1    2    0    0  0.37081778510E-02 -0.16365626313E-01 -0.16120873433E-01  0.23269440643E-01  0.00000000000E+00 0. -1.
     999901    1    3    3    0    0  0.31954591883E-01  0.73967215362E-01  0.12340655423E+00  0.89225636592E+00  0.88000000000E+00 0.  1.
        -11    1    4    4    0    0 -0.34063543675E-01 -0.40419472872E-01 -0.86624861425E-01  0.10147998095E+00  0.51100000000E-03 0. -1.
         11    1    4    4    0    0 -0.15992260585E-02 -0.17182116177E-01 -0.20660819373E-01  0.26924212495E-01  0.51100000000E-03 0.  1.
</event>
<event>
 8    1  0.1088021E+005  0.1043930E+01  0.7957747E-01            NaN
         13   -1    0    0    0    0  0.00000000000E+00  0.00000000000E+00  0.74505805969E-08  0.10566000000E+00  0.10566000000E+00 0. -1.
     999900   -1    0    0    0    0 -0.00000000000E+00 -0.00000000000E+00 -0.74505805969E-08  0.93827000000E+00  0.93827000000E+00 0. -1.
     999902    2    1    2    0    0 -0.24730421764E-01  0.24267220637E-02  0.21364108107E-02  0.10189891301E+01  0.10186838569E+01 0.  0.
     999903    2    3    3    0    0  0.10160792151E+00  0.31481183199E-01  0.66621616145E-01  0.12715737443E+00  0.20379487886E-01 0.  0.
         14    1    1    2    0    0  0.24730421764E-01 -0.24267220637E-02 -0.21364108107E-02  0.24940869908E-01  0.00000000000E+00 0.  1.
     999901    1    3    3    0    0 -0.12633834327E+00 -0.29054461135E-01 -0.64485205335E-01  0.89183175566E+00  0.88000000000E+00 0. -1.
        -11    1    4    4    0    0  0.48669375299E-01  0.25731833022E-01  0.33824677810E-01  0.64615828344E-01  0.51100000000E-03 0. -1.
         11    1    4    4    0    0  0.52938546209E-01  0.57493501768E-02  0.32796938336E-01  0.62541546090E-01  0.51100000000E-03 0.  1.
</event>
<event>
 8    1  0.1088021E+005  0.1043930E+01  0.7957747E-01            NaN
         13   -1    0    0    0    0  0.00000000000E+00  0.00000000000E+00  0.74505805969E-08  0.10566000000E+00  0.10566000000E+00 0. -1.
     999900   -1    0    0    0    0 -0.00000000000E+00 -0.00000000000E+00 -0.74505805969E-08  0.93827000000E+00  0.93827000000E+00 0. -1.
     999902    2    1    2    0    0 -0.56011895568E-02  0.19002690359E-01  0.11328333430E-01  0.10211088102E+01  0.10208537582E+01 0.  0.
     999903    2    3    3    0    0 -0.34665686547E-01 -0.22184432094E-01  0.12423207975E+00  0.13246468572E+00  0.20479855316E-01 0.  0.
         14    1    1    2    0    0  0.56011895568E-02 -0.19002690359E-01 -0.11328333430E-01  0.22821189795E-01  0.00000000000E+00 0. -1.
     999901    1    3    3    0    0  0.29064496990E-01  0.41187122453E-01 -0.11290374632E+00  0.88864412448E+00  0.88000000000E+00 0. -1.
        -11    1    4    4    0    0 -0.18569214537E-01 -0.83347631419E-02  0.89216775962E-01  0.91510536219E-01  0.51100000000E-03 0.  1.
         11    1    4    4    0    0 -0.16096472009E-01 -0.13849668952E-01  0.35015303789E-01  0.40954149505E-01  0.51100000000E-03 0. -1.
</event>
<event>
 8    1  0.1088021E+005  0.1043930E+01  0.7957747E-01            NaN
         13   -1    0    0    0    0  0.00000000000E+00  0.00000000000E+00  0.74505805969E-08  0.10566000000E+00  0.10566000000E+00 0. -1.
     999900   -1    0    0    0    0 -0.00000000000E+00 -0.00000000000E+00 -0.74505805969E-08  0.93827000000E+00  0.93827000000E+00 0.  1.
     999902    2    1    2    0    0  0.12323676777E-01 -0.99432249705E-02  0.17849875845E-01  0.10200687595E+01  0.10197896426E+01 0.  0.
     999903    2    3    3    0    0 -0.85300097740E-01 -0.94869011138E-01 -0.15210718534E-01  0.12999247430E+00  0.19759591819E-01 0.  0.
         14    1    1    2    0    0 -0.12323676777E-01  0.99432249705E-02 -0.17849875845E-01  0.23861240533E-01  0.00000000000E+00 0.  1.
     999901    1    3    3    0    0  0.97623774517E-01  0.84925786167E-01  0.33060594379E-01  0.89007628516E+00  0.88000000000E+00 0. -1.
        -11    1    4    4    0    0 -0.59452729884E-01 -0.77629746900E-01 -0.81037452729E-02  0.98116953188E-01  0.51100000000E-03 0.  1.
         11    1    4    4    0    0 -0.25847367855E-01 -0.17239264237E-01 -0.71069732615E-02  0.31875521116E-01  0.51100000000E-03 0. -1.
</event>
<event>
 8    1  0.1088021E+005  0.1043930E+01  0.7957747E-01            NaN
         13   -1    0    0    0    0  0.00000000000E+00  0.00000000000E+00  0.74505805969E-08  0.10566000000E+00  0.10566000000E+00 0. -1.
     999900   -1    0    0    0    0 -0.00000000000E+00 -0.00000000000E+00 -0.74505805969E-08  0.93827000000E+00  0.93827000000E+00 0.  1.
     999902    2    1    2    0    0 -0.14726580163E-01  0.81740516632E-02 -0.18526980921E-01  0.10188913038E+01  0.10185836012E+01 0.  0.
     999903    2    3    3    0    0 -0.72044243848E-01  0.84114756670E-01  0.64674824566E-01  0.12986101993E+00  0.20381025592E-01 0.  0.
         14    1    1    2    0    0  0.14726580163E-01 -0.81740516632E-02  0.18526980921E-01  0.25038696171E-01  0.00000000000E+00 0. -1.
     999901    1    3    3    0    0  0.57317663686E-01 -0.75940705007E-01 -0.83201805487E-01  0.88903028390E+00  0.88000000000E+00 0.  1.
        -11    1    4    4    0    0 -0.37410245895E-01  0.56834536816E-01  0.33360893116E-01  0.75781933094E-01  0.51100000000E-03 0. -1.
         11    1    4    4    0    0 -0.34633997953E-01  0.27280219854E-01  0.31313931450E-01  0.54079086839E-01  0.51100000000E-03 0.  1.
</event>
<event>
 8    1  0.1088021E+005  0.1043930E+01  0.7957747E-01            NaN
         13   -1    0    0    0    0  0.00000000000E+00  0.00000000000E+00  0.74505805969E-08  0.10566000000E+00  0.10566000000E+00 0.  1.
     999900   -1    0    0    0    0 -0.00000000000E+00 -0.00000000000E+00 -0.74505805969E-08  0.93827000000E+00  0.93827000000E+00 0. -1.
     999902    2    1    2    0    0 -0.10952672048E-01 -0.13833715862E-01 -0.15937358514E-01  0.10201532863E+01  0.10198761667E+01 0.  0.
     999903    2    3    3    0    0 -0.11478812423E+00 -0.26403631330E-01 -0.57760212460E-01  0.13297294664E+00  0.21727797483E-01 0.  0.
         14    1    1    2    0    0  0.10952672048E-01  0.13833715862E-01  0.15937358514E-01  0.23776713732E-01  0.00000000000E+00 0.  1.
     999901    1    3    3    0    0  0.10383545218E+00  0.12569915469E-01  0.41822853947E-01  0.88718033963E+00  0.88000000000E+00 0.  1.
        -11    1    4    4    0    0 -0.45714623772E-01 -0.16881066169E-01 -0.33526896560E-01  0.59153285078E-01  0.51100000000E-03 0. -1.
         11    1    4    4    0    0 -0.69073500459E-01 -0.95225651610E-02 -0.24233315900E-01  0.73819661564E-01  0.51100000000E-03 0.  1.
</event>
<event>
 8    1  0.1088021E+005  0.1043930E+01  0.7957747E-01            NaN
         13   -1    0    0    0    0  0.00000000000E+00  0.00000000000E+00  0.74505805969E-08  0.10566000000E+00  0.10566000000E+00 0.  1.
     999900   -1    0    0    0    0 -0.00000000000E+00 -0.00000000000E+00 -0.74505805969E-08  0.93827000000E+00  0.93827000000E+00 0.  1.
     999902    2    1    2    0    0 -0.49909847266E-02  0.17778282484E-01  0.14994271881E-01  0.10201433347E+01  0.10198659804E+01 0.  0.
     999903    2    3    3    0    0 -0.12110692613E-01  0.11635935957E+00  0.60990238217E-01  0.13341646136E+00  0.19848767404E-01 0.  0.
         14    1    1    2    0    0  0.49909847266E-02 -0.17778282484E-01 -0.14994271881E-01  0.23786665296E-01  0.00000000000E+00 0. -1.
     999901    1    3    3    0    0  0.71197078862E-02 -0.98581077087E-01 -0.45995966336E-01  0.88672687335E+00  0.88000000000E+00 0.  1.
        -11    1    4    4    0    0 -0.27321130959E-02  0.11508020773E-01  0.13421201510E-01  0.17896612949E-01  0.51100000000E-03 0.  1.
         11    1    4    4    0    0 -0.93785795169E-02  0.10485133880E+00  0.47569036707E-01  0.11551984841E+00  0.51100000000E-03 0. -1.
</event>
<event>
 8    1  0.1088021E+005  0.1043930E+01  0.7957747E-01            NaN
         13   -1    0    0    0    0  0.00000000000E+00  0.00000000000E+00  0.74505805969E-08  0.10566000000E+00  0.10566000000E+00 0. -1.
     999900   -1    0    0    0    0 -0.00000000000E+00 -0.00000000000E+00 -0.74505805969E-08  0.93827000000E+00  0.93827000000E+00 0. -1.
     999902    2    1    2    0    0  0.95030882580E-02 -0.20267327052E-01 -0.98361909636E-02  0.10194795627E+01  0.10191863200E+01 0.  0.
     999903    2    3    3    0    0 -0.35473253225E-01  0.12036928100E+00 -0.73048250933E-02  0.12717471868E+00  0.19311475870E-01 0.  0.
         14    1    1    2    0    0 -0.95030882580E-02  0.20267327052E-01  0.98361909636E-02  0.24450437316E-01  0.00000000000E+00 0. -1.
     999901    1    3    3    0    0  0.44976341483E-01 -0.14063660805E+00 -0.25313658703E-02  0.89230484400E+00  0.88000000000E+00 0. -1.
        -11    1    4    4    0    0 -0.23938331969E-01  0.10234196829E+00 -0.10079240761E-01  0.10558775699E+00  0.51100000000E-03 0.  1.
         11    1    4    4    0    0 -0.11534921256E-01  0.18027312708E-01  0.27744156680E-02  0.21586961693E-01  0.51100000000E-03 0. -1.
</event>
<event>
 8    1  0.1088021E+005  0.1043930E+01  0.7957747E-01            NaN
         13   -1    0    0    0    0  0.00000000000E+00  0.00000000000E+00  0.74505805969E-08  0.10566000000E+00  0.10566000000E+00 0.  1.
     999900   -1    0    0    0    0 -0.00000000000E+00 -0.00000000000E+00 -0.74505805969E-08  0.93827000000E+00  0.93827000000E+00 0.  1.
     999902    2    1    2    0    0  0.74449748275E-02 -0.65113662328E-02 -0.22051024469E-01  0.10197623932E+01  0.10194759758E+01 0.  0.
     999903    2    3    3    0    0  0.55822372565E-01  0.73813873882E-01  0.86517688709E-01  0.12814606183E+00  0.19273750183E-01 0.  0.
         14    1    1    2    0    0 -0.74449748275E-02  0.65113662328E-02  0.22051024469E-01  0.24167606843E-01  0.00000000000E+00 0.  1.
     999901    1    3    3    0    0 -0.48377397737E-01 -0.80325240115E-01 -0.10856871318E+00  0.89161633133E+00  0.88000000000E+00 0.  1.
        -11    1    4    4    0    0  0.46066259409E-01  0.49288434814E-01  0.68752609360E-01  0.96325658457E-01  0.51100000000E-03 0. -1.
         11    1    4    4    0    0  0.97561131562E-02  0.24525439069E-01  0.17765079349E-01  0.31820403371E-01  0.51100000000E-03 0.  1.
</event>
<event>
 8    1  0.1088021E+005  0.1043930E+01  0.7957747E-01            NaN
         13   -1    0    0    0    0  0.00000000000E+00  0.00000000000E+00  0.74505805969E-08  0.10566000000E+00  0.10566000000E+00 0. -1.
     999900   -1    0    0    0    0 -0.00000000000E+00 -0.00000000000E+00 -0.74505805969E-08  0.93827000000E+00  0.93827000000E+00 0.  1.
     999902    2    1    2    0    0 -0.36565473605E-02 -0.14020596696E-01  0.20699804778E-01  0.10186628397E+01  0.10183494251E+01 0.  0.
     999903    2    3    3    0    0  0.32125410044E-01  0.85611294499E-01 -0.83832350615E-01  0.12617539795E+00  0.23044138568E-01 0.  0.
         14    1    1    2    0    0  0.36565473605E-02  0.14020596696E-01 -0.20699804778E-01  0.25267160271E-01  0.00000000000E+00 0.  1.
     999901    1    3    3    0    0 -0.35781957405E-01 -0.99631891196E-01  0.10453215539E+00  0.89248744178E+00  0.88000000000E+00 0. -1.
        -11    1    4    4    0    0  0.13555792240E-01  0.53683881095E-01 -0.62578935632E-01  0.83558978563E-01  0.51100000000E-03 0.  1.
         11    1    4    4    0    0  0.18569617804E-01  0.31927413404E-01 -0.21253414983E-01  0.42616419389E-01  0.51100000000E-03 0. -1.
</event>
<event>
 8    1  0.1088021E+005  0.1043930E+01  0.7957747E-01            NaN
         13   -1    0    0    0    0  0.00000000000E+00  0.00000000000E+00  0.74505805969E-08  0.10566000000E+00  0.10566000000E+00 0.  1.
     999900   -1    0    0    0    0 -0.00000000000E+00 -0.00000000000E+00 -0.74505805969E-08  0.93827000000E+00  0.93827000000E+00 0. -1.
     999902    2    1    2    0    0  0.12867118926E-01 -0.18841901506E-01  0.59572061075E-02  0.10203488994E+01  0.10200763737E+01 0.  0.
     999903    2    3    3    0    0  0.55887905245E-01  0.93543076358E-01  0.68448575447E-01  0.12996339717E+00  0.18207471981E-01 0.  0.
         14    1    1    2    0    0 -0.12867118926E-01  0.18841901506E-01 -0.59572061075E-02  0.23581100619E-01  0.00000000000E+00 0. -1.
     999901    1    3    3    0    0 -0.43020786319E-01 -0.11238497786E+00 -0.62491369340E-01  0.89038550221E+00  0.88000000000E+00 0.  1.
        -11    1    4    4    0    0  0.47056860124E-01  0.66095690738E-01  0.44898213361E-01  0.92731327516E-01  0.51100000000E-03 0. -1.
         11    1    4    4    0    0  0.88310451209E-02  0.27447385620E-01  0.23550362086E-01  0.37232069654E-01  0.51100000000E-03 0.  1.
</event>
<event>
 8    1  0.1088021E+005  0.1043930E+01  0.7957747E-01            NaN
         13   -1    0    0    0    0  0.00000000000E+00  0.00000000000E+00  0.74505805969E-08  0.10566000000E+00  0.10566000000E+00 0. -1.
     999900   -1    0    0    0    0 -0.00000000000E+00 -0.00000000000E+00 -0.74505805969E-08  0.93827000000E+00  0.93827000000E+00 0.  1.
     999902    2    1    2    0    0 -0.69929050994E-02  0.12177461848E-01  0.18638328927E-01  0.10205937920E+01  0.10203269621E+01 0.  0.
     999903    2    3    3    0    0  0.10435789560E+00  0.28507345996E-01  0.72081850112E-01  0.13181829960E+00  0.21841058662E-01 0.  0.
         14    1    1    2    0    0  0.69929050994E-02 -0.12177461848E-01 -0.18638328927E-01  0.23336208003E-01  0.00000000000E+00 0.  1.
     999901    1    3    3    0    0 -0.11135080070E+00 -0.16329884148E-01 -0.53443521185E-01  0.88877549240E+00  0.88000000000E+00 0.  1.
        -11    1    4    4    0    0  0.40272101381E-01  0.20205139260E-01  0.36888922653E-01  0.58233525891E-01  0.51100000000E-03 0. -1.
         11    1    4    4    0    0  0.64085794219E-01  0.83022067354E-02  0.35192927459E-01  0.73584773707E-01  0.51100000000E-03 0.  1.
</event>
<event>
 8    1  0.1088021E+005  0.1043930E+01  0.7957747E-01            NaN
         13   -1    0    0    0    0  0.00000000000E+00  0.00000000000E+00  0.74505805969E-08  0.10566000000E+00  0.10566000000E+00 0. -1.
     999900   -1    0    0    0    0 -0.00000000000E+00 -0.00000000000E+00 -0.74505805969E-08  0.93827000000E+00  0.93827000000E+00 0. -1.
     999902    2    1    2    0    0  0.11351639119E-01  0.94491927753E-02 -0.16270253058E-01  0.10219557403E+01  0.10217194659E+01 0.  0.
     999903    2    3    3    0    0  0.37323941930E-01 -0.85687963818E-01  0.88485460925E-01  0.13027227702E+00  0.20141637970E-01 0.  0.
         14    1    1    2    0    0 -0.11351639119E-01 -0.94491927753E-02  0.16270253058E-01  0.21974259700E-01  0.00000000000E+00 0.  1.
     999901    1    3    3    0    0 -0.25972302811E-01  0.95137156593E-01 -0.10475571398E+00  0.89168346328E+00  0.88000000000E+00 0. -1.
        -11    1    4    4    0    0  0.26895057048E-01 -0.38996464739E-01  0.49906723994E-01  0.68811413127E-01  0.51100000000E-03 0. -1.
         11    1    4    4    0    0  0.10428884882E-01 -0.46691499079E-01  0.38578736931E-01  0.61460863892E-01  0.51100000000E-03 0.  1.
</event>
<event>
 8    1  0.1088021E+005  0.1043930E+01  0.7957747E-01            NaN
         13   -1    0    0    0    0  0.00000000000E+00  0.00000000000E+00  0.74505805969E-08  0.10566000000E+00  0.10566000000E+00 0.  1.
     999900   -1    0    0    0    0 -0.00000000000E+00 -0.00000000000E+00 -0.74505805969E-08  0.93827000000E+00  0.93827000000E+00 0. -1.
     999902    2    1    2    0    0 -0.18077678631E-01 -0.15968046168E-02  0.15572297441E-01  0.10200166419E+01  0.10197362899E+01 0.  0.
     999903    2    3    3    0    0  0.10429496757E+00 -0.51025631947E-01  0.53117719237E-01  0.12938319751E+00  0.20915647835E-01 0.  0.
         14    1    1    2    0    0  0.18077678631E-01  0.15968046168E-02 -0.15572297441E-01  0.23913358135E-01  0.00000000000E+00 0. -1.
     999901    1    3    3    0    0 -0.12237264620E+00  0.49428827330E-01 -0.37545421796E-01  0.89063344436E+00  0.88000000000E+00 0. -1.
        -11    1    4    4    0    0  0.38870155977E-01 -0.12752112301E-01  0.97608647435E-02  0.42059969036E-01  0.51100000000E-03 0.  1.
         11    1    4    4    0    0  0.65424811594E-01 -0.38273519646E-01  0.43356854493E-01  0.87323228472E-01  0.51100000000E-03 0. -1.
</event>
<event>
 8    1  0.1088021E+005  0.1043930E+01  0.7957747E-01            NaN
         13   -1    0    0    0    0  0.00000000000E+00  0.00000000000E+00  0.74505805969E-08  0.10566000000E+00  0.10566000000E+00 0. -1.
     999900   -1    0    0    0    0 -0.00000000000E+00 -0.00000000000E+00 -0.74505805969E-08  0.93827000000E+00  0.93827000000E+00 0.  1.
     999902    2    1    2    0    0  0.22094533688E-01 -0.98807686247E-02  0.12462916413E-01  0.10167064386E+01  0.10163419012E+01 0.  0.
     999903    2    3    3    0    0  0.75652125973E-02  0.32895843694E-01 -0.11949491022E+00  0.12572169818E+00  0.19686108059E-01 0.  0.
         14    1    1    2    0    0 -0.22094533688E-01  0.98807686247E-02 -0.12462916413E-01  0.27223561359E-01  0.00000000000E+00 0. -1.
     999901    1    3    3    0    0  0.14529321091E-01 -0.42776612319E-01  0.13195782663E+00  0.89098474047E+00  0.88000000000E+00 0. -1.
        -11    1    4    4    0    0  0.88149396918E-02  0.31267597002E-01 -0.82512631206E-01  0.88678978420E-01  0.51100000000E-03 0. -1.
         11    1    4    4    0    0 -0.12497270945E-02  0.16282466925E-02 -0.36982279011E-01  0.37042719756E-01  0.51100000000E-03 0.  1.
</event>
<event>
 8    1  0.1088021E+005  0.1043930E+01  0.7957747E-01            NaN
         13   -1    0    0    0    0  0.00000000000E+00  0.00000000000E+00  0.74505805969E-08  0.10566000000E+00  0.10566000000E+00 0. -1.
     999900   -1    0    0    0    0 -0.00000000000E+00 -0.00000000000E+00 -0.74505805969E-08  0.93827000000E+00  0.93827000000E+00 0.  1.
     999902    2    1    2    0    0 -0.19051060394E-01  0.12366248791E-01 -0.63919549396E-02  0.10203349984E+01  0.10200621476E+01 0.  0.
     999903    2    3    3    0    0  0.68761549563E-01 -0.95521207633E-01  0.45866241677E-01  0.12787677709E+00  0.19907440490E-01 0.  0.
         14    1    1    2    0    0  0.19051060394E-01 -0.12366248791E-01  0.63919549396E-02  0.23595001574E-01  0.00000000000E+00 0. -1.
     999901    1    3    3    0    0 -0.87812609957E-01  0.10788745642E+00 -0.52258196617E-01  0.89245822134E+00  0.88000000000E+00 0.  1.
        -11    1    4    4    0    0  0.52043800394E-01 -0.74299575468E-01  0.26090049208E-01  0.94392456599E-01  0.51100000000E-03 0.  1.
         11    1    4    4    0    0  0.16717749169E-01 -0.21221632165E-01  0.19776192469E-01  0.33484320489E-01  0.51100000000E-03 0. -1.
</event>
<event>
 8    1  0.1088021E+005  0.1043930E+01  0.7957747E-01            NaN
         13   -1    0    0    0    0  0.00000000000E+00  0.00000000000E+00  0.74505805969E-08  0.10566000000E+00  0.10566000000E+00 0. -1.
     999900   -1    0    0    0    0 -0.00000000000E+00 -0.00000000000E+00 -0.74505805969E-08  0.93827000000E+00  0.93827000000E+00 0.  1.
     999902    2    1    2    0    0 -0.37110839992E-03 -0.16532942182E-01 -0.15375404898E-01  0.10213495001E+01  0.10210998592E+01 0.  0.
     999903    2    3    3    0    0 -0.18313279465E-01  0.51116440972E-01  0.11534111035E+00  0.12894534959E+00  0.19366587207E-01 0.  0.
         14    1    1    2    0    0  0.37110839992E-03  0.16532942182E-01  0.15375404898E-01  0.22580499871E-01  0.00000000000E+00 0. -1.
     999901    1    3    3    0    0  0.17942171065E-01 -0.67649383154E-01 -0.13071651525E+00  0.89240415054E+00  0.88000000000E+00 0.  1.
        -11    1    4    4    0    0  0.16239138703E-02  0.13780236818E-01  0.17492061870E-01  0.22333055601E-01  0.51100000000E-03 0. -1.
         11    1    4    4    0    0 -0.19937193336E-01  0.37336204154E-01  0.97849048485E-01  0.10661229399E+00  0.51100000000E-03 0.  1.
</event>
<event>
 8    1  0.1088021E+005  0.1043930E+01  0.7957747E-01            NaN
         13   -1    0    0    0    0  0.00000000000E+00  0.00000000000E+00  0.74505805969E-08  0.10566000000E+00  0.10566000000E+00 0. -1.
     999900   -1    0    0    0    0 -0.00000000000E+00 -0.00000000000E+00 -0.74505805969E-08  0.93827000000E+00  0.93827000000E+00 0. -1.
     999902    2    1    2    0    0 -0.11465303503E-01 -0.53154151924E-02 -0.19852213145E-01  0.10203966792E+01  0.10201252696E+01 0.  0.
     999903    2    3    3    0    0 -0.11984908241E+00  0.37570831633E-01 -0.37428235738E-01  0.13253678578E+00  0.19742259496E-01 0.  0.
         14    1    1    2    0    0  0.11465303503E-01  0.53154151924E-02  0.19852213145E-01  0.23533320842E-01  0.00000000000E+00 0.  1.
     999901    1    3    3    0    0  0.10838377891E+00 -0.42886246825E-01  0.17576022593E-01  0.88785989338E+00  0.88000000000E+00 0.  1.
        -11    1    4    4    0    0 -0.21140432343E-01  0.14849331563E-01 -0.83212478007E-02  0.27146359121E-01  0.51100000000E-03 0. -1.
         11    1    4    4    0    0 -0.98708650069E-01  0.22721500069E-01 -0.29106987937E-01  0.10539042666E+00  0.51100000000E-03 0.  1.
</event>
<event>
 8    1  0.1088021E+005  0.1043930E+01  0.7957747E-01            NaN
         13   -1    0    0    0    0  0.00000000000E+00  0.00000000000E+00  0.74505805969E-08  0.10566000000E+00  0.10566000000E+00 0.  1.
     999900   -1    0    0    0    0 -0.00000000000E+00 -0.00000000000E+00 -0.74505805969E-08  0.93827000000E+00  0.93827000000E+00 0.  1.
     999902    2    1    2    0    0  0.23812041520E-02 -0.10123981671E-01 -0.21137854306E-01  0.10203721134E+01  0.10201001302E+01 0.  0.
     999903    2    3    3    0    0 -0.67819322315E-01  0.98451775579E-01 -0.48231598990E-01  0.13051207944E+00  0.20369171421E-01 0.  0.
         14    1    1    2    0    0 -0.23812041520E-02  0.10123981671E-01  0.21137854306E-01  0.23557886635E-01  0.00000000000E+00 0.  1.
     999901    1    3    3    0    0  0.70200526466E-01 -0.10857575725E+00  0.27093744685E-01  0.88986003393E+00  0.88000000000E+00 0.  1.
        -11    1    4    4    0    0 -0.15798058832E-01  0.24408438718E-01 -0.26832271484E-02  0.29202934312E-01  0.51100000000E-03 0.  1.
         11    1    4    4    0    0 -0.52021263482E-01  0.74043336861E-01 -0.45548371842E-01  0.10130914513E+00  0.51100000000E-03 0. -1.
</event>
<event>
 8    1  0.1088021E+005  0.1043930E+01  0.7957747E-01            NaN
         13   -1    0    0    0    0  0.00000000000E+00  0.00000000000E+00  0.74505805969E-08  0.10566000000E+00  0.10566000000E+00 0. -1.
     999900   -1    0    0    0    0 -0.00000000000E+00 -0.00000000000E+00 -0.74505805969E-08  0.93827000000E+00  0.93827000000E+00 0.  1.
     999902    2    1    2    0    0 -0.21650520690E-01 -0.72318049748E-02  0.72341666052E-02  0.10199847037E+01  0.10197035935E+01 0.  0.
     999903    2    3    3    0    0 -0.12842026348E+00  0.27128053909E-01  0.60220288261E-02  0.13286473031E+00  0.19725018346E-01 0.  0.
         14    1    1    2    0    0  0.21650520690E-01  0.72318049748E-02 -0.72341666052E-02  0.23945296320E-01  0.00000000000E+00 0. -1.
     999901    1    3    3    0    0  0.10676974279E+00 -0.34359858884E-01  0.12121377791E-02  0.88711997337E+00  0.88000000000E+00 0.  1.
        -11    1    4    4    0    0 -0.21253499519E-01 -0.19574020903E-02  0.44523034223E-02  0.21808869561E-01  0.51100000000E-03 0.  1.
         11    1    4    4    0    0 -0.10716676396E+00  0.29085455999E-01  0.15697254038E-02  0.11105586075E+00  0.51100000000E-03 0. -1.
</event>
<event>
 8    1  0.1088021E+005  0.1043930E+01  0.7957747E-01            NaN
         13   -1    0    0    0    0  0.00000000000E+00  0.00000000000E+00  0.74505805969E-08  0.10566000000E+00  0.10566000000E+00 0.  1.
     999900   -1    0    0    0    0 -0.00000000000E+00 -0.00000000000E+00 -0.74505805969E-08  0.93827000000E+00  0.93827000000E+00 0.  1.
     999902    2    1    2    0    0  0.10565024103E-01 -0.19909992679E-01 -0.40763530400E-02  0.10210248871E+01  0.10207679344E+01 0.  0.
     999903    2    3    3    0    0 -0.25152559478E-01 -0.11092472329E+00  0.65602299036E-01  0.13287256823E+00  0.20359574277E-01 0.  0.
         14    1    1    2    0    0 -0.10565024103E-01  0.19909992679E-01  0.40763530400E-02  0.22905112898E-01  0.00000000000E+00 0. -1.
     999901    1    3    3    0    0  0.35717583581E-01  0.91014730606E-01 -0.69678652076E-01  0.88815231887E+00  0.88000000000E+00 0.  1.
        -11    1    4    4    0    0 -0.68595269443E-03 -0.42877917779E-01  0.29459122322E-01  0.52029677811E-01  0.51100000000E-03 0. -1.
         11    1    4    4    0    0 -0.24466606784E-01 -0.68046805506E-01  0.36143176715E-01  0.80842890418E-01  0.51100000000E-03 0.  1.
</event>
<event>
 8    1  0.1088021E+005  0.1043930E+01  0.7957747E-01            NaN
         13   -1    0    0    0    0  0.00000000000E+00  0.00000000000E+00  0.74505805969E-08  0.10566000000E+00  0.10566000000E+00 0.  1.
     999900   -1    0    0    0    0 -0.00000000000E+00 -0.00000000000E+00 -0.74505805969E-08  0.93827000000E+00  0.93827000000E+00 0. -1.
     999902    2    1    2    0    0  0.27809648070E-02  0.86633961940E-02 -0.22435439245E-01  0.10197197308E+01  0.10194322892E+01 0.  0.
     999903    2    3    3    0    0  0.28441160205E-02 -0.82003206603E-01  0.95270505380E-01  0.12726517947E+00  0.19681001541E-01 0.  0.
         14    1    1    2    0    0 -0.27809648070E-02 -0.86633961940E-02  0.22435439245E-01  0.24210269164E-01  0.00000000000E+00 0.  1.
     999901    1    3    3    0    0 -0.63151213567E-04  0.90666602797E-01 -0.11770594462E+00  0.89245455136E+00  0.88000000000E+00 0. -1.
        -11    1    4    4    0    0 -0.58682023806E-02 -0.56139166223E-01  0.71283972675E-01  0.90926935859E-01  0.51100000000E-03 0. -1.
         11    1    4    4    0    0  0.87123184011E-02 -0.25864040379E-01  0.23986532705E-01  0.36338243613E-01  0.51100000000E-03 0.  1.
</event>
<event>
 8    1  0.1088021E+005  0.1043930E+01  0.7957747E-01            NaN
         13   -1    0    0    0    0  0.00000000000E+00  0.00000000000E+00  0.74505805969E-08  0.10566000000E+00  0.10566000000E+00 0. -1.
     999900   -1    0    0    0    0 -0.00000000000E+00 -0.00000000000E+00 -0.74505805969E-08  0.93827000000E+00  0.93827000000E+00 0. -1.
     999902    2    1    2    0    0 -0.89718535481E-02  0.15906706207E-01  0.14622077143E-01  0.10205350732E+01  0.10202668833E+01 0.  0.
     999903    2    3    3    0    0  0.10722450127E+00 -0.62156789338E-01 -0.27851289587E-01  0.12845912967E+00  0.19117885094E-01 0.  0.
         14    1    1    2    0    0  0.89718535481E-02 -0.15906706207E-01 -0.14622077143E-01  0.23394926767E-01  0.00000000000E+00 0. -1.
     999901    1    3    3    0    0 -0.11619635481E+00  0.78063495545E-01  0.42473366730E-01  0.89207594357E+00  0.88000000000E+00 0.  1.
        -11    1    4    4    0    0  0.66584141301E-01 -0.48801421719E-01 -0.16346053862E-01  0.84157478767E-01  0.51100000000E-03 0.  1.
         11    1    4    4    0    0  0.40640359965E-01 -0.13355367619E-01 -0.11505235726E-01  0.44301650900E-01  0.51100000000E-03 0. -1.
</event>
<event>
 8    1  0.1088021E+005  0.1043930E+01  0.7957747E-01            NaN
         13   -1    0    0    0    0  0.00000000000E+00  0.00000000000E+00  0.74505805969E-08  0.10566000000E+00  0.10566000000E+00 0. -1.
     999900   -1    0    0    0    0 -0.00000000000E+00 -0.00000000000E+00 -0.74505805969E-08  0.93827000000E+00  0.93827000000E+00 0.  1.
     999902    2    1    2    0    0  0.73897677679E-02  0.21297938737E-01  0.21249896066E-03  0.10213854659E+01  0.10211366284E+01 0.  0.
     999903    2    3    3    0    0  0.10147909929E+00 -0.57301905837E-01  0.51305728373E-01  0.13141846878E+00  0.32511846561E-01 0.  0.
         14    1    1    2    0    0 -0.73897677679E-02 -0.21297938737E-01 -0.21249896066E-03  0.22544534103E-01  0.00000000000E+00 0. -1.
     999901    1    3    3    0    0 -0.94089331520E-01  0.78599844574E-01 -0.51093229413E-01  0.88996699712E+00  0.88000000000E+00 0.  1.
        -11    1    4    4    0    0  0.16976670911E-01 -0.21820048491E-01  0.21554525962E-01  0.35059671730E-01  0.51100000000E-03 0. -1.
         11    1    4    4    0    0  0.84502428377E-01 -0.35481857346E-01  0.29751202411E-01  0.96358797047E-01  0.51100000000E-03 0.  1.
</event>
<event>
 8    1  0.1088021E+005  0.1043930E+01  0.7957747E-01            NaN
         13   -1    0    0    0    0  0.00000000000E+00  0.00000000000E+00  0.74505805969E-08  0.10566000000E+00  0.10566000000E+00 0.  1.
     999900   -1    0    0    0    0 -0.00000000000E+00 -0.00000000000E+00 -0.74505805969E-08  0.93827000000E+00  0.93827000000E+00 0. -1.
     999902    2    1    2    0    0 -0.68386173443E-03 -0.20330654910E-01  0.12690416891E-01  0.10199539729E+01  0.10196721321E+01 0.  0.
     999903    2    3    3    0    0  0.13202532498E-01 -0.12258923855E+00  0.47402467568E-01  0.13324399981E+00  0.17451111178E-01 0.  0.
         14    1    1    2    0    0  0.68386173443E-03  0.20330654910E-01 -0.12690416891E-01  0.23976027127E-01  0.00000000000E+00 0. -1.
     999901    1    3    3    0    0 -0.13886394232E-01  0.10225858364E+00 -0.34712050677E-01  0.88670997307E+00  0.88000000000E+00 0. -1.
        -11    1    4    4    0    0  0.55101659567E-02 -0.38865579994E-01  0.23830337691E-01  0.45924300241E-01  0.51100000000E-03 0.  1.
         11    1    4    4    0    0  0.76923665410E-02 -0.83723658552E-01  0.23572129877E-01  0.87319699566E-01  0.51100000000E-03 0. -1.
</event>
<event>
 7    1  0.1088021E+005  0.1043930E+01  0.7957747E-01            NaN
         13   -1    0    0    0    0  0.00000000000E+00  0.00000000000E+00  0.74505805969E-08  0.10566000000E+00  0.10566000000E+00 0. -1.
     999900   -1    0    0    0    0 -0.00000000000E+00 -0.00000000000E+00 -0.74505805969E-08  0.93827000000E+00  0.93827000000E+00 0. -1.
     999903    2    1    2    0    0 -0.34364185154E-01 -0.49575944210E-01 -0.52339466264E-01  0.84297757451E-01  0.26981859032E-01 0.  0.
         14    1    1    2    0    0 -0.37806020816E-01 -0.42268731805E-01  0.44161538873E-01  0.71876160262E-01  0.00000000000E+00 0. -1.
     999901    1    1    2    0    0  0.72170205971E-01  0.91844676015E-01  0.81779273910E-02  0.88775608229E+00  0.88000000000E+00 0.  1.
        -11    1    3    3    0    0 -0.75318563491E-03 -0.18459897811E-02 -0.14685091875E-01  0.14828621354E-01  0.51100000000E-03 0. -1.
         11    1    3    3    0    0 -0.33610999519E-01 -0.47729954429E-01 -0.37654374389E-01  0.69469136097E-01  0.51100000000E-03 0.  1.
</event>
<event>
 8    1  0.1088021E+005  0.1043930E+01  0.7957747E-01            NaN
         13   -1    0    0    0    0  0.00000000000E+00  0.00000000000E+00  0.74505805969E-08  0.10566000000E+00  0.10566000000E+00 0.  1.
     999900   -1    0    0    0    0 -0.00000000000E+00 -0.00000000000E+00 -0.74505805969E-08  0.93827000000E+00  0.93827000000E+00 0. -1.
     999902    2    1    2    0    0 -0.20026641321E-01 -0.15858523289E-01 -0.56548319961E-02  0.10177663564E+01  0.10174300074E+01 0.  0.
     999903    2    3    3    0    0 -0.30440034339E-01 -0.26951329547E-02  0.12290293822E+00  0.12826716362E+00  0.20334050448E-01 0.  0.
         14    1    1    2    0    0  0.20026641321E-01  0.15858523289E-01  0.56548319961E-02  0.26163643638E-01  0.00000000000E+00 0. -1.
     999901    1    3    3    0    0  0.10413393018E-01 -0.13163390335E-01 -0.12855777022E+00  0.88949919274E+00  0.88000000000E+00 0. -1.
        -11    1    4    4    0    0 -0.31498719678E-01 -0.65053131164E-02  0.11501543399E+00  0.11942905684E+00  0.51100000000E-03 0.  1.
         11    1    4    4    0    0  0.10586853394E-02  0.38101801616E-02  0.78875042291E-02  0.88381067812E-02  0.51100000000E-03 0. -1.
</event>
<event>
 8    1  0.1088021E+005  0.1043930E+01  0.7957747E-01            NaN
         13   -1    0    0    0    0  0.00000000000E+00  0.00000000000E+00  0.74505805969E-08  0.10566000000E+00  0.10566000000E+00 0. -1.
     999900   -1    0    0    0    0 -0.00000000000E+00 -0.00000000000E+00 -0.74505805969E-08  0.93827000000E+00  0.93827000000E+00 0.  1.
     999902    2    1    2    0    0 -0.22569523598E-01  0.33429433132E-02 -0.11615476886E-01  0.10183276960E+01  0.10180058048E+01 0.  0.
     999903    2    3    3    0    0 -0.22304133743E-02  0.64368804517E-01  0.10872228415E+00  0.12781154689E+00  0.19155644300E-01 0.  0.
         14    1    1    2    0    0  0.22569523598E-01 -0.33429433132E-02  0.11615476886E-01  0.25602303973E-01  0.00000000000E+00 0. -1.
     999901    1    3    3    0    0 -0.20339110223E-01 -0.61025861204E-01 -0.12033776104E+00  0.89051614914E+00  0.88000000000E+00 0.  1.
        -11    1    4    4    0    0 -0.65228986618E-02  0.96375016490E-02  0.12944117794E-01  0.17413814960E-01  0.51100000000E-03 0. -1.
         11    1    4    4    0    0  0.42924852875E-02  0.54731302868E-01  0.95778166358E-01  0.11039773193E+00  0.51100000000E-03 0.  1.
</event>
<event>
 8    1  0.1088021E+005  0.1043930E+01  0.7957747E-01            NaN
         13   -1    0    0    0    0  0.00000000000E+00  0.00000000000E+00  0.74505805969E-08  0.10566000000E+00  0.10566000000E+00 0. -1.
     999900   -1    0    0    0    0 -0.00000000000E+00 -0.00000000000E+00 -0.74505805969E-08  0.93827000000E+00  0.93827000000E+00 0.  1.
     999902    2    1    2    0    0 -0.87586679318E-02 -0.21666239476E-01 -0.51147181135E-02  0.10200071963E+01  0.10197266202E+01 0.  0.
     999903    2    3    3    0    0 -0.82432229263E-01  0.40441147372E-01 -0.90833919502E-01  0.13060689122E+00  0.19411344086E-01 0.  0.
         14    1    1    2    0    0  0.87586679318E-02  0.21666239476E-01  0.51147181135E-02  0.23922803731E-01  0.00000000000E+00 0. -1.
     999901    1    3    3    0    0  0.73673561331E-01 -0.62107386849E-01  0.85719201388E-01  0.88940030505E+00  0.88000000000E+00 0. -1.
        -11    1    4    4    0    0 -0.66210023914E-03  0.22602105925E-02 -0.71009568957E-02  0.74987757990E-02  0.51100000000E-03 0.  1.
         11    1    4    4    0    0 -0.81770129023E-01  0.38180936780E-01 -0.83732962606E-01  0.12310811542E+00  0.51100000000E-03 0. -1.
</event>
<event>
 8    1  0.1088021E+005  0.1043930E+01  0.7957747E-01            NaN
         13   -1    0    0    0    0  0.00000000000E+00  0.00000000000E+00  0.74505805969E-08  0.10566000000E+00  0.10566000000E+00 0. -1.
     999900   -1    0    0    0    0 -0.00000000000E+00 -0.00000000000E+00 -0.74505805969E-08  0.93827000000E+00  0.93827000000E+00 0.  1.
     999902    2    1    2    0    0 -0.15309883450E-01 -0.16171596770E-01 -0.80246355403E-02  0.10202591773E+01  0.10199845494E+01 0.  0.
     999903    2    3    3    0    0 -0.64523829586E-01 -0.84854378987E-01  0.75642709515E-01  0.13226167632E+00  0.20192605114E-01 0.  0.
         14    1    1    2    0    0  0.15309883450E-01  0.16171596770E-01  0.80246355403E-02  0.23670822733E-01  0.00000000000E+00 0.  1.
     999901    1    3    3    0    0  0.49213946137E-01  0.68682782217E-01 -0.83667345055E-01  0.88799750095E+00  0.88000000000E+00 0. -1.
        -11    1    4    4    0    0 -0.20181854994E-01 -0.13001628306E-01  0.18399971813E-01  0.30251771738E-01  0.51100000000E-03 0.  1.
         11    1    4    4    0    0 -0.44341974592E-01 -0.71852750681E-01  0.57242737702E-01  0.10200990458E+00  0.51100000000E-03 0. -1.
</event>
<event>
 8    1  0.1088021E+005  0.1043930E+01  0.7957747E-01            NaN
         13   -1    0    0    0    0  0.00000000000E+00  0.00000000000E+00  0.74505805969E-08  0.10566000000E+00  0.10566000000E+00 0. -1.
     999900   -1    0    0    0    0 -0.00000000000E+00 -0.00000000000E+00 -0.74505805969E-08  0.93827000000E+00  0.93827000000E+00 0. -1.
     999902    2    1    2    0    0 -0.18861270571E-01 -0.51964634795E-02 -0.17818290982E-01  0.10174679091E+01  0.10171237407E+01 0.  0.
     999903    2    3    3    0    0  0.63170727684E-01 -0.10625184707E+00 -0.25765445176E-01  0.12785867100E+00  0.20099396562E-01 0.  0.
         14    1    1    2    0    0  0.18861270571E-01  0.51964634795E-02  0.17818290982E-01  0.26462090880E-01  0.00000000000E+00 0.  1.
     999901    1    3    3    0    0 -0.82031998255E-01  0.10105538359E+00  0.79471541948E-02  0.88960923812E+00  0.88000000000E+00 0.  1.
        -11    1    4    4    0    0  0.45905204712E-01 -0.58608537491E-01 -0.12697711473E-01  0.75523118872E-01  0.51100000000E-03 0. -1.
         11    1    4    4    0    0  0.17265522973E-01 -0.47643309580E-01 -0.13067733704E-01  0.52335552127E-01  0.51100000000E-03 0.  1.
</event>
<event>
 8    1  0.1088021E+005  0.1043930E+01  0.7957747E-01            NaN
         13   -1    0    0    0    0  0.00000000000E+00  0.00000000000E+00  0.74505805969E-08  0.10566000000E+00  0.10566000000E+00 0.  1.
     999900   -1    0    0    0    0 -0.00000000000E+00 -0.00000000000E+00 -0.74505805969E-08  0.93827000000E+00  0.93827000000E+00 0. -1.
     999902    2    1    2    0    0 -0.85253854645E-02 -0.10126229570E-01  0.19260820758E-01  0.10205590364E+01  0.10202914019E+01 0.  0.
     999903    2    3    3    0    0 -0.79098528084E-01  0.72867384027E-01  0.74767195875E-01  0.13210562400E+00  0.17190971841E-01 0.  0.
         14    1    1    2    0    0  0.85253854645E-02  0.10126229570E-01 -0.19260820758E-01  0.23370963585E-01  0.00000000000E+00 0. -1.
     999901    1    3    3    0    0  0.70573142619E-01 -0.82993613598E-01 -0.55506375116E-01  0.88845341242E+00  0.88000000000E+00 0.  1.
        -11    1    4    4    0    0 -0.30087714630E-01  0.18190677182E-01  0.29020503914E-01  0.45591908014E-01  0.51100000000E-03 0. -1.
         11    1    4    4    0    0 -0.49010813454E-01  0.54676706845E-01  0.45746691961E-01  0.86513715983E-01  0.51100000000E-03 0.  1.
</event>
<event>
 8    1  0.1088021E+005  0.1043930E+01  0.7957747E-01            NaN
         13   -1    0    0    0    0  0.00000000000E+00  0.00000000000E+00  0.74505805969E-08  0.10566000000E+00  0.10566000000E+00 0.  1.
     999900   -1    0    0    0    0 -0.00000000000E+00 -0.00000000000E+00 -0.74505805969E-08  0.93827000000E+00  0.93827000000E+00 0.  1.
     999902    2    1    2    0    0  0.45576144531E-02 -0.25815553499E-01  0.47375325761E-02  0.10172905768E+01  0.10169417185E+01 0.  0.
     999903    2    3    3    0    0 -0.81918703688E-01  0.92481065873E-01 -0.38569814840E-02  0.12513245776E+00  0.19489333477E-01 0.  0.
         14    1    1    2    0    0 -0.45576144531E-02  0.25815553499E-01 -0.47375325761E-02  0.26639423171E-01  0.00000000000E+00 0. -1.
     999901    1    3    3    0    0  0.86476318141E-01 -0.11829661937E+00  0.85945140600E-02  0.89215811907E+00  0.88000000000E+00 0. -1.
        -11    1    4    4    0    0 -0.30068440105E-01  0.45251185310E-01 -0.77683731746E-02  0.54885240321E-01  0.51100000000E-03 0. -1.
         11    1    4    4    0    0 -0.51850263583E-01  0.47229880562E-01  0.39113916906E-02  0.70247217436E-01  0.51100000000E-03 0.  1.
</event>
<event>
 8    1  0.1088021E+005  0.1043930E+01  0.7957747E-01            NaN
         13   -1    0    0    0    0  0.00000000000E+00  0.00000000000E+00  0.74505805969E-08  0.10566000000E+00  0.10566000000E+00 0.  1.
     999900   -1    0    0    0    0 -0.00000000000E+00 -0.00000000000E+00 -0.74505805969E-08  0.93827000000E+00  0.93827000000E+00 0. -1.
     999902    2    1    2    0    0 -0.20668119703E-01  0.11864189712E-01  0.96413668504E-03  0.10200792195E+01  0.10198003503E+01 0.  0.
     999903    2    3    3    0    0  0.52953974160E-01  0.90056945834E-01 -0.75298164588E-01  0.13027572526E+00  0.19686902487E-01 0.  0.
         14    1    1    2    0    0  0.20668119703E-01 -0.11864189712E-01 -0.96413668504E-03  0.23850780472E-01  0.00000000000E+00 0. -1.
     999901    1    3    3    0    0 -0.73622093863E-01 -0.78192756122E-01  0.76262301273E-01  0.88980349427E+00  0.88000000000E+00 0.  1.
        -11    1    4    4    0    0  0.33883893302E-01  0.38279173027E-01 -0.36916454040E-01  0.63059487889E-01  0.51100000000E-03 0. -1.
         11    1    4    4    0    0  0.19070080858E-01  0.51777772808E-01 -0.38381710548E-01  0.67216237372E-01  0.51100000000E-03 0.  1.
</event>
<event>
 8    1  0.1088021E+005  0.1043930E+01  0.7957747E-01            NaN
         13   -1    0    0    0    0  0.00000000000E+00  0.00000000000E+00  0.74505805969E-08  0.10566000000E+00  0.10566000000E+00 0.  1.
     999900   -1    0    0    0    0 -0.00000000000E+00 -0.00000000000E+00 -0.74505805969E-08  0.93827000000E+00  0.93827000000E+00 0. -1.
     999902    2    1    2    0    0 -0.23302896851E-01  0.12236480890E-02 -0.28980515349E-02  0.10204157273E+01  0.10201447621E+01 0.  0.
     999903    2    3    3    0    0 -0.33763866145E-01 -0.12152706461E+00 -0.30897798277E-01  0.13139314316E+00  0.20016444308E-01 0.  0.
         14    1    1    2    0    0  0.23302896851E-01 -0.12236480890E-02  0.28980515349E-02  0.23514272665E-01  0.00000000000E+00 0.  1.
     999901    1    3    3    0    0  0.10460969295E-01  0.12275071270E+00  0.27999746742E-01  0.88902258417E+00  0.88000000000E+00 0.  1.
        -11    1    4    4    0    0 -0.72035946089E-02 -0.19131720225E-01 -0.12649540643E-01  0.24045508801E-01  0.51100000000E-03 0.  1.
         11    1    4    4    0    0 -0.26560271536E-01 -0.10239534438E+00 -0.18248257634E-01  0.10734763436E+00  0.51100000000E-03 0. -1.
</event>
<event>
 8    1  0.1088021E+005  0.1043930E+01  0.7957747E-01            NaN
         13   -1    0    0    0    0  0.00000000000E+00  0.00000000000E+00  0.74505805969E-08  0.10566000000E+00  0.10566000000E+00 0. -1.
     999900   -1    0    0    0    0 -0.00000000000E+00 -0.00000000000E+00 -0.74505805969E-08  0.93827000000E+00  0.93827000000E+00 0. -1.
     999902    2    1    2    0    0 -0.21808332317E-01  0.71610070879E-02 -0.42110034891E-02  0.10205929922E+01  0.10203261439E+01 0.  0.
     999903    2    3    3    0    0  0.40588089205E-01 -0.11240994171E+00 -0.45514618358E-01  0.12935985000E+00  0.19467982097E-01 0.  0.
         14    1    1    2    0    0  0.21808332317E-01 -0.71610070879E-02  0.42110034891E-02  0.23337007763E-01  0.00000000000E+00 0. -1.
     999901    1    3    3    0    0 -0.62396421521E-01  0.11957094880E+00  0.41303614869E-01  0.89123314223E+00  0.88000000000E+00 0.  1.
        -11    1    4    4    0    0  0.39675272295E-01 -0.88170072124E-01 -0.33869600716E-01  0.10244754669E+00  0.51100000000E-03 0.  1.
         11    1    4    4    0    0  0.91281690938E-03 -0.24239869590E-01 -0.11645017642E-01  0.26912303308E-01  0.51100000000E-03 0. -1.
</event>
<event>
 8    1  0.1088021E+005  0.1043930E+01  0.7957747E-01            NaN
         13   -1    0    0    0    0  0.00000000000E+00  0.00000000000E+00  0.74505805969E-08  0.10566000000E+00  0.10566000000E+00 0. -1.
     999900   -1    0    0    0    0 -0.00000000000E+00 -0.00000000000E+00 -0.74505805969E-08  0.93827000000E+00  0.93827000000E+00 0. -1.
     999902    2    1    2    0    0  0.87026690428E-02 -0.21180155970E-01  0.18435432597E-01  0.10145327105E+01  0.10141067104E+01 0.  0.
     999903    2    3    3    0    0  0.85105122143E-01  0.51139083690E-01 -0.71095394216E-01  0.12375598414E+00  0.20072389880E-01 0.  0.
         14    1    1    2    0    0 -0.87026690428E-02  0.21180155970E-01 -0.18435432597E-01  0.29397289508E-01  0.00000000000E+00 0.  1.
     999901    1    3    3    0    0 -0.76402453100E-01 -0.72319239661E-01  0.89530826813E-01  0.89077672635E+00  0.88000000000E+00 0.  1.
        -11    1    4    4    0    0  0.72919344057E-01  0.50872320744E-01 -0.64856264972E-01  0.11005371408E+00  0.51100000000E-03 0. -1.
         11    1    4    4    0    0  0.12185778085E-01  0.26676294668E-03 -0.62391292441E-02  0.13702270058E-01  0.51100000000E-03 0.  1.
</event>
<event>
 8    1  0.1088021E+005  0.1043930E+01  0.7957747E-01            NaN
         13   -1    0    0    0    0  0.00000000000E+00  0.00000000000E+00  0.74505805969E-08  0.10566000000E+00  0.10566000000E+00 0. -1.
     999900   -1    0    0    0    0 -0.00000000000E+00 -0.00000000000E+00 -0.74505805969E-08  0.93827000000E+00  0.93827000000E+00 0.  1.
     999902    2    1    2    0    0  0.14238183719E-01 -0.12523316782E-01 -0.14182984301E-01  0.10202505494E+01  0.10199757189E+01 0.  0.
     999903    2    3    3    0    0 -0.64348358034E-02 -0.10954315450E+00  0.68311539991E-01  0.13084312350E+00  0.20306320720E-01 0.  0.
         14    1    1    2    0    0 -0.14238183719E-01  0.12523316782E-01  0.14182984301E-01  0.23679450638E-01  0.00000000000E+00 0. -1.
     999901    1    3    3    0    0  0.20673019522E-01  0.97019837717E-01 -0.82494524292E-01  0.88940742587E+00  0.88000000000E+00 0. -1.
        -11    1    4    4    0    0 -0.15146027745E-02 -0.67684711978E-01  0.30647419974E-01  0.74317156358E-01  0.51100000000E-03 0. -1.
         11    1    4    4    0    0 -0.49202330289E-02 -0.41858442520E-01  0.37664120017E-01  0.56525967138E-01  0.51100000000E-03 0.  1.
</event>
<event>
 8    1  0.1088021E+005  0.1043930E+01  0.7957747E-01            NaN
         13   -1    0    0    0    0  0.00000000000E+00  0.00000000000E+00  0.74505805969E-08  0.10566000000E+00  0.10566000000E+00 0. -1.
     999900   -1    0    0    0    0 -0.00000000000E+00 -0.00000000000E+00 -0.74505805969E-08  0.93827000000E+00  0.93827000000E+00 0. -1.
     999902    2    1    2    0    0 -0.77283852168E-02 -0.22173013901E-01  0.46786684693E-02  0.10199871426E+01  0.10197060903E+01 0.  0.
     999903    2    3    3    0    0 -0.90438090608E-01  0.85925833760E-01 -0.22666228783E-01  0.12910331196E+00  0.24323036219E-01 0.  0.
         14    1    1    2    0    0  0.77283852168E-02  0.22173013901E-01 -0.46786684693E-02  0.23942857436E-01  0.00000000000E+00 0.  1.
     999901    1    3    3    0    0  0.82709705391E-01 -0.10809884766E+00  0.27344897252E-01  0.89088383061E+00  0.88000000000E+00 0.  1.
        -11    1    4    4    0    0 -0.46638895985E-01  0.29701133344E-01 -0.15753066512E-01  0.57495775203E-01  0.51100000000E-03 0. -1.
         11    1    4    4    0    0 -0.43799194623E-01  0.56224700416E-01 -0.69131622713E-02  0.71607536754E-01  0.51100000000E-03 0.  1.
</event>
<event>
 8    1  0.1088021E+005  0.1043930E+01  0.7957747E-01            NaN
         13   -1    0    0    0    0  0.00000000000E+00  0.00000000000E+00  0.74505805969E-08  0.10566000000E+00  0.10566000000E+00 0.  1.
     999900   -1    0    0    0    0 -0.00000000000E+00 -0.00000000000E+00 -0.74505805969E-08  0.93827000000E+00  0.93827000000E+00 0.  1.
     999902    2    1    2    0    0 -0.12740379412E-01  0.13308699308E-01  0.13702255806E-01  0.10209693694E+01  0.10207111553E+01 0.  0.
     999903    2    3    3    0    0  0.25472464023E-01  0.76892332906E-01  0.10436906437E+00  0.13320612951E+00  0.17020401231E-01 0.  0.
         14    1    1    2    0    0  0.12740379412E-01 -0.13308699308E-01 -0.13702255806E-01  0.22960630632E-01  0.00000000000E+00 0. -1.
     999901    1    3    3    0    0 -0.38212843436E-01 -0.63583633598E-01 -0.90666808567E-01  0.88776323986E+00  0.88000000000E+00 0.  1.
        -11    1    4    4    0    0  0.16230035876E-01  0.67120592138E-01  0.83268487673E-01  0.10817804821E+00  0.51100000000E-03 0. -1.
         11    1    4    4    0    0  0.92424281472E-02  0.97717407683E-02  0.21100576701E-01  0.25028081305E-01  0.51100000000E-03 0.  1.
</event>
<event>
 8    1  0.1088021E+005  0.1043930E+01  0.7957747E-01            NaN
         13   -1    0    0    0    0  0.00000000000E+00  0.00000000000E+00  0.74505805969E-08  0.10566000000E+00  0.10566000000E+00 0.  1.
     999900   -1    0    0    0    0 -0.00000000000E+00 -0.00000000000E+00 -0.74505805969E-08  0.93827000000E+00  0.93827000000E+00 0.  1.
     999902    2    1    2    0    0 -0.20614198236E-01  0.19721162898E-01 -0.55178160342E-02  0.10148728885E+01  0.10144568320E+01 0.  0.
     999903    2    3    3    0    0  0.63349780224E-01  0.30234453602E-01  0.10106752794E+00  0.12441182000E+00  0.18339545034E-01 0.  0.
         14    1    1    2    0    0  0.20614198236E-01 -0.19721162898E-01  0.55178160342E-02  0.29057111501E-01  0.00000000000E+00 0. -1.
     999901    1    3    3    0    0 -0.83963978460E-01 -0.10513290704E-01 -0.10658534398E+00  0.89046106850E+00  0.88000000000E+00 0.  1.
        -11    1    4    4    0    0  0.19948514590E-01  0.11216319943E-02  0.33213518395E-01  0.38763387595E-01  0.51100000000E-03 0.  1.
         11    1    4    4    0    0  0.43401265633E-01  0.29112821607E-01  0.67854009550E-01  0.85648432405E-01  0.51100000000E-03 0. -1.
</event>
<event>
 8    1  0.1088021E+005  0.1043930E+01  0.7957747E-01            NaN
         13   -1    0    0    0    0  0.00000000000E+00  0.00000000000E+00  0.74505805969E-08  0.10566000000E+00  0.10566000000E+00 0. -1.
     999900   -1    0    0    0    0 -0.00000000000E+00 -0.00000000000E+00 -0.74505805969E-08  0.93827000000E+00  0.93827000000E+00 0.  1.
     999902    2    1    2    0    0  0.14243316765E-01  0.13697074735E-01  0.12733457853E-01  0.10204220678E+01  0.10201512503E+01 0.  0.
     999903    2    3    3    0    0  0.31319520531E-01 -0.10615975597E+00 -0.62949187202E-01  0.12891484999E+00  0.20140313364E-01 0.  0.
         14    1    1    2    0    0 -0.14243316765E-01 -0.13697074735E-01 -0.12733457853E-01  0.23507932228E-01  0.00000000000E+00 0.  1.
     999901    1    3    3    0    0 -0.17076203766E-01  0.11985683071E+00  0.75682645055E-01  0.89150721779E+00  0.88000000000E+00 0. -1.
        -11    1    4    4    0    0  0.35126947317E-02 -0.25590791195E-01 -0.63646905933E-02  0.26608232290E-01  0.51100000000E-03 0.  1.
         11    1    4    4    0    0  0.27806825800E-01 -0.80568964779E-01 -0.56584496609E-01  0.10230661769E+00  0.51100000000E-03 0. -1.
</event>
<event>
 8    1  0.1088021E+005  0.1043930E+01  0.7957747E-01            NaN
         13   -1    0    0    0    0  0.00000000000E+00  0.00000000000E+00  0.74505805969E-08  0.10566000000E+00  0.10566000000E+00 0. -1.
     999900   -1    0    0    0    0 -0.00000000000E+00 -0.00000000000E+00 -0.74505805969E-08  0.93827000000E+00  0.93827000000E+00 0. -1.
     999902    2    1    2    0    0 -0.15416647884E-01 -0.62465217564E-02  0.16340461395E-01  0.10206125657E+01  0.10203461699E+01 0.  0.
     999903    2    3    3    0    0  0.89856474593E-01 -0.68177563725E-01  0.63325468392E-01  0.13093539096E+00  0.20287815018E-01 0.  0.
         14    1    1    2    0    0  0.15416647884E-01  0.62465217564E-02 -0.16340461395E-01  0.23317434349E-01  0.00000000000E+00 0.  1.
     999901    1    3    3    0    0 -0.10527312248E+00  0.61931041969E-01 -0.46985006996E-01  0.88967717469E+00  0.88000000000E+00 0. -1.
        -11    1    4    4    0    0  0.28012601587E-01 -0.17370970301E-01  0.89020461964E-02  0.34146215081E-01  0.51100000000E-03 0.  1.
         11    1    4    4    0    0  0.61843873006E-01 -0.50806593424E-01  0.54423422196E-01  0.96789175884E-01  0.51100000000E-03 0. -1.
</event>
<event>
 8    1  0.1088021E+005  0.1043930E+01  0.7957747E-01            NaN
         13   -1    0    0    0    0  0.00000000000E+00  0.00000000000E+00  0.74505805969E-08  0.10566000000E+00  0.10566000000E+00 0.  1.
     999900   -1    0    0    0    0 -0.00000000000E+00 -0.00000000000E+00 -0.74505805969E-08  0.93827000000E+00  0.93827000000E+00 0. -1.
     999902    2    1    2    0    0 -0.88329824027E-02  0.34899984733E-02 -0.21240863881E-01  0.10206625127E+01  0.10203972701E+01 0.  0.
     999903    2    3    3    0    0  0.10759138362E-01  0.11544576778E+00 -0.60886198766E-01  0.13246788421E+00  0.19928040320E-01 0.  0.
         14    1    1    2    0    0  0.88329824027E-02 -0.34899984733E-02  0.21240863881E-01  0.23267487313E-01  0.00000000000E+00 0.  1.
     999901    1    3    3    0    0 -0.19592120764E-01 -0.11195576930E+00  0.39645334886E-01  0.88819462848E+00  0.88000000000E+00 0. -1.
        -11    1    4    4    0    0 -0.36266494835E-02  0.50357482062E-01 -0.32285564301E-01  0.59930354324E-01  0.51100000000E-03 0.  1.
         11    1    4    4    0    0  0.14385787845E-01  0.65088285715E-01 -0.28600634465E-01  0.72537529886E-01  0.51100000000E-03 0. -1.
</event>
<event>
 8    1  0.1088021E+005  0.1043930E+01  0.7957747E-01            NaN
         13   -1    0    0    0    0  0.00000000000E+00  0.00000000000E+00  0.74505805969E-08  0.10566000000E+00  0.10566000000E+00 0. -1.
     999900   -1    0    0    0    0 -0.00000000000E+00 -0.00000000000E+00 -0.74505805969E-08  0.93827000000E+00  0.93827000000E+00 0. -1.
     999902    2    1    2    0    0  0.31680016137E-02  0.67093065085E-02  0.23448217196E-01  0.10193358967E+01  0.10190391555E+01 0.  0.
     999903    2    3    3    0    0  0.67791087768E-01 -0.44937867587E-01  0.10192968308E+00  0.13197863248E+00  0.20338525355E-01 0.  0.
         14    1    1    2    0    0 -0.31680016137E-02 -0.67093065085E-02 -0.23448217196E-01  0.24594103312E-01  0.00000000000E+00 0.  1.
     999901    1    3    3    0    0 -0.64623086154E-01  0.51647174095E-01 -0.78481465887E-01  0.88735726421E+00  0.88000000000E+00 0. -1.
        -11    1    4    4    0    0  0.60846073026E-01 -0.32318205556E-01  0.78271778891E-01  0.10427580498E+00  0.51100000000E-03 0.  1.
         11    1    4    4    0    0  0.69450147423E-02 -0.12619662030E-01  0.23657904192E-01  0.27702827497E-01  0.51100000000E-03 0. -1.
</event>
<event>
 8    1  0.1088021E+005  0.1043930E+01  0.7957747E-01            NaN
         13   -1    0    0    0    0  0.00000000000E+00  0.00000000000E+00  0.74505805969E-08  0.10566000000E+00  0.10566000000E+00 0.  1.
     999900   -1    0    0    0    0 -0.00000000000E+00 -0.00000000000E+00 -0.74505805969E-08  0.93827000000E+00  0.93827000000E+00 0. -1.
     999902    2    1    2    0    0  0.11499475890E-01  0.22395204481E-01  0.10709020371E-02  0.10187321834E+01  0.10184205082E+01 0.  0.
     999903    2    3    3    0    0  0.28823703519E-01  0.95987709331E-01 -0.82813824493E-01  0.13151595668E+00  0.19846186227E-01 0.  0.
         14    1    1    2    0    0 -0.11499475890E-01 -0.22395204481E-01 -0.10709020371E-02  0.25197816585E-01  0.00000000000E+00 0.  1.
     999901    1    3    3    0    0 -0.17324227628E-01 -0.73592504850E-01  0.83884726530E-01  0.88721622673E+00  0.88000000000E+00 0.  1.
        -11    1    4    4    0    0  0.11898338220E-01  0.55349448913E-01 -0.57673570515E-01  0.80818523893E-01  0.51100000000E-03 0. -1.
         11    1    4    4    0    0  0.16925365299E-01  0.40638260418E-01 -0.25140253978E-01  0.50697432789E-01  0.51100000000E-03 0.  1.
</event>
<event>
 8    1  0.1088021E+005  0.1043930E+01  0.7957747E-01            NaN
         13   -1    0    0    0    0  0.00000000000E+00  0.00000000000E+00  0.74505805969E-08  0.10566000000E+00  0.10566000000E+00 0. -1.
     999900   -1    0    0    0    0 -0.00000000000E+00 -0.00000000000E+00 -0.74505805969E-08  0.93827000000E+00  0.93827000000E+00 0.  1.
     999902    2    1    2    0    0  0.29982941158E-02  0.29118306316E-02 -0.23022192911E-01  0.10205314981E+01  0.10202632252E+01 0.  0.
     999903    2    3    3    0    0  0.90782919217E-01  0.29071503592E-01 -0.90710635993E-01  0.13319154395E+00  0.20612548453E-01 0.  0.
         14    1    1    2    0    0 -0.29982941158E-02 -0.29118306316E-02  0.23022192911E-01  0.23398501910E-01  0.00000000000E+00 0. -1.
     999901    1    3    3    0    0 -0.87784625101E-01 -0.26159672961E-01  0.67688443082E-01  0.88733995414E+00  0.88000000000E+00 0. -1.
        -11    1    4    4    0    0  0.26710483950E-01  0.10370716920E-03 -0.19196216425E-01  0.32897059961E-01  0.51100000000E-03 0. -1.
         11    1    4    4    0    0  0.64072435266E-01  0.28967796423E-01 -0.71514419568E-01  0.10029448398E+00  0.51100000000E-03 0.  1.
</event>
<event>
 8    1  0.1088021E+005  0.1043930E+01  0.7957747E-01            NaN
         13   -1    0    0    0    0  0.00000000000E+00  0.00000000000E+00  0.74505805969E-08  0.10566000000E+00  0.10566000000E+00 0. -1.
     999900   -1    0    0    0    0 -0.00000000000E+00 -0.00000000000E+00 -0.74505805969E-08  0.93827000000E+00  0.93827000000E+00 0. -1.
     999902    2    1    2    0    0 -0.23485147261E-01 -0.64979977725E-02 -0.62603798956E-02  0.10187711353E+01  0.10184604350E+01 0.  0.
     999903    2    3    3    0    0  0.94049029541E-01 -0.66100274565E-01 -0.52283777139E-01  0.12776896514E+00  0.19412595058E-01 0.  0.
         14    1    1    2    0    0  0.23485147261E-01  0.64979977725E-02  0.62603798956E-02  0.25158864708E-01  0.00000000000E+00 0. -1.
     999901    1    3    3    0    0 -0.11753417680E+00  0.59602276793E-01  0.46023397243E-01  0.89100217015E+00  0.88000000000E+00 0. -1.
        -11    1    4    4    0    0  0.31250904231E-01 -0.11866468847E-01 -0.18197278716E-01  0.38063554377E-01  0.51100000000E-03 0.  1.
         11    1    4    4    0    0  0.62798125310E-01 -0.54233805718E-01 -0.34086498422E-01  0.89705410767E-01  0.51100000000E-03 0. -1.
</event>
<event>
 8    1  0.1088021E+005  0.1043930E+01  0.7957747E-01            NaN
         13   -1    0    0    0    0  0.00000000000E+00  0.00000000000E+00  0.74505805969E-08  0.10566000000E+00  0.10566000000E+00 0.  1.
     999900   -1    0    0    0    0 -0.00000000000E+00 -0.00000000000E+00 -0.74505805969E-08  0.93827000000E+00  0.93827000000E+00 0.  1.
     999902    2    1    2    0    0 -0.83248502227E-02 -0.19765290267E-02  0.35315952060E-01  0.10075923299E+01  0.10069368784E+01 0.  0.
     999903    2    3    3    0    0 -0.50530126064E-02 -0.10596105278E+00 -0.47091960383E-01  0.11764033674E+00  0.19191624547E-01 0.  0.
         14    1    1    2    0    0  0.83248502227E-02  0.19765290267E-02 -0.35315952060E-01  0.36337670097E-01  0.00000000000E+00 0. -1.
     999901    1    3    3    0    0 -0.32718376162E-02  0.10398452375E+00  0.82407912443E-01  0.88995199316E+00  0.88000000000E+00 0.  1.
        -11    1    4    4    0    0 -0.30003318146E-02 -0.64616499530E-01 -0.38760272434E-01  0.75411629359E-01  0.51100000000E-03 0.  1.
         11    1    4    4    0    0 -0.20526807919E-02 -0.41344553251E-01 -0.83316879492E-02  0.42228707380E-01  0.51100000000E-03 0. -1.
</event>
<event>
 8    1  0.1088021E+005  0.1043930E+01  0.7957747E-01            NaN
         13   -1    0    0    0    0  0.00000000000E+00  0.00000000000E+00  0.74505805969E-08  0.10566000000E+00  0.10566000000E+00 0.  1.
     999900   -1    0    0    0    0 -0.00000000000E+00 -0.00000000000E+00 -0.74505805969E-08  0.93827000000E+00  0.93827000000E+00 0.  1.
     999902    2    1    2    0    0  0.87552925067E-02 -0.14065876503E-01  0.16861708298E-01  0.10202905999E+01  0.10200167092E+01 0.  0.
     999903    2    3    3    0    0  0.17133142382E-01 -0.10282548265E+00  0.81053643472E-01  0.13345969125E+00  0.19369347433E-01 0.  0.
         14    1    1    2    0    0 -0.87552925067E-02  0.14065876503E-01 -0.16861708298E-01  0.23639400064E-01  0.00000000000E+00 0. -1.
     999901    1    3    3    0    0 -0.83778498749E-02  0.88759606144E-01 -0.64191935175E-01  0.88683090868E+00  0.88000000000E+00 0.  1.
        -11    1    4    4    0    0 -0.21896238170E-02 -0.11928119881E-01  0.15725023991E-01  0.19864843238E-01  0.51100000000E-03 0. -1.
         11    1    4    4    0    0  0.19322766199E-01 -0.90897362766E-01  0.65328619481E-01  0.11359484802E+00  0.51100000000E-03 0.  1.
</event>
<event>
 8    1  0.1088021E+005  0.1043930E+01  0.7957747E-01            NaN
         13   -1    0    0    0    0  0.00000000000E+00  0.00000000000E+00  0.74505805969E-08  0.10566000000E+00  0.10566000000E+00 0. -1.
     999900   -1    0    0    0    0 -0.00000000000E+00 -0.00000000000E+00 -0.74505805969E-08  0.93827000000E+00  0.93827000000E+00 0.  1.
     999902    2    1    2    0    0 -0.17675288122E-01  0.28275234448E-02  0.15923622330E-01  0.10199722779E+01  0.10196908724E+01 0.  0.
     999903    2    3    3    0    0 -0.36581652931E-01 -0.60039774533E-02  0.12597975287E+00  0.13287149565E+00  0.20240334653E-01 0.  0.
         14    1    1    2    0    0  0.17675288122E-01 -0.28275234448E-02 -0.15923622330E-01  0.23957722077E-01  0.00000000000E+00 0.  1.
     999901    1    3    3    0    0  0.18906364809E-01  0.88315008982E-02 -0.11005613054E+00  0.88710078227E+00  0.88000000000E+00 0.  1.
        -11    1    4    4    0    0 -0.18876194427E-01  0.20678469822E-02  0.34899150224E-01  0.39734097631E-01  0.51100000000E-03 0. -1.
         11    1    4    4    0    0 -0.17705458504E-01 -0.80718244355E-02  0.91080602646E-01  0.93137398019E-01  0.51100000000E-03 0.  1.
</event>
<event>
 8    1  0.1088021E+005  0.1043930E+01  0.7957747E-01            NaN
         13   -1    0    0    0    0  0.00000000000E+00  0.00000000000E+00  0.74505805969E-08  0.10566000000E+00  0.10566000000E+00 0. -1.
     999900   -1    0    0    0    0 -0.00000000000E+00 -0.00000000000E+00 -0.74505805969E-08  0.93827000000E+00  0.93827000000E+00 0. -1.
     999902    2    1    2    0    0 -0.25456757669E-02  0.12997119850E-01 -0.20730604128E-01  0.10193299281E+01  0.10190330411E+01 0.  0.
     999903    2    3    3    0    0  0.99412748086E-01 -0.76611100591E-01  0.17781826520E-01  0.12809013957E+00  0.18404762547E-01 0.  0.
         14    1    1    2    0    0  0.25456757669E-02 -0.12997119850E-01  0.20730604128E-01  0.24600071890E-01  0.00000000000E+00 0. -1.
     999901    1    3    3    0    0 -0.10195842385E+00  0.89608220441E-01 -0.38512430647E-01  0.89123978854E+00  0.88000000000E+00 0. -1.
        -11    1    4    4    0    0  0.45067394180E-01 -0.35699099844E-01  0.17373993125E-01  0.60063404049E-01  0.51100000000E-03 0.  1.
         11    1    4    4    0    0  0.54345353906E-01 -0.40912000747E-01  0.40783339459E-03  0.68026735519E-01  0.51100000000E-03 0. -1.
</event>
<event>
 8    1  0.1088021E+005  0.1043930E+01  0.7957747E-01            NaN
         13   -1    0    0    0    0  0.00000000000E+00  0.00000000000E+00  0.74505805969E-08  0.10566000000E+00  0.10566000000E+00 0. -1.
     999900   -1    0    0    0    0 -0.00000000000E+00 -0.00000000000E+00 -0.74505805969E-08  0.93827000000E+00  0.93827000000E+00 0. -1.
     999902    2    1    2    0    0 -0.19975022068E-01 -0.11986390786E-01  0.27170096549E-02  0.10204767015E+01  0.10202071559E+01 0.  0.
     999903    2    3    3    0    0  0.10569409797E+00  0.14433754492E-01  0.69118311566E-01  0.12868082532E+00  0.20045902265E-01 0.  0.
         14    1    1    2    0    0  0.19975022068E-01  0.11986390786E-01 -0.27170096549E-02  0.23453298535E-01  0.00000000000E+00 0. -1.
     999901    1    3    3    0    0 -0.12566912004E+00 -0.26420145278E-01 -0.66401301911E-01  0.89179587614E+00  0.88000000000E+00 0. -1.
        -11    1    4    4    0    0  0.65217099610E-01  0.10388203026E-02  0.34693855899E-01  0.73880132561E-01  0.51100000000E-03 0. -1.
         11    1    4    4    0    0  0.40476998361E-01  0.13394934189E-01  0.34424455667E-01  0.54800692762E-01  0.51100000000E-03 0.  1.
</event>
<event>
 8    1  0.1088021E+005  0.1043930E+01  0.7957747E-01            NaN
         13   -1    0    0    0    0  0.00000000000E+00  0.00000000000E+00  0.74505805969E-08  0.10566000000E+00  0.10566000000E+00 0. -1.
     999900   -1    0    0    0    0 -0.00000000000E+00 -0.00000000000E+00 -0.74505805969E-08  0.93827000000E+00  0.93827000000E+00 0. -1.
     999902    2    1    2    0    0  0.64581429764E-02 -0.15291206910E-01 -0.16368209179E-01  0.10206180526E+01  0.10203517837E+01 0.  0.
     999903    2    3    3    0    0  0.23093505895E-01  0.98443413202E-01 -0.80472690519E-01  0.13083061527E+00  0.20405400164E-01 0.  0.
         14    1    1    2    0    0 -0.64581429764E-02  0.15291206910E-01  0.16368209179E-01  0.23311947392E-01  0.00000000000E+00 0.  1.
     999901    1    3    3    0    0 -0.16635362918E-01 -0.11373462011E+00  0.64104481340E-01  0.88978743734E+00  0.88000000000E+00 0.  1.
        -11    1    4    4    0    0  0.23367562520E-01  0.57233627300E-01 -0.51331974003E-01  0.80355234727E-01  0.51100000000E-03 0.  1.
         11    1    4    4    0    0 -0.27405662501E-03  0.41209785902E-01 -0.29140716516E-01  0.50475380545E-01  0.51100000000E-03 0. -1.
</event>
<event>
 8    1  0.1088021E+005  0.1043930E+01  0.7957747E-01            NaN
         13   -1    0    0    0    0  0.00000000000E+00  0.00000000000E+00  0.74505805969E-08  0.10566000000E+00  0.10566000000E+00 0.  1.
     999900   -1    0    0    0    0 -0.00000000000E+00 -0.00000000000E+00 -0.74505805969E-08  0.93827000000E+00  0.93827000000E+00 0.  1.
     999902    2    1    2    0    0 -0.17906517077E-01 -0.10941042140E-02 -0.17616307663E-01  0.10187869152E+01  0.10184766094E+01 0.  0.
     999903    2    3    3    0    0  0.37688081927E-01  0.95513016352E-01 -0.76487488603E-01  0.12980462565E+00  0.21348937085E-01 0.  0.
         14    1    1    2    0    0  0.17906517077E-01  0.10941042140E-02  0.17616307663E-01  0.25143084806E-01  0.00000000000E+00 0.  1.
     999901    1    3    3    0    0 -0.55594599004E-01 -0.96607120566E-01  0.58871180939E-01  0.88898228955E+00  0.88000000000E+00 0.  1.
        -11    1    4    4    0    0  0.22452268151E-01  0.48631396810E-01 -0.52409668534E-01  0.74940987301E-01  0.51100000000E-03 0. -1.
         11    1    4    4    0    0  0.15235813777E-01  0.46881619542E-01 -0.24077820068E-01  0.54863638346E-01  0.51100000000E-03 0.  1.
</event>
<event>
 8    1  0.1088021E+005  0.1043930E+01  0.7957747E-01            NaN
         13   -1    0    0    0    0  0.00000000000E+00  0.00000000000E+00  0.74505805969E-08  0.10566000000E+00  0.10566000000E+00 0. -1.
     999900   -1    0    0    0    0 -0.00000000000E+00 -0.00000000000E+00 -0.74505805969E-08  0.93827000000E+00  0.93827000000E+00 0. -1.
     999902    2    1    2    0    0  0.28598596876E-02 -0.32574505367E-02  0.23835103429E-01  0.10197039410E+01  0.10194161198E+01 0.  0.
     999903    2    3    3    0    0  0.81314390912E-01 -0.71976305509E-01  0.72773886594E-01  0.13219484298E+00  0.19667720132E-01 0.  0.
         14    1    1    2    0    0 -0.28598596876E-02  0.32574505367E-02 -0.23835103429E-01  0.24226059046E-01  0.00000000000E+00 0.  1.
     999901    1    3    3    0    0 -0.78454531224E-01  0.68718854972E-01 -0.48938783165E-01  0.88750909798E+00  0.88000000000E+00 0. -1.
        -11    1    4    4    0    0  0.27728034422E-01 -0.28225847243E-01  0.37604523835E-01  0.54588494020E-01  0.51100000000E-03 0. -1.
         11    1    4    4    0    0  0.53586356489E-01 -0.43750458267E-01  0.35169362759E-01  0.77606348955E-01  0.51100000000E-03 0.  1.
</event>
<event>
 8    1  0.1088021E+005  0.1043930E+01  0.7957747E-01            NaN
         13   -1    0    0    0    0  0.00000000000E+00  0.00000000000E+00  0.74505805969E-08  0.10566000000E+00  0.10566000000E+00 0.  1.
     999900   -1    0    0    0    0 -0.00000000000E+00 -0.00000000000E+00 -0.74505805969E-08  0.93827000000E+00  0.93827000000E+00 0.  1.
     999902    2    1    2    0    0  0.62260286790E-03 -0.57219879605E-02 -0.23794050140E-01  0.10194496895E+01  0.10191557211E+01 0.  0.
     999903    2    3    3    0    0  0.55431575477E-01  0.41764336599E-01  0.10474367279E+00  0.12715998277E+00  0.19532149371E-01 0.  0.
         14    1    1    2    0    0 -0.62260286790E-03  0.57219879605E-02  0.23794050140E-01  0.24480310509E-01  0.00000000000E+00 0.  1.
     999901    1    3    3    0    0 -0.54808972609E-01 -0.47486324560E-01 -0.12853772293E+00  0.89228970672E+00  0.88000000000E+00 0.  1.
        -11    1    4    4    0    0  0.72871020552E-02  0.48995059171E-02  0.28006499014E-01  0.29355274187E-01  0.51100000000E-03 0. -1.
         11    1    4    4    0    0  0.48144473421E-01  0.36864830682E-01  0.76737173772E-01  0.97804708587E-01  0.51100000000E-03 0.  1.
</event>
<event>
 8    1  0.1088021E+005  0.1043930E+01  0.7957747E-01            NaN
         13   -1    0    0    0    0  0.00000000000E+00  0.00000000000E+00  0.74505805969E-08  0.10566000000E+00  0.10566000000E+00 0.  1.
     999900   -1    0    0    0    0 -0.00000000000E+00 -0.00000000000E+00 -0.74505805969E-08  0.93827000000E+00  0.93827000000E+00 0. -1.
     999902    2    1    2    0    0 -0.13559116470E-01  0.16149027717E-01 -0.85398514172E-02  0.10211798396E+01  0.10209263906E+01 0.  0.
     999903    2    3    3    0    0  0.37258812042E-01  0.11882299245E+00 -0.42636492809E-01  0.13309933321E+00  0.19759538768E-01 0.  0.
         14    1    1    2    0    0  0.13559116470E-01 -0.16149027717E-01  0.85398514172E-02  0.22750160393E-01  0.00000000000E+00 0.  1.
     999901    1    3    3    0    0 -0.50817928512E-01 -0.10267396473E+00  0.34096641392E-01  0.88808050640E+00  0.88000000000E+00 0.  1.
        -11    1    4    4    0    0  0.12170759900E-01  0.68976941843E-01 -0.19683334332E-01  0.72757409753E-01  0.51100000000E-03 0.  1.
         11    1    4    4    0    0  0.25088052142E-01  0.49846050605E-01 -0.22953158477E-01  0.60341923455E-01  0.51100000000E-03 0. -1.
</event>
<event>
 8    1  0.1088021E+005  0.1043930E+01  0.7957747E-01            NaN
         13   -1    0    0    0    0  0.00000000000E+00  0.00000000000E+00  0.74505805969E-08  0.10566000000E+00  0.10566000000E+00 0. -1.
     999900   -1    0    0    0    0 -0.00000000000E+00 -0.00000000000E+00 -0.74505805969E-08  0.93827000000E+00  0.93827000000E+00 0.  1.
     999902    2    1    2    0    0  0.29223721416E-02 -0.12570959701E-01  0.35781371629E-01  0.10058921788E+01  0.10051727212E+01 0.  0.
     999903    2    3    3    0    0 -0.11348240932E+00 -0.26963896364E-01 -0.11689720420E-04  0.11738873309E+00  0.13221406475E-01 0.  0.
         14    1    1    2    0    0 -0.29223721416E-02  0.12570959701E-01 -0.35781371629E-01  0.38037821209E-01  0.00000000000E+00 0.  1.
     999901    1    3    3    0    0  0.11640478146E+00  0.14392936663E-01  0.35793061349E-01  0.88850344570E+00  0.88000000000E+00 0. -1.
        -11    1    4    4    0    0 -0.83130871085E-01 -0.24092688713E-01  0.39374215488E-02  0.86642736488E-01  0.51100000000E-03 0. -1.
         11    1    4    4    0    0 -0.30351538233E-01 -0.28712076511E-02 -0.39491112692E-02  0.30745996606E-01  0.51100000000E-03 0.  1.
</event>
<event>
 8    1  0.1088021E+005  0.1043930E+01  0.7957747E-01            NaN
         13   -1    0    0    0    0  0.00000000000E+00  0.00000000000E+00  0.74505805969E-08  0.10566000000E+00  0.10566000000E+00 0.  1.
     999900   -1    0    0    0    0 -0.00000000000E+00 -0.00000000000E+00 -0.74505805969E-08  0.93827000000E+00  0.93827000000E+00 0. -1.
     999902    2    1    2    0    0  0.87952644054E-02 -0.10119584023E-01  0.20188463165E-01  0.10196949695E+01  0.10194069326E+01 0.  0.
     999903    2    3    3    0    0  0.57101163570E-01 -0.20988329414E-01  0.11676706253E+00  0.13302760497E+00  0.18993260387E-01 0.  0.
         14    1    1    2    0    0 -0.87952644054E-02  0.10119584023E-01 -0.20188463165E-01  0.24235030467E-01  0.00000000000E+00 0. -1.
     999901    1    3    3    0    0 -0.48305899164E-01  0.10868745391E-01 -0.96578599366E-01  0.88666736456E+00  0.88000000000E+00 0. -1.
        -11    1    4    4    0    0  0.36981343584E-01 -0.21980193261E-01  0.70954841964E-01  0.82979511858E-01  0.51100000000E-03 0. -1.
         11    1    4    4    0    0  0.20119819986E-01  0.99186384778E-03  0.45812220567E-01  0.50048093115E-01  0.51100000000E-03 0.  1.
</event>
<event>
 8    1  0.1088021E+005  0.1043930E+01  0.7957747E-01            NaN
         13   -1    0    0    0    0  0.00000000000E+00  0.00000000000E+00  0.74505805969E-08  0.10566000000E+00  0.10566000000E+00 0.  1.
     999900   -1    0    0    0    0 -0.00000000000E+00 -0.00000000000E+00 -0.74505805969E-08  0.93827000000E+00  0.93827000000E+00 0. -1.
     999902    2    1    2    0    0  0.21504288570E-01 -0.80323601881E-02 -0.84245796817E-02  0.10194774586E+01  0.10191841648E+01 0.  0.
     999903    2    3    3    0    0 -0.11411356391E+00 -0.51668781169E-01 -0.16888911191E-01  0.12797985119E+00  0.20050899549E-01 0.  0.
         14    1    1    2    0    0 -0.21504288570E-01  0.80323601881E-02  0.84245796817E-02  0.24452541379E-01  0.00000000000E+00 0. -1.
     999901    1    3    3    0    0  0.13561785248E+00  0.43636420981E-01  0.84643315090E-02  0.89149760743E+00  0.88000000000E+00 0. -1.
        -11    1    4    4    0    0 -0.70958715607E-01 -0.22084470623E-01 -0.13603521886E-01  0.75552498912E-01  0.51100000000E-03 0. -1.
         11    1    4    4    0    0 -0.43154848307E-01 -0.29584310546E-01 -0.32853893051E-02  0.52427352277E-01  0.51100000000E-03 0.  1.
</event>
<event>
 8    1  0.1088021E+005  0.1043930E+01  0.7957747E-01            NaN
         13   -1    0    0    0    0  0.00000000000E+00  0.00000000000E+00  0.74505805969E-08  0.10566000000E+00  0.10566000000E+00 0.  1.
     999900   -1    0    0    0    0 -0.00000000000E+00 -0.00000000000E+00 -0.74505805969E-08  0.93827000000E+00  0.93827000000E+00 0.  1.
     999902    2    1    2    0    0 -0.13426122176E-01 -0.11445745967E-01 -0.14988358417E-01  0.10207801243E+01  0.10205175870E+01 0.  0.
     999903    2    3    3    0    0 -0.23144858509E-01  0.10517748940E+00  0.68324383107E-01  0.12913196175E+00  0.20220125264E-01 0.  0.
         14    1    1    2    0    0  0.13426122176E-01  0.11445745967E-01  0.14988358417E-01  0.23149875712E-01  0.00000000000E+00 0.  1.
     999901    1    3    3    0    0  0.97187363331E-02 -0.11662323537E+00 -0.83312741525E-01  0.89164816254E+00  0.88000000000E+00 0.  1.
        -11    1    4    4    0    0 -0.16252432946E-01  0.73372327169E-01  0.36258095600E-01  0.83441899477E-01  0.51100000000E-03 0.  1.
         11    1    4    4    0    0 -0.68924255632E-02  0.31805162231E-01  0.32066287507E-01  0.45690062270E-01  0.51100000000E-03 0. -1.
</event>
<event>
 8    1  0.1088021E+005  0.1043930E+01  0.7957747E-01            NaN
         13   -1    0    0    0    0  0.00000000000E+00  0.00000000000E+00  0.74505805969E-08  0.10566000000E+00  0.10566000000E+00 0.  1.
     999900   -1    0    0    0    0 -0.00000000000E+00 -0.00000000000E+00 -0.74505805969E-08  0.93827000000E+00  0.93827000000E+00 0.  1.
     999902    2    1    2    0    0 -0.18019401564E-02 -0.52776928317E-02  0.23275738859E-01  0.10199954841E+01  0.10197146300E+01 0.  0.
     999903    2    3    3    0    0 -0.48643286486E-01  0.10915904824E-01  0.12172578743E+00  0.13311964368E+00  0.20453506074E-01 0.  0.
         14    1    1    2    0    0  0.18019401564E-02  0.52776928317E-02 -0.23275738859E-01  0.23934515859E-01  0.00000000000E+00 0. -1.
     999901    1    3    3    0    0  0.46841346330E-01 -0.16193597655E-01 -0.98450048567E-01  0.88687584046E+00  0.88000000000E+00 0.  1.
        -11    1    4    4    0    0 -0.22734923014E-01 -0.50316165001E-02  0.58027236397E-01  0.62526915596E-01  0.51100000000E-03 0.  1.
         11    1    4    4    0    0 -0.25908363472E-01  0.15947521324E-01  0.63698551029E-01  0.70592728084E-01  0.51100000000E-03 0. -1.
</event>
<event>
 8    1  0.1088021E+005  0.1043930E+01  0.7957747E-01            NaN
         13   -1    0    0    0    0  0.00000000000E+00  0.00000000000E+00  0.74505805969E-08  0.10566000000E+00  0.10566000000E+00 0. -1.
     999900   -1    0    0    0    0 -0.00000000000E+00 -0.00000000000E+00 -0.74505805969E-08  0.93827000000E+00  0.93827000000E+00 0. -1.
     999902    2    1    2    0    0  0.45539415287E-02 -0.12633672990E-01 -0.18643877912E-01  0.10209530058E+01  0.10206944194E+01 0.  0.
     999903    2    3    3    0    0  0.12459603873E+00 -0.26230132485E-01 -0.32327173719E-01  0.13259373089E+00  0.17996071612E-01 0.  0.
         14    1    1    2    0    0 -0.45539415287E-02  0.12633672990E-01  0.18643877912E-01  0.22976994152E-01  0.00000000000E+00 0. -1.
     999901    1    3    3    0    0 -0.12004209721E+00  0.13596459495E-01  0.13683295808E-01  0.88835927495E+00  0.88000000000E+00 0. -1.
        -11    1    4    4    0    0  0.87208008369E-01 -0.14897177935E-01 -0.30123428409E-01  0.93460391045E-01  0.51100000000E-03 0. -1.
         11    1    4    4    0    0  0.37388030365E-01 -0.11332954550E-01 -0.22037453099E-02  0.39133339850E-01  0.51100000000E-03 0.  1.
</event>
<event>
 8    1  0.1088021E+005  0.1043930E+01  0.7957747E-01            NaN
         13   -1    0    0    0    0  0.00000000000E+00  0.00000000000E+00  0.74505805969E-08  0.10566000000E+00  0.10566000000E+00 0.  1.
     999900   -1    0    0    0    0 -0.00000000000E+00 -0.00000000000E+00 -0.74505805969E-08  0.93827000000E+00  0.93827000000E+00 0.  1.
     999902    2    1    2    0    0  0.23113080895E-01 -0.67154676610E-02 -0.12476611056E-02  0.10198287828E+01  0.10195439556E+01 0.  0.
     999903    2    3    3    0    0 -0.48849902506E-01 -0.10022714423E+00  0.62851405841E-01  0.12964240058E+00  0.20616968643E-01 0.  0.
         14    1    1    2    0    0 -0.23113080895E-01  0.67154676610E-02  0.12476611056E-02  0.24101217243E-01  0.00000000000E+00 0. -1.
     999901    1    3    3    0    0  0.71962983401E-01  0.93511676569E-01 -0.64099066946E-01  0.89018638218E+00  0.88000000000E+00 0. -1.
        -11    1    4    4    0    0 -0.29747431021E-01 -0.49377792616E-01  0.22120537836E-01  0.61746703322E-01  0.51100000000E-03 0.  1.
         11    1    4    4    0    0 -0.19102471485E-01 -0.50849351614E-01  0.40730868005E-01  0.67895697256E-01  0.51100000000E-03 0. -1.
</event>
<event>
 8    1  0.1088021E+005  0.1043930E+01  0.7957747E-01            NaN
         13   -1    0    0    0    0  0.00000000000E+00  0.00000000000E+00  0.74505805969E-08  0.10566000000E+00  0.10566000000E+00 0. -1.
     999900   -1    0    0    0    0 -0.00000000000E+00 -0.00000000000E+00 -0.74505805969E-08  0.93827000000E+00  0.93827000000E+00 0.  1.
     999902    2    1    2    0    0  0.15868369904E-01 -0.17797184995E-01 -0.82760931795E-03  0.10200714608E+01  0.10197924079E+01 0.  0.
     999903    2    3    3    0    0  0.22742114979E-01 -0.80914089588E-01 -0.10001805591E+00  0.13222590172E+00  0.20390779538E-01 0.  0.
         14    1    1    2    0    0 -0.15868369904E-01  0.17797184995E-01  0.82760931795E-03  0.23858539233E-01  0.00000000000E+00 0. -1.
     999901    1    3    3    0    0 -0.68737450750E-02  0.63116904593E-01  0.99190446596E-01  0.88784555904E+00  0.88000000000E+00 0. -1.
        -11    1    4    4    0    0  0.14306194388E-01 -0.38251465439E-01 -0.33861218730E-01  0.53053605542E-01  0.51100000000E-03 0. -1.
         11    1    4    4    0    0  0.84359205907E-02 -0.42662624150E-01 -0.66156837184E-01  0.79172296182E-01  0.51100000000E-03 0.  1.
</event>
<event>
 8    1  0.1088021E+005  0.1043930E+01  0.7957747E-01            NaN
         13   -1    0    0    0    0  0.00000000000E+00  0.00000000000E+00  0.74505805969E-08  0.10566000000E+00  0.10566000000E+00 0. -1.
     999900   -1    0    0    0    0 -0.00000000000E+00 -0.00000000000E+00 -0.74505805969E-08  0.93827000000E+00  0.93827000000E+00 0.  1.
     999902    2    1    2    0    0 -0.52259830738E-02 -0.11135735053E-01  0.19406673048E-01  0.10209531757E+01  0.10206945932E+01 0.  0.
     999903    2    3    3    0    0  0.97815248632E-01  0.18416162424E-02  0.86785708337E-01  0.13228797361E+00  0.19928230610E-01 0.  0.
         14    1    1    2    0    0  0.52259830738E-02  0.11135735053E-01 -0.19406673048E-01  0.22976824260E-01  0.00000000000E+00 0.  1.
     999901    1    3    3    0    0 -0.10304123171E+00 -0.12977351296E-01 -0.67379035289E-01  0.88866520213E+00  0.88000000000E+00 0.  1.
        -11    1    4    4    0    0  0.54042018789E-01 -0.33342377746E-02  0.35914832067E-01  0.64975327777E-01  0.51100000000E-03 0. -1.
         11    1    4    4    0    0  0.43773229843E-01  0.51758540170E-02  0.50870876270E-01  0.67312645834E-01  0.51100000000E-03 0.  1.
</event>
<event>
 8    1  0.1088021E+005  0.1043930E+01  0.7957747E-01            NaN
         13   -1    0    0    0    0  0.00000000000E+00  0.00000000000E+00  0.74505805969E-08  0.10566000000E+00  0.10566000000E+00 0. -1.
     999900   -1    0    0    0    0 -0.00000000000E+00 -0.00000000000E+00 -0.74505805969E-08  0.93827000000E+00  0.93827000000E+00 0. -1.
     999902    2    1    2    0    0  0.11232762842E-01 -0.24740226770E-01  0.69428938855E-03  0.10167503050E+01  0.10163869573E+01 0.  0.
     999903    2    3    3    0    0  0.35992901435E-01  0.21962867264E-01 -0.11820357290E+00  0.12718246325E+00  0.20626144060E-01 0.  0.
         14    1    1    2    0    0 -0.11232762842E-01  0.24740226770E-01 -0.69428938855E-03  0.27179694984E-01  0.00000000000E+00 0.  1.
     999901    1    3    3    0    0 -0.24760138593E-01 -0.46703094034E-01  0.11889786229E+00  0.88956784177E+00  0.88000000000E+00 0.  1.
        -11    1    4    4    0    0  0.18603742933E-01  0.34964600747E-02 -0.72254056764E-01  0.74694272364E-01  0.51100000000E-03 0.  1.
         11    1    4    4    0    0  0.17389158501E-01  0.18466407190E-01 -0.45949516136E-01  0.52488190881E-01  0.51100000000E-03 0. -1.
</event>
<event>
 8    1  0.1088021E+005  0.1043930E+01  0.7957747E-01            NaN
         13   -1    0    0    0    0  0.00000000000E+00  0.00000000000E+00  0.74505805969E-08  0.10566000000E+00  0.10566000000E+00 0.  1.
     999900   -1    0    0    0    0 -0.00000000000E+00 -0.00000000000E+00 -0.74505805969E-08  0.93827000000E+00  0.93827000000E+00 0.  1.
     999902    2    1    2    0    0 -0.11662857584E-01 -0.17190340346E-01 -0.11118771528E-01  0.10203682274E+01  0.10200961535E+01 0.  0.
     999903    2    3    3    0    0 -0.62691818485E-02  0.10432223538E+00  0.71551730123E-01  0.12816376111E+00  0.19592553247E-01 0.  0.
         14    1    1    2    0    0  0.11662857584E-01  0.17190340346E-01  0.11118771528E-01  0.23561772610E-01  0.00000000000E+00 0.  1.
     999901    1    3    3    0    0 -0.53936757359E-02 -0.12151257573E+00 -0.82670501651E-01  0.89220446628E+00  0.88000000000E+00 0.  1.
        -11    1    4    4    0    0 -0.10578359789E-01  0.30778751619E-01  0.24639641567E-01  0.40824089759E-01  0.51100000000E-03 0. -1.
         11    1    4    4    0    0  0.43091779408E-02  0.73543483765E-01  0.46912088556E-01  0.87339671356E-01  0.51100000000E-03 0.  1.
</event>
<event>
 8    1  0.1088021E+005  0.1043930E+01  0.7957747E-01            NaN
         13   -1    0    0    0    0  0.00000000000E+00  0.00000000000E+00  0.74505805969E-08  0.10566000000E+00  0.10566000000E+00 0.  1.
     999900   -1    0    0    0    0 -0.00000000000E+00 -0.00000000000E+00 -0.74505805969E-08  0.93827000000E+00  0.93827000000E+00 0. -1.
     999902    2    1    2    0    0 -0.28428559434E-02  0.54651255880E-02  0.27053172815E-01  0.10161843051E+01  0.10158054530E+01 0.  0.
     999903    2    3    3    0    0  0.98115565798E-01  0.50822750871E-01  0.63144919891E-01  0.12851740173E+00  0.17883662388E-01 0.  0.
         14    1    1    2    0    0  0.28428559434E-02 -0.54651255880E-02 -0.27053172815E-01  0.27745694926E-01  0.00000000000E+00 0. -1.
     999901    1    3    3    0    0 -0.10095842174E+00 -0.45357625283E-01 -0.36091747077E-01  0.88766690335E+00  0.88000000000E+00 0. -1.
        -11    1    4    4    0    0  0.47926605063E-01  0.19331681871E-01  0.20900125870E-01  0.55747195258E-01  0.51100000000E-03 0.  1.
         11    1    4    4    0    0  0.50188960735E-01  0.31491069000E-01  0.42244794021E-01  0.72770206468E-01  0.51100000000E-03 0. -1.
</event>
<event>
 8    1  0.1088021E+005  0.1043930E+01  0.7957747E-01            NaN
         13   -1    0    0    0    0  0.00000000000E+00  0.00000000000E+00  0.74505805969E-08  0.10566000000E+00  0.10566000000E+00 0.  1.
     999900   -1    0    0    0    0 -0.00000000000E+00 -0.00000000000E+00 -0.74505805969E-08  0.93827000000E+00  0.93827000000E+00 0.  1.
     999902    2    1    2    0    0 -0.10369341071E-01 -0.17382381235E-01 -0.15453640736E-01  0.10184646230E+01  0.10181462090E+01 0.  0.
     999903    2    3    3    0    0  0.31587571038E-02  0.92657332206E-01  0.83623025326E-01  0.12599169139E+00  0.16903756277E-01 0.  0.
         14    1    1    2    0    0  0.10369341071E-01  0.17382381235E-01  0.15453640736E-01  0.25465376958E-01  0.00000000000E+00 0.  1.
     999901    1    3    3    0    0 -0.13528098174E-01 -0.11003971344E+00 -0.99076666062E-01  0.89247293165E+00  0.88000000000E+00 0.  1.
        -11    1    4    4    0    0 -0.48780390341E-02  0.62759070291E-01  0.60873551977E-01  0.87569096260E-01  0.51100000000E-03 0.  1.
         11    1    4    4    0    0  0.80367961379E-02  0.29898261916E-01  0.22749473350E-01  0.38422595129E-01  0.51100000000E-03 0. -1.
</event>
<event>
 8    1  0.1088021E+005  0.1043930E+01  0.7957747E-01            NaN
         13   -1    0    0    0    0  0.00000000000E+00  0.00000000000E+00  0.74505805969E-08  0.10566000000E+00  0.10566000000E+00 0. -1.
     999900   -1    0    0    0    0 -0.00000000000E+00 -0.00000000000E+00 -0.74505805969E-08  0.93827000000E+00  0.93827000000E+00 0.  1.
     999902    2    1    2    0    0 -0.83274691739E-02  0.22276506990E-01 -0.43067571418E-02  0.10197610599E+01  0.10194746106E+01 0.  0.
     999903    2    3    3    0    0  0.11891477528E+00  0.42407734181E-01  0.24726539318E-01  0.12990782070E+00  0.18041630616E-01 0.  0.
         14    1    1    2    0    0  0.83274691739E-02 -0.22276506990E-01  0.43067571418E-02  0.24168940060E-01  0.00000000000E+00 0.  1.
     999901    1    3    3    0    0 -0.12724224445E+00 -0.20131227190E-01 -0.29033296460E-01  0.88985323924E+00  0.88000000000E+00 0.  1.
        -11    1    4    4    0    0  0.88412752093E-01  0.23212658771E-01  0.19792328408E-01  0.93528817188E-01  0.51100000000E-03 0.  1.
         11    1    4    4    0    0  0.30502023184E-01  0.19195075410E-01  0.49342109098E-02  0.36379003513E-01  0.51100000000E-03 0. -1.
</event>
<event>
 8    1  0.1088021E+005  0.1043930E+01  0.7957747E-01            NaN
         13   -1    0    0    0    0  0.00000000000E+00  0.00000000000E+00  0.74505805969E-08  0.10566000000E+00  0.10566000000E+00 0. -1.
     999900   -1    0    0    0    0 -0.00000000000E+00 -0.00000000000E+00 -0.74505805969E-08  0.93827000000E+00  0.93827000000E+00 0.  1.
     999902    2    1    2    0    0  0.12858540882E-03 -0.19751172069E-01  0.13017359325E-01  0.10202746206E+01  0.10200003551E+01 0.  0.
     999903    2    3    3    0    0  0.44886446571E-01  0.17049190887E-01 -0.11789179857E+00  0.12870592413E+00  0.19007123388E-01 0.  0.
         14    1    1    2    0    0 -0.12858540882E-03  0.19751172069E-01 -0.13017359325E-01  0.23655379432E-01  0.00000000000E+00 0. -1.
     999901    1    3    3    0    0 -0.44757861162E-01 -0.36800362956E-01  0.13090915790E+00  0.89156869644E+00  0.88000000000E+00 0. -1.
        -11    1    4    4    0    0  0.27994786718E-01  0.13390644320E-01 -0.51769590016E-01  0.60360326458E-01  0.51100000000E-03 0. -1.
         11    1    4    4    0    0  0.16891659853E-01  0.36585465672E-02 -0.66122208556E-01  0.68345597670E-01  0.51100000000E-03 0.  1.
</event>
<event>
 8    1  0.1088021E+005  0.1043930E+01  0.7957747E-01            NaN
         13   -1    0    0    0    0  0.00000000000E+00  0.00000000000E+00  0.74505805969E-08  0.10566000000E+00  0.10566000000E+00 0.  1.
     999900   -1    0    0    0    0 -0.00000000000E+00 -0.00000000000E+00 -0.74505805969E-08  0.93827000000E+00  0.93827000000E+00 0.  1.
     999902    2    1    2    0    0 -0.37822763686E-02 -0.23293023727E-01  0.51611991650E-03  0.10203262514E+01  0.10200531958E+01 0.  0.
     999903    2    3    3    0    0 -0.13237286335E-01  0.77421949732E-01  0.10029082322E+00  0.12892965362E+00  0.19880198950E-01 0.  0.
         14    1    1    2    0    0  0.37822763686E-02  0.23293023727E-01 -0.51611991650E-03  0.23603748615E-01  0.00000000000E+00 0.  1.
     999901    1    3    3    0    0  0.94550099666E-02 -0.10071497346E+00 -0.99774703302E-01  0.89139659777E+00  0.88000000000E+00 0.  1.
        -11    1    4    4    0    0 -0.18060458302E-03  0.10110337523E-01  0.43854551417E-02  0.11033806263E-01  0.51100000000E-03 0. -1.
         11    1    4    4    0    0 -0.13056681752E-01  0.67311612209E-01  0.95905368077E-01  0.11789584735E+00  0.51100000000E-03 0.  1.
</event>
<event>
 8    1  0.1088021E+005  0.1043930E+01  0.7957747E-01            NaN
         13   -1    0    0    0    0  0.00000000000E+00  0.00000000000E+00  0.74505805969E-08  0.10566000000E+00  0.10566000000E+00 0.  1.
     999900   -1    0    0    0    0 -0.00000000000E+00 -0.00000000000E+00 -0.74505805969E-08  0.93827000000E+00  0.93827000000E+00 0. -1.
     999902    2    1    2    0    0 -0.80706937701E-04  0.19855740524E-01  0.10821614221E-01  0.10213166349E+01  0.10210662586E+01 0.  0.
     999903    2    3    3    0    0 -0.86374799759E-02 -0.12400935171E+00  0.30015427412E-01  0.12938682514E+00  0.19674838415E-01 0.  0.
         14    1    1    2    0    0  0.80706937701E-04 -0.19855740524E-01 -0.10821614221E-01  0.22613365068E-01  0.00000000000E+00 0. -1.
     999901    1    3    3    0    0  0.85567730382E-02  0.14386509223E+00 -0.19193813191E-01  0.89192980979E+00  0.88000000000E+00 0. -1.
        -11    1    4    4    0    0 -0.76149282035E-02 -0.45979439583E-01  0.26291732145E-02  0.46682648476E-01  0.51100000000E-03 0. -1.
         11    1    4    4    0    0 -0.10225517725E-02 -0.78029912123E-01  0.27386254197E-01  0.82704176666E-01  0.51100000000E-03 0.  1.
</event>
<event>
 8    1  0.1088021E+005  0.1043930E+01  0.7957747E-01            NaN
         13   -1    0    0    0    0  0.00000000000E+00  0.00000000000E+00  0.74505805969E-08  0.10566000000E+00  0.10566000000E+00 0. -1.
     999900   -1    0    0    0    0 -0.00000000000E+00 -0.00000000000E+00 -0.74505805969E-08  0.93827000000E+00  0.93827000000E+00 0.  1.
     999902    2    1    2    0    0 -0.12561496806E-01  0.16687271870E-01 -0.12161375255E-01  0.10197606952E+01  0.10194742372E+01 0.  0.
     999903    2    3    3    0    0 -0.13015472739E+00  0.38637592891E-02 -0.14170393012E-02  0.13178093696E+00  0.20224382560E-01 0.  0.
         14    1    1    2    0    0  0.12561496806E-01 -0.16687271870E-01  0.12161375255E-01  0.24169304759E-01  0.00000000000E+00 0. -1.
     999901    1    3    3    0    0  0.11759323058E+00  0.12823512580E-01 -0.10744335954E-01  0.88797975828E+00  0.88000000000E+00 0.  1.
        -11    1    4    4    0    0 -0.72335116337E-01 -0.68795531908E-02  0.36254199890E-02  0.72753708487E-01  0.51100000000E-03 0.  1.
         11    1    4    4    0    0 -0.57819611050E-01  0.10743312480E-01 -0.50424592902E-02  0.59027228477E-01  0.51100000000E-03 0. -1.
</event>
<event>
 8    1  0.1088021E+005  0.1043930E+01  0.7957747E-01            NaN
         13   -1    0    0    0    0  0.00000000000E+00  0.00000000000E+00  0.74505805969E-08  0.10566000000E+00  0.10566000000E+00 0.  1.
     999900   -1    0    0    0    0 -0.00000000000E+00 -0.00000000000E+00 -0.74505805969E-08  0.93827000000E+00  0.93827000000E+00 0.  1.
     999902    2    1    2    0    0  0.83095866455E-03 -0.96790300904E-02 -0.22598129527E-01  0.10193322445E+01  0.10190354141E+01 0.  0.
     999903    2    3    3    0    0  0.41173311061E-02 -0.11129389960E+00  0.62789830095E-01  0.12937298390E+00  0.19786907134E-01 0.  0.
         14    1    1    2    0    0 -0.83095866455E-03  0.96790300904E-02  0.22598129527E-01  0.24597755465E-01  0.00000000000E+00 0.  1.
     999901    1    3    3    0    0 -0.32863724416E-02  0.10161486951E+00 -0.85387959622E-01  0.88995926064E+00  0.88000000000E+00 0.  1.
        -11    1    4    4    0    0  0.20851799989E-04 -0.73070565413E-01  0.30561280557E-01  0.79205813896E-01  0.51100000000E-03 0.  1.
         11    1    4    4    0    0  0.40964793062E-02 -0.38223334191E-01  0.32228549538E-01  0.50167169999E-01  0.51100000000E-03 0. -1.
</event>
<event>
 8    1  0.1088021E+005  0.1043930E+01  0.7957747E-01            NaN
         13   -1    0    0    0    0  0.00000000000E+00  0.00000000000E+00  0.74505805969E-08  0.10566000000E+00  0.10566000000E+00 0.  1.
     999900   -1    0    0    0    0 -0.00000000000E+00 -0.00000000000E+00 -0.74505805969E-08  0.93827000000E+00  0.93827000000E+00 0. -1.
     999902    2    1    2    0    0  0.12783366422E-01 -0.11023350534E-01  0.18136787381E-01  0.10191535642E+01  0.10188523522E+01 0.  0.
     999903    2    3    3    0    0 -0.36997432978E-01 -0.87061486171E-01  0.89313499841E-01  0.13161424088E+00  0.19922216907E-01 0.  0.
         14    1    1    2    0    0 -0.12783366422E-01  0.11023350534E-01 -0.18136787381E-01  0.24776435793E-01  0.00000000000E+00 0. -1.
     999901    1    3    3    0    0  0.49780799400E-01  0.76038135638E-01 -0.71176712460E-01  0.88753932333E+00  0.88000000000E+00 0. -1.
        -11    1    4    4    0    0 -0.14697366868E-01 -0.37727391821E-01  0.51786839012E-01  0.65738166253E-01  0.51100000000E-03 0.  1.
         11    1    4    4    0    0 -0.22300066111E-01 -0.49334094351E-01  0.37526660829E-01  0.65876074625E-01  0.51100000000E-03 0. -1.
</event>
<event>
 8    1  0.1088021E+005  0.1043930E+01  0.7957747E-01            NaN
         13   -1    0    0    0    0  0.00000000000E+00  0.00000000000E+00  0.74505805969E-08  0.10566000000E+00  0.10566000000E+00 0.  1.
     999900   -1    0    0    0    0 -0.00000000000E+00 -0.00000000000E+00 -0.74505805969E-08  0.93827000000E+00  0.93827000000E+00 0. -1.
     999902    2    1    2    0    0  0.95752905734E-02 -0.73639019174E-02 -0.20011664511E-01  0.10205552282E+01  0.10202875055E+01 0.  0.
     999903    2    3    3    0    0  0.13005935500E+00  0.19634437185E-02  0.40610786363E-02  0.13197045107E+00  0.21918409186E-01 0.  0.
         14    1    1    2    0    0 -0.95752905734E-02  0.73639019174E-02  0.20011664511E-01  0.23374771818E-01  0.00000000000E+00 0.  1.
     999901    1    3    3    0    0 -0.12048406443E+00 -0.93273456359E-02 -0.24072743147E-01  0.88858477711E+00  0.88000000000E+00 0. -1.
        -11    1    4    4    0    0  0.69470307066E-01  0.86370236562E-03  0.13091305733E-01  0.70700162322E-01  0.51100000000E-03 0. -1.
         11    1    4    4    0    0  0.60589047934E-01  0.10997413529E-02 -0.90302270966E-02  0.61270288746E-01  0.51100000000E-03 0.  1.
</event>
<event>
 8    1  0.1088021E+005  0.1043930E+01  0.7957747E-01            NaN
         13   -1    0    0    0    0  0.00000000000E+00  0.00000000000E+00  0.74505805969E-08  0.10566000000E+00  0.10566000000E+00 0. -1.
     999900   -1    0    0    0    0 -0.00000000000E+00 -0.00000000000E+00 -0.74505805969E-08  0.93827000000E+00  0.93827000000E+00 0. -1.
     999902    2    1    2    0    0  0.26866100984E-02 -0.19227534936E-01  0.11654000878E-01  0.10212864201E+01  0.10210353668E+01 0.  0.
     999903    2    3    3    0    0 -0.74059197997E-01 -0.63588795959E-01  0.88644984731E-01  0.13348832813E+00  0.20806264663E-01 0.  0.
         14    1    1    2    0    0 -0.26866100984E-02  0.19227534936E-01 -0.11654000878E-01  0.22643579885E-01  0.00000000000E+00 0.  1.
     999901    1    3    3    0    0  0.76745808095E-01  0.44361261023E-01 -0.76990983853E-01  0.88779809199E+00  0.88000000000E+00 0. -1.
        -11    1    4    4    0    0 -0.22211802385E-01 -0.11570191527E-01  0.32537855157E-01  0.41063446475E-01  0.51100000000E-03 0.  1.
         11    1    4    4    0    0 -0.51847395611E-01 -0.52018604432E-01  0.56107129574E-01  0.92424881654E-01  0.51100000000E-03 0. -1.
</event>
<event>
 8    1  0.1088021E+005  0.1043930E+01  0.7957747E-01            NaN
         13   -1    0    0    0    0  0.00000000000E+00  0.00000000000E+00  0.74505805969E-08  0.10566000000E+00  0.10566000000E+00 0.  1.
     999900   -1    0    0    0    0 -0.00000000000E+00 -0.00000000000E+00 -0.74505805969E-08  0.93827000000E+00  0.93827000000E+00 0.  1.
     999902    2    1    2    0    0  0.82453901327E-02  0.85520293498E-02 -0.16530166044E-01  0.10235739185E+01  0.10233714851E+01 0.  0.
     999903    2    3    3    0    0 -0.49768517367E-01 -0.44393934546E-01  0.11088525953E+00  0.13093536946E+00  0.20020076174E-01 0.  0.
         14    1    1    2    0    0 -0.82453901327E-02 -0.85520293498E-02  0.16530166044E-01  0.20356081496E-01  0.00000000000E+00 0.  1.
     999901    1    3    3    0    0  0.58013907499E-01  0.52945963895E-01 -0.12741542558E+00  0.89263854904E+00  0.88000000000E+00 0.  1.
        -11    1    4    4    0    0 -0.43408399046E-01 -0.38634422700E-01  0.80021132830E-01  0.98896665998E-01  0.51100000000E-03 0. -1.
         11    1    4    4    0    0 -0.63601183209E-02 -0.57595118453E-02  0.30864126702E-01  0.32038703467E-01  0.51100000000E-03 0.  1.
</event>
<event>
 8    1  0.1088021E+005  0.1043930E+01  0.7957747E-01            NaN
         13   -1    0    0    0    0  0.00000000000E+00  0.00000000000E+00  0.74505805969E-08  0.10566000000E+00  0.10566000000E+00 0. -1.
     999900   -1    0    0    0    0 -0.00000000000E+00 -0.00000000000E+00 -0.74505805969E-08  0.93827000000E+00  0.93827000000E+00 0.  1.
     999902    2    1    2    0    0  0.96493786070E-02  0.82651781554E-03 -0.24239284407E-01  0.10178275758E+01  0.10174928194E+01 0.  0.
     999903    2    3    3    0    0  0.67262691527E-01 -0.12624567703E-01 -0.11064686333E+00  0.13161851741E+00  0.19926273570E-01 0.  0.
         14    1    1    2    0    0 -0.96493786070E-02 -0.82651781554E-03  0.24239284407E-01  0.26102424174E-01  0.00000000000E+00 0. -1.
     999901    1    3    3    0    0 -0.57613312920E-01  0.13451085518E-01  0.86407578924E-01  0.88620905842E+00  0.88000000000E+00 0. -1.
        -11    1    4    4    0    0  0.44636185655E-01 -0.17427690244E-01 -0.79368388644E-01  0.92713082648E-01  0.51100000000E-03 0.  1.
         11    1    4    4    0    0  0.22626505871E-01  0.48031225408E-02 -0.31278474687E-01  0.38905434759E-01  0.51100000000E-03 0. -1.
</event>
<event>
 8    1  0.1088021E+005  0.1043930E+01  0.7957747E-01            NaN
         13   -1    0    0    0    0  0.00000000000E+00  0.00000000000E+00  0.74505805969E-08  0.10566000000E+00  0.10566000000E+00 0.  1.
     999900   -1    0    0    0    0 -0.00000000000E+00 -0.00000000000E+00 -0.74505805969E-08  0.93827000000E+00  0.93827000000E+00 0.  1.
     999902    2    1    2    0    0  0.37117394986E-02 -0.18246837025E-01 -0.18210444199E-01  0.10178849554E+01  0.10175516881E+01 0.  0.
     999903    2    3    3    0    0 -0.16615610230E-01  0.10526945612E+00 -0.65406206617E-01  0.12777433539E+00  0.26278737119E-01 0.  0.
         14    1    1    2    0    0 -0.37117394986E-02  0.18246837025E-01  0.18210444199E-01  0.26045044624E-01  0.00000000000E+00 0.  1.
     999901    1    3    3    0    0  0.20327349728E-01 -0.12351629315E+00  0.47195762418E-01  0.89011061999E+00  0.88000000000E+00 0.  1.
        -11    1    4    4    0    0 -0.37558612888E-02  0.86994868652E-01 -0.47895653790E-01  0.99380422815E-01  0.51100000000E-03 0.  1.
         11    1    4    4    0    0 -0.12859748941E-01  0.18274587472E-01 -0.17510552826E-01  0.28393912576E-01  0.51100000000E-03 0. -1.
</event>
<event>
 8    1  0.1088021E+005  0.1043930E+01  0.7957747E-01            NaN
         13   -1    0    0    0    0  0.00000000000E+00  0.00000000000E+00  0.74505805969E-08  0.10566000000E+00  0.10566000000E+00 0.  1.
     999900   -1    0    0    0    0 -0.00000000000E+00 -0.00000000000E+00 -0.74505805969E-08  0.93827000000E+00  0.93827000000E+00 0. -1.
     999902    2    1    2    0    0  0.75163744125E-02  0.19885688240E-01  0.12426885263E-01  0.10193055415E+01  0.10190080583E+01 0.  0.
     999903    2    3    3    0    0  0.10840305739E+00  0.50406301238E-01  0.52442553812E-01  0.13211284292E+00  0.20287034202E-01 0.  0.
         14    1    1    2    0    0 -0.75163744125E-02 -0.19885688240E-01 -0.12426885263E-01  0.24624458541E-01  0.00000000000E+00 0. -1.
     999901    1    3    3    0    0 -0.10088668298E+00 -0.30520612998E-01 -0.40015668549E-01  0.88719269854E+00  0.88000000000E+00 0.  1.
        -11    1    4    4    0    0  0.97248836541E-01  0.38392589381E-01  0.42033428330E-01  0.11268716584E+00  0.51100000000E-03 0. -1.
         11    1    4    4    0    0  0.11154220850E-01  0.12013711858E-01  0.10409125481E-01  0.19425677071E-01  0.51100000000E-03 0.  1.
</event>
<event>
 8    1  0.1088021E+005  0.1043930E+01  0.7957747E-01            NaN
         13   -1    0    0    0    0  0.00000000000E+00  0.00000000000E+00  0.74505805969E-08  0.10566000000E+00  0.10566000000E+00 0.  1.
     999900   -1    0    0    0    0 -0.00000000000E+00 -0.00000000000E+00 -0.74505805969E-08  0.93827000000E+00  0.93827000000E+00 0.  1.
     999902    2    1    2    0    0  0.13726251444E-01 -0.10991242729E-01 -0.11474192071E-01  0.10229329888E+01  0.10227174708E+01 0.  0.
     999903    2    3    3    0    0 -0.12198283111E+00  0.43039535804E-01  0.29588970013E-02  0.13077571894E+00  0.19008441928E-01 0.  0.
         14    1    1    2    0    0 -0.13726251444E-01  0.10991242729E-01  0.11474192071E-01  0.20997011195E-01  0.00000000000E+00 0. -1.
     999901    1    3    3    0    0  0.13570908255E+00 -0.54030778534E-01 -0.14433089072E-01  0.89215726987E+00  0.88000000000E+00 0.  1.
        -11    1    4    4    0    0 -0.66483482568E-01  0.30127481377E-01 -0.53521611360E-02  0.73188970059E-01  0.51100000000E-03 0.  1.
         11    1    4    4    0    0 -0.55499348542E-01  0.12912054427E-01  0.83110581373E-02  0.57586748879E-01  0.51100000000E-03 0. -1.
</event>
<event>
 8    1  0.1088021E+005  0.1043930E+01  0.7957747E-01            NaN
         13   -1    0    0    0    0  0.00000000000E+00  0.00000000000E+00  0.74505805969E-08  0.10566000000E+00  0.10566000000E+00 0.  1.
     999900   -1    0    0    0    0 -0.00000000000E+00 -0.00000000000E+00 -0.74505805969E-08  0.93827000000E+00  0.93827000000E+00 0.  1.
     999902    2    1    2    0    0 -0.10993667190E-01 -0.41358979386E-02 -0.20657771972E-01  0.10201663742E+01  0.10198895632E+01 0.  0.
     999903    2    3    3    0    0 -0.26434424138E-01  0.89287701294E-01  0.86611892731E-01  0.12860977650E+00  0.19177650206E-01 0.  0.
         14    1    1    2    0    0  0.10993667190E-01  0.41358979386E-02  0.20657771972E-01  0.23763625837E-01  0.00000000000E+00 0.  1.
     999901    1    3    3    0    0  0.15440756948E-01 -0.93423599233E-01 -0.10726966470E+00  0.89155659766E+00  0.88000000000E+00 0.  1.
        -11    1    4    4    0    0 -0.84831442236E-02  0.56524905599E-01  0.45511541758E-01  0.73065657070E-01  0.51100000000E-03 0. -1.
         11    1    4    4    0    0 -0.17951279915E-01  0.32762795696E-01  0.41100350973E-01  0.55544119432E-01  0.51100000000E-03 0.  1.
</event>
<event>
 8    1  0.1088021E+005  0.1043930E+01  0.7957747E-01            NaN
         13   -1    0    0    0    0  0.00000000000E+00  0.00000000000E+00  0.74505805969E-08  0.10566000000E+00  0.10566000000E+00 0.  1.
     999900   -1    0    0    0    0 -0.00000000000E+00 -0.00000000000E+00 -0.74505805969E-08  0.93827000000E+00  0.93827000000E+00 0. -1.
     999902    2    1    2    0    0  0.18118153162E-01 -0.57622540908E-04 -0.15771720588E-01  0.10199088018E+01  0.10196258853E+01 0.  0.
     999903    2    3    3    0    0  0.40512849738E-01 -0.10382699079E+00 -0.67595791762E-01  0.13201503640E+00  0.20915156237E-01 0.  0.
         14    1    1    2    0    0 -0.18118153162E-01  0.57622540908E-04  0.15771720588E-01  0.24021198235E-01  0.00000000000E+00 0.  1.
     999901    1    3    3    0    0 -0.22394696576E-01  0.10376936825E+00  0.51824071174E-01  0.88789376537E+00  0.88000000000E+00 0. -1.
        -11    1    4    4    0    0  0.12045768078E-01 -0.37607558645E-01 -0.12950833077E-01  0.41562172636E-01  0.51100000000E-03 0.  1.
         11    1    4    4    0    0  0.28467081660E-01 -0.66219432148E-01 -0.54644958685E-01  0.90452863763E-01  0.51100000000E-03 0. -1.
</event>
<event>
 8    1  0.1088021E+005  0.1043930E+01  0.7957747E-01            NaN
         13   -1    0    0    0    0  0.00000000000E+00  0.00000000000E+00  0.74505805969E-08  0.10566000000E+00  0.10566000000E+00 0.  1.
     999900   -1    0    0    0    0 -0.00000000000E+00 -0.00000000000E+00 -0.74505805969E-08  0.93827000000E+00  0.93827000000E+00 0.  1.
     999902    2    1    2    0    0 -0.43096427109E-02 -0.26728959441E-01 -0.26360436325E-02  0.10167278122E+01  0.10163638547E+01 0.  0.
     999903    2    3    3    0    0  0.81895906493E-01  0.85667918531E-01  0.33142880301E-01  0.12468264169E+00  0.20034441825E-01 0.  0.
         14    1    1    2    0    0  0.43096427109E-02  0.26728959441E-01  0.26360436325E-02  0.27202187764E-01  0.00000000000E+00 0.  1.
     999901    1    3    3    0    0 -0.86205549204E-01 -0.11239687797E+00 -0.35778923934E-01  0.89204517054E+00  0.88000000000E+00 0.  1.
        -11    1    4    4    0    0  0.75483033779E-01  0.84980988747E-01  0.30435105075E-01  0.11766908506E+00  0.51100000000E-03 0. -1.
         11    1    4    4    0    0  0.64128727148E-02  0.68692978393E-03  0.27077752260E-02  0.70135566340E-02  0.51100000000E-03 0.  1.
</event>
<event>
 8    1  0.1088021E+005  0.1043930E+01  0.7957747E-01            NaN
         13   -1    0    0    0    0  0.00000000000E+00  0.00000000000E+00  0.74505805969E-08  0.10566000000E+00  0.10566000000E+00 0. -1.
     999900   -1    0    0    0    0 -0.00000000000E+00 -0.00000000000E+00 -0.74505805969E-08  0.93827000000E+00  0.93827000000E+00 0.  1.
     999902    2    1    2    0    0  0.61634615086E-02  0.23138660988E-01  0.16825120313E-02  0.10199254851E+01  0.10196429661E+01 0.  0.
     999903    2    3    3    0    0  0.16509571119E-01 -0.39031669636E-02  0.12783821766E+00  0.13045734933E+00  0.19715715770E-01 0.  0.
         14    1    1    2    0    0 -0.61634615086E-02 -0.23138660988E-01 -0.16825120313E-02  0.24004514926E-01  0.00000000000E+00 0. -1.
     999901    1    3    3    0    0 -0.10346109611E-01  0.27041827952E-01 -0.12615570563E+00  0.88946813575E+00  0.88000000000E+00 0.  1.
        -11    1    4    4    0    0  0.17265267918E-01  0.20961454095E-02  0.63728548036E-01  0.66061125162E-01  0.51100000000E-03 0. -1.
         11    1    4    4    0    0 -0.75569679813E-03 -0.59993123731E-02  0.64109669624E-01  0.64396224167E-01  0.51100000000E-03 0.  1.
</event>
<event>
 8    1  0.1088021E+005  0.1043930E+01  0.7957747E-01            NaN
         13   -1    0    0    0    0  0.00000000000E+00  0.00000000000E+00  0.74505805969E-08  0.10566000000E+00  0.10566000000E+00 0. -1.
     999900   -1    0    0    0    0 -0.00000000000E+00 -0.00000000000E+00 -0.74505805969E-08  0.93827000000E+00  0.93827000000E+00 0.  1.
     999902    2    1    2    0    0 -0.53758733277E-02  0.22882791292E-02 -0.22505709043E-01  0.10206782651E+01  0.10204133857E+01 0.  0.
     999903    2    3    3    0    0  0.12205366277E+00  0.40154719023E-01  0.86886943896E-02  0.13014738708E+00  0.18797630104E-01 0.  0.
         14    1    1    2    0    0  0.53758733277E-02 -0.22882791292E-02  0.22505709043E-01  0.23251734880E-01  0.00000000000E+00 0. -1.
     999901    1    3    3    0    0 -0.12742953610E+00 -0.37866439894E-01 -0.31194403432E-01  0.89053087804E+00  0.88000000000E+00 0. -1.
        -11    1    4    4    0    0  0.99682414868E-01  0.39126444582E-01  0.34537908182E-02  0.10714313927E+00  0.51100000000E-03 0. -1.
         11    1    4    4    0    0  0.22371247902E-01  0.10282744412E-02  0.52349035714E-02  0.23004247813E-01  0.51100000000E-03 0.  1.
</event>
<event>
 8    1  0.1088021E+005  0.1043930E+01  0.7957747E-01            NaN
         13   -1    0    0    0    0  0.00000000000E+00  0.00000000000E+00  0.74505805969E-08  0.10566000000E+00  0.10566000000E+00 0.  1.
     999900   -1    0    0    0    0 -0.00000000000E+00 -0.00000000000E+00 -0.74505805969E-08  0.93827000000E+00  0.93827000000E+00 0.  1.
     999902    2    1    2    0    0  0.14695971924E-01  0.17883505156E-01  0.26051355784E-02  0.10206366945E+01  0.10203708562E+01 0.  0.
     999903    2    3    3    0    0  0.24145868092E-01 -0.10422505330E+00  0.70149331744E-01  0.12959123049E+00  0.20665758990E-01 0.  0.
         14    1    1    2    0    0 -0.14695971924E-01 -0.17883505156E-01 -0.26051355784E-02  0.23293305451E-01  0.00000000000E+00 0. -1.
     999901    1    3    3    0    0 -0.94498961676E-02  0.12210855845E+00 -0.67544196166E-01  0.89104546406E+00  0.88000000000E+00 0.  1.
        -11    1    4    4    0    0  0.14546277006E-01 -0.87182954440E-01  0.50209841359E-01  0.10165505895E+00  0.51100000000E-03 0.  1.
         11    1    4    4    0    0  0.95995910858E-02 -0.17042098858E-01  0.19939490385E-01  0.27936171540E-01  0.51100000000E-03 0. -1.
</event>
<event>
 7    1  0.1088021E+005  0.1043930E+01  0.7957747E-01            NaN
         13   -1    0    0    0    0  0.00000000000E+00  0.00000000000E+00  0.74505805969E-08  0.10566000000E+00  0.10566000000E+00 0.  1.
     999900   -1    0    0    0    0 -0.00000000000E+00 -0.00000000000E+00 -0.74505805969E-08  0.93827000000E+00  0.93827000000E+00 0.  1.
     999902    2    1    2    0    0 -0.55903847084E-02  0.22234394894E-01  0.70907167753E-02  0.10199321046E+01  0.10196497433E+01 0.  0.
         14    1    1    2    0    0  0.55903847084E-02 -0.22234394894E-01 -0.70907167753E-02  0.23997895363E-01  0.00000000000E+00 0.  1.
     999901    1    3    3    0    0 -0.26509178466E-01 -0.94605187747E-01 -0.42532183638E-01  0.88648850231E+00  0.88000000000E+00 0. -1.
        -11    1    3    3    0    0 -0.61327201950E-02  0.59681862907E-01  0.30924684176E-01  0.67499127620E-01  0.51100000000E-03 0. -1.
         11    1    3    3    0    0  0.27051513952E-01  0.57157719734E-01  0.18698216238E-01  0.65944474702E-01  0.51100000000E-03 0.  1.
</event>
<event>
 8    1  0.1088021E+005  0.1043930E+01  0.7957747E-01            NaN
         13   -1    0    0    0    0  0.00000000000E+00  0.00000000000E+00  0.74505805969E-08  0.10566000000E+00  0.10566000000E+00 0.  1.
     999900   -1    0    0    0    0 -0.00000000000E+00 -0.00000000000E+00 -0.74505805969E-08  0.93827000000E+00  0.93827000000E+00 0.  1.
     999902    2    1    2    0    0  0.11028096562E-01 -0.17887139254E-01 -0.10123581498E-01  0.10206050012E+01  0.10203384306E+01 0.  0.
     999903    2    3    3    0    0  0.80477326132E-01 -0.79697088194E-01 -0.69538819275E-01  0.13371502174E+00  0.14691281907E-01 0.  0.
         14    1    1    2    0    0 -0.11028096562E-01  0.17887139254E-01  0.10123581498E-01  0.23324998753E-01  0.00000000000E+00 0.  1.
     999901    1    3    3    0    0 -0.69449229570E-01  0.61809948940E-01  0.59415237777E-01  0.88688997951E+00  0.88000000000E+00 0. -1.
        -11    1    4    4    0    0  0.21227607792E-01 -0.17510084947E-01 -0.23881989500E-01  0.36439332471E-01  0.51100000000E-03 0. -1.
         11    1    4    4    0    0  0.59249718340E-01 -0.62187003247E-01 -0.45656829775E-01  0.97275689266E-01  0.51100000000E-03 0.  1.
</event>
<event>
 8    1  0.1088021E+005  0.1043930E+01  0.7957747E-01            NaN
         13   -1    0    0    0    0  0.00000000000E+00  0.00000000000E+00  0.74505805969E-08  0.10566000000E+00  0.10566000000E+00 0. -1.
     999900   -1    0    0    0    0 -0.00000000000E+00 -0.00000000000E+00 -0.74505805969E-08  0.93827000000E+00  0.93827000000E+00 0.  1.
     999902    2    1    2    0    0 -0.61564446497E-02 -0.22705177024E-02 -0.21943221785E-01  0.10210266805E+01  0.10207697685E+01 0.  0.
     999903    2    3    3    0    0  0.79300275015E-01  0.10001409249E+00  0.14778379267E-01  0.13023295107E+00  0.21233669880E-01 0.  0.
         14    1    1    2    0    0  0.61564446497E-02  0.22705177024E-02  0.21943221785E-01  0.22903319490E-01  0.00000000000E+00 0. -1.
     999901    1    3    3    0    0 -0.85456719665E-01 -0.10228461020E+00 -0.36721601053E-01  0.89079372944E+00  0.88000000000E+00 0.  1.
        -11    1    4    4    0    0  0.25915307429E-01  0.22881983461E-01 -0.31877235901E-02  0.34721909926E-01  0.51100000000E-03 0.  1.
         11    1    4    4    0    0  0.53384967587E-01  0.77132109033E-01  0.17966102857E-01  0.95511041147E-01  0.51100000000E-03 0. -1.
</event>
<event>
 8    1  0.1088021E+005  0.1043930E+01  0.7957747E-01            NaN
         13   -1    0    0    0    0  0.00000000000E+00  0.00000000000E+00  0.74505805969E-08  0.10566000000E+00  0.10566000000E+00 0. -1.
     999900   -1    0    0    0    0 -0.00000000000E+00 -0.00000000000E+00 -0.74505805969E-08  0.93827000000E+00  0.93827000000E+00 0. -1.
     999902    2    1    2    0    0 -0.84930035016E-02  0.12604042816E-02 -0.21475781201E-01  0.10208014699E+01  0.10205394221E+01 0.  0.
     999903    2    3    3    0    0 -0.87316702933E-01  0.92632521960E-01  0.25517521693E-01  0.13132386476E+00  0.19743930906E-01 0.  0.
         14    1    1    2    0    0  0.84930035016E-02 -0.12604042816E-02  0.21475781201E-01  0.23128530122E-01  0.00000000000E+00 0. -1.
     999901    1    3    3    0    0  0.78823699431E-01 -0.91372117679E-01 -0.46993302894E-01  0.88947760511E+00  0.88000000000E+00 0. -1.
        -11    1    4    4    0    0 -0.18413880001E-01  0.91368184843E-02  0.37870636853E-02  0.20908261551E-01  0.51100000000E-03 0. -1.
         11    1    4    4    0    0 -0.68902822931E-01  0.83495703476E-01  0.21730458008E-01  0.11041560321E+00  0.51100000000E-03 0.  1.
</event>
<event>
 7    1  0.1088021E+005  0.1043930E+01  0.7957747E-01            NaN
         13   -1    0    0    0    0  0.00000000000E+00  0.00000000000E+00  0.74505805969E-08  0.10566000000E+00  0.10566000000E+00 0. -1.
     999900   -1    0    0    0    0 -0.00000000000E+00 -0.00000000000E+00 -0.74505805969E-08  0.93827000000E+00  0.93827000000E+00 0.  1.
     999902    2    1    2    0    0 -0.13035153746E-01  0.18488545808E-01  0.53019943603E-02  0.10206952695E+01  0.10204307818E+01 0.  0.
         14    1    1    2    0    0  0.13035153746E-01 -0.18488545808E-01 -0.53019943603E-02  0.23234730544E-01  0.00000000000E+00 0.  1.
     999901    1    3    3    0    0 -0.13039742638E+00  0.23901702819E-01  0.39997953289E-01  0.89082805101E+00  0.88000000000E+00 0. -1.
        -11    1    3    3    0    0  0.85001941675E-01  0.13186117322E-01 -0.34105176731E-01  0.92534469142E-01  0.51100000000E-03 0.  1.
         11    1    3    3    0    0  0.32360330963E-01 -0.18599274333E-01 -0.59078219754E-03  0.37332749300E-01  0.51100000000E-03 0. -1.
</event>
<event>
 8    1  0.1088021E+005  0.1043930E+01  0.7957747E-01            NaN
         13   -1    0    0    0    0  0.00000000000E+00  0.00000000000E+00  0.74505805969E-08  0.10566000000E+00  0.10566000000E+00 0.  1.
     999900   -1    0    0    0    0 -0.00000000000E+00 -0.00000000000E+00 -0.74505805969E-08  0.93827000000E+00  0.93827000000E+00 0.  1.
     999902    2    1    2    0    0  0.18070047452E-02  0.25867629693E-01  0.31373951212E-02  0.10178102224E+01  0.10174750150E+01 0.  0.
     999903    2    3    3    0    0 -0.11481669909E+00  0.45725757984E-01  0.33720388194E-01  0.12936734131E+00  0.18031225224E-01 0.  0.
         14    1    1    2    0    0 -0.18070047452E-02 -0.25867629693E-01 -0.31373951212E-02  0.26119777569E-01  0.00000000000E+00 0. -1.
     999901    1    3    3    0    0  0.11662370384E+00 -0.19858128290E-01 -0.30582993073E-01  0.88844288112E+00  0.88000000000E+00 0.  1.
        -11    1    4    4    0    0 -0.10159900818E+00  0.42161089946E-01  0.24051736208E-01  0.11259956974E+00  0.51100000000E-03 0.  1.
         11    1    4    4    0    0 -0.13217690910E-01  0.35646680377E-02  0.96686519862E-02  0.16767771570E-01  0.51100000000E-03 0. -1.
</event>
<event>
 7    1  0.1088021E+005  0.1043930E+01  0.7957747E-01            NaN
         13   -1    0    0    0    0  0.00000000000E+00  0.00000000000E+00  0.74505805969E-08  0.10566000000E+00  0.10566000000E+00 0.  1.
     999900   -1    0    0    0    0 -0.00000000000E+00 -0.00000000000E+00 -0.74505805969E-08  0.93827000000E+00  0.93827000000E+00 0.  1.
     999903    2    1    2    0    0  0.65328980329E-01 -0.80838684144E-02 -0.21034894990E-01  0.71713281393E-01  0.19159940541E-01 0.  0.
         14    1    1    2    0    0  0.55726549639E-01  0.47944143260E-01 -0.34699420924E-01  0.81290460819E-01  0.00000000000E+00 0. -1.
     999901    1    1    2    0    0 -0.12105552997E+00 -0.39860274846E-01  0.55734315914E-01  0.89092625779E+00  0.88000000000E+00 0. -1.
        -11    1    3    3    0    0  0.50906563116E-01 -0.14201650693E-01 -0.15306270964E-01  0.55024613606E-01  0.51100000000E-03 0.  1.
         11    1    3    3    0    0  0.14422417213E-01  0.61177822783E-02 -0.57286240258E-02  0.16688667787E-01  0.51100000000E-03 0. -1.
</event>
<event>
 8    1  0.1088021E+005  0.1043930E+01  0.7957747E-01            NaN
         13   -1    0    0    0    0  0.00000000000E+00  0.00000000000E+00  0.74505805969E-08  0.10566000000E+00  0.10566000000E+00 0.  1.
     999900   -1    0    0    0    0 -0.00000000000E+00 -0.00000000000E+00 -0.74505805969E-08  0.93827000000E+00  0.93827000000E+00 0. -1.
     999902    2    1    2    0    0 -0.13664058224E-01 -0.26003186247E-02  0.14696048777E-01  0.10236953269E+01  0.10234953251E+01 0.  0.
     999903    2    3    3    0    0 -0.72732932042E-01  0.14624400717E-01  0.11272991518E+00  0.13611633791E+00  0.17767137364E-01 0.  0.
         14    1    1    2    0    0  0.13664058224E-01  0.26003186247E-02 -0.14696048777E-01  0.20234673057E-01  0.00000000000E+00 0. -1.
     999901    1    3    3    0    0  0.59068873819E-01 -0.17224719342E-01 -0.98033866401E-01  0.88757898903E+00  0.88000000000E+00 0. -1.
        -11    1    4    4    0    0 -0.57680455696E-01  0.53047719233E-02  0.93352639986E-01  0.10986424390E+00  0.51100000000E-03 0. -1.
         11    1    4    4    0    0 -0.15052476347E-01  0.93196287937E-02  0.19377275193E-01  0.26252094010E-01  0.51100000000E-03 0.  1.
</event>
<event>
 8    1  0.1088021E+005  0.1043930E+01  0.7957747E-01            NaN
         13   -1    0    0    0    0  0.00000000000E+00  0.00000000000E+00  0.74505805969E-08  0.10566000000E+00  0.10566000000E+00 0.  1.
     999900   -1    0    0    0    0 -0.00000000000E+00 -0.00000000000E+00 -0.74505805969E-08  0.93827000000E+00  0.93827000000E+00 0. -1.
     999902    2    1    2    0    0 -0.14597505254E-01 -0.10100526509E-01 -0.14414557961E-01  0.10210632714E+01  0.10208071889E+01 0.  0.
     999903    2    3    3    0    0 -0.59317480006E-01  0.55110705384E-01 -0.10392295055E+00  0.13299563139E+00  0.18223749209E-01 0.  0.
         14    1    1    2    0    0  0.14597505254E-01  0.10100526509E-01  0.14414557961E-01  0.22866728594E-01  0.00000000000E+00 0.  1.
     999901    1    3    3    0    0  0.44719974752E-01 -0.65211231893E-01  0.89508392586E-01  0.88806764002E+00  0.88000000000E+00 0.  1.
        -11    1    4    4    0    0 -0.52474963299E-01  0.48292195203E-01 -0.79899951329E-01  0.10709818502E+00  0.51100000000E-03 0.  1.
         11    1    4    4    0    0 -0.68425167073E-02  0.68185101809E-02 -0.24022999218E-01  0.25897446368E-01  0.51100000000E-03 0. -1.
</event>
<event>
 8    1  0.1088021E+005  0.1043930E+01  0.7957747E-01            NaN
         13   -1    0    0    0    0  0.00000000000E+00  0.00000000000E+00  0.74505805969E-08  0.10566000000E+00  0.10566000000E+00 0.  1.
     999900   -1    0    0    0    0 -0.00000000000E+00 -0.00000000000E+00 -0.74505805969E-08  0.93827000000E+00  0.93827000000E+00 0.  1.
     999902    2    1    2    0    0 -0.18364404736E-01 -0.12495701183E-01  0.86719924266E-02  0.10200847203E+01  0.10198059812E+01 0.  0.
     999903    2    3    3    0    0 -0.96350883630E-01 -0.91217226564E-03  0.89280303864E-01  0.13289039613E+00  0.20113674260E-01 0.  0.
         14    1    1    2    0    0  0.18364404736E-01  0.12495701183E-01 -0.86719924266E-02  0.23845279659E-01  0.00000000000E+00 0.  1.
     999901    1    3    3    0    0  0.77986478894E-01 -0.11583528917E-01 -0.80608311437E-01  0.88719432421E+00  0.88000000000E+00 0.  1.
        -11    1    4    4    0    0 -0.92440593307E-01  0.19714602533E-02  0.79431797201E-01  0.12189676564E+00  0.51100000000E-03 0.  1.
         11    1    4    4    0    0 -0.39102903231E-02 -0.28836325189E-02  0.98485066624E-02  0.10993630492E-01  0.51100000000E-03 0. -1.
</event>
<event>
 8    1  0.1088021E+005  0.1043930E+01  0.7957747E-01            NaN
         13   -1    0    0    0    0  0.00000000000E+00  0.00000000000E+00  0.74505805969E-08  0.10566000000E+00  0.10566000000E+00 0. -1.
     999900   -1    0    0    0    0 -0.00000000000E+00 -0.00000000000E+00 -0.74505805969E-08  0.93827000000E+00  0.93827000000E+00 0. -1.
     999902    2    1    2    0    0 -0.17905103287E-01 -0.14643059100E-01 -0.50943649097E-02  0.10202453118E+01  0.10199703582E+01 0.  0.
     999903    2    3    3    0    0 -0.10179895861E+00  0.79765495938E-01 -0.90396293101E-02  0.13121959821E+00  0.20280674075E-01 0.  0.
         14    1    1    2    0    0  0.17905103287E-01  0.14643059100E-01  0.50943649097E-02  0.23684688247E-01  0.00000000000E+00 0. -1.
     999901    1    3    3    0    0  0.83893855322E-01 -0.94408555038E-01  0.39452644004E-02  0.88902571354E+00  0.88000000000E+00 0. -1.
        -11    1    4    4    0    0 -0.47522464532E-01  0.37655573659E-01  0.58820877370E-02  0.60919511981E-01  0.51100000000E-03 0.  1.
         11    1    4    4    0    0 -0.54276494076E-01  0.42109922279E-01 -0.14921717047E-01  0.70300086232E-01  0.51100000000E-03 0. -1.
</event>
<event>
 8    1  0.1088021E+005  0.1043930E+01  0.7957747E-01            NaN
         13   -1    0    0    0    0  0.00000000000E+00  0.00000000000E+00  0.74505805969E-08  0.10566000000E+00  0.10566000000E+00 0. -1.
     999900   -1    0    0    0    0 -0.00000000000E+00 -0.00000000000E+00 -0.74505805969E-08  0.93827000000E+00  0.93827000000E+00 0. -1.
     999902    2    1    2    0    0 -0.21925060532E-01 -0.27557840251E-02 -0.98779809151E-02  0.10197251011E+01  0.10194377885E+01 0.  0.
     999903    2    3    3    0    0 -0.33641225128E-01 -0.91241264720E-01 -0.87023244459E-01  0.13185217070E+00  0.18848061612E-01 0.  0.
         14    1    1    2    0    0  0.21925060532E-01  0.27557840251E-02  0.98779809151E-02  0.24204898923E-01  0.00000000000E+00 0. -1.
     999901    1    3    3    0    0  0.11716164596E-01  0.88485480695E-01  0.77145263544E-01  0.88787293038E+00  0.88000000000E+00 0.  1.
        -11    1    4    4    0    0 -0.23177062128E-01 -0.79059128258E-01 -0.77848265593E-01  0.11334961644E+00  0.51100000000E-03 0. -1.
         11    1    4    4    0    0 -0.10464163000E-01 -0.12182136462E-01 -0.91749788666E-02  0.18502554263E-01  0.51100000000E-03 0.  1.
</event>
<event>
 8    1  0.1088021E+005  0.1043930E+01  0.7957747E-01            NaN
         13   -1    0    0    0    0  0.00000000000E+00  0.00000000000E+00  0.74505805969E-08  0.10566000000E+00  0.10566000000E+00 0. -1.
     999900   -1    0    0    0    0 -0.00000000000E+00 -0.00000000000E+00 -0.74505805969E-08  0.93827000000E+00  0.93827000000E+00 0.  1.
     999902    2    1    2    0    0  0.11199516094E-01  0.22639002206E-01 -0.44020600087E-02  0.10182915189E+01  0.10179687057E+01 0.  0.
     999903    2    3    3    0    0 -0.45667912090E-01 -0.61763913187E-01 -0.99701592546E-01  0.12731466317E+00  0.19190537644E-01 0.  0.
         14    1    1    2    0    0 -0.11199516094E-01 -0.22639002206E-01  0.44020600087E-02  0.25638481116E-01  0.00000000000E+00 0. -1.
     999901    1    3    3    0    0  0.56867428184E-01  0.84402915393E-01  0.95299532538E-01  0.89097685571E+00  0.88000000000E+00 0. -1.
        -11    1    4    4    0    0 -0.24467597522E-01 -0.44083742600E-01 -0.74329021420E-01  0.89817059829E-01  0.51100000000E-03 0. -1.
         11    1    4    4    0    0 -0.21200314568E-01 -0.17680170586E-01 -0.25372571126E-01  0.37497603341E-01  0.51100000000E-03 0.  1.
</event>
<event>
 8    1  0.1088021E+005  0.1043930E+01  0.7957747E-01            NaN
         13   -1    0    0    0    0  0.00000000000E+00  0.00000000000E+00  0.74505805969E-08  0.10566000000E+00  0.10566000000E+00 0.  1.
     999900   -1    0    0    0    0 -0.00000000000E+00 -0.00000000000E+00 -0.74505805969E-08  0.93827000000E+00  0.93827000000E+00 0. -1.
     999902    2    1    2    0    0 -0.19475311367E-01  0.15345504217E-02  0.15243200913E-01  0.10191510216E+01  0.10188497470E+01 0.  0.
     999903    2    3    3    0    0 -0.10252542847E+00 -0.46948124963E-02  0.81791357993E-01  0.13271727666E+00  0.19762199619E-01 0.  0.
         14    1    1    2    0    0  0.19475311367E-01 -0.15345504217E-02 -0.15243200913E-01  0.24778978427E-01  0.00000000000E+00 0. -1.
     999901    1    3    3    0    0  0.83050117103E-01  0.62293629179E-02 -0.66548157080E-01  0.88643374492E+00  0.88000000000E+00 0.  1.
        -11    1    4    4    0    0 -0.58210874938E-01 -0.44815408980E-02  0.34104148304E-01  0.67616153562E-01  0.51100000000E-03 0.  1.
         11    1    4    4    0    0 -0.44314553532E-01 -0.21327159828E-03  0.47687209689E-01  0.65101123096E-01  0.51100000000E-03 0. -1.
</event>
<event>
 8    1  0.1088021E+005  0.1043930E+01  0.7957747E-01            NaN
         13   -1    0    0    0    0  0.00000000000E+00  0.00000000000E+00  0.74505805969E-08  0.10566000000E+00  0.10566000000E+00 0. -1.
     999900   -1    0    0    0    0 -0.00000000000E+00 -0.00000000000E+00 -0.74505805969E-08  0.93827000000E+00  0.93827000000E+00 0. -1.
     999902    2    1    2    0    0  0.13310455678E-02 -0.23894234139E-01 -0.48163161760E-02  0.10195188753E+01  0.10192265862E+01 0.  0.
     999903    2    3    3    0    0  0.82149465126E-03 -0.44940428960E-02 -0.12906157917E+00  0.13057933156E+00  0.19318367863E-01 0.  0.
         14    1    1    2    0    0 -0.13310455678E-02  0.23894234139E-01  0.48163161760E-02  0.24411124695E-01  0.00000000000E+00 0. -1.
     999901    1    3    3    0    0  0.50955091651E-03 -0.19400191243E-01  0.12424526299E+00  0.88893954375E+00  0.88000000000E+00 0.  1.
        -11    1    4    4    0    0  0.73989769930E-02 -0.55482269437E-02 -0.32700719599E-01  0.33987142658E-01  0.51100000000E-03 0.  1.
         11    1    4    4    0    0 -0.65774823417E-02  0.10541840477E-02 -0.96360859571E-01  0.96592188899E-01  0.51100000000E-03 0. -1.
</event>
<event>
 8    1  0.1088021E+005  0.1043930E+01  0.7957747E-01            NaN
         13   -1    0    0    0    0  0.00000000000E+00  0.00000000000E+00  0.74505805969E-08  0.10566000000E+00  0.10566000000E+00 0.  1.
     999900   -1    0    0    0    0 -0.00000000000E+00 -0.00000000000E+00 -0.74505805969E-08  0.93827000000E+00  0.93827000000E+00 0. -1.
     999902    2    1    2    0    0  0.59782402019E-02  0.26063001394E-01  0.38605714458E-02  0.10169129052E+01  0.10165539501E+01 0.  0.
     999903    2    3    3    0    0 -0.73298983415E-01  0.91984658789E-01 -0.49832980603E-01  0.12926796460E+00  0.19823276595E-01 0.  0.
         14    1    1    2    0    0 -0.59782402019E-02 -0.26063001394E-01 -0.38605714458E-02  0.27017094764E-01  0.00000000000E+00 0.  1.
     999901    1    3    3    0    0  0.79277223617E-01 -0.65921657394E-01  0.53693552049E-01  0.88764494063E+00  0.88000000000E+00 0.  1.
        -11    1    4    4    0    0 -0.20869133273E-01  0.27437529551E-01 -0.51325112069E-02  0.34856025931E-01  0.51100000000E-03 0. -1.
         11    1    4    4    0    0 -0.52429850142E-01  0.64547129238E-01 -0.44700469396E-01  0.94411938673E-01  0.51100000000E-03 0.  1.
</event>
<event>
 8    1  0.1088021E+005  0.1043930E+01  0.7957747E-01            NaN
         13   -1    0    0    0    0  0.00000000000E+00  0.00000000000E+00  0.74505805969E-08  0.10566000000E+00  0.10566000000E+00 0. -1.
     999900   -1    0    0    0    0 -0.00000000000E+00 -0.00000000000E+00 -0.74505805969E-08  0.93827000000E+00  0.93827000000E+00 0.  1.
     999902    2    1    2    0    0 -0.18336736905E-01 -0.60414767207E-02  0.13906542839E-01  0.10201365703E+01  0.10198590564E+01 0.  0.
     999903    2    3    3    0    0 -0.71853296022E-01  0.38570838593E-01 -0.99311361929E-01  0.13015197792E+00  0.20644248841E-01 0.  0.
         14    1    1    2    0    0  0.18336736905E-01  0.60414767207E-02 -0.13906542839E-01  0.23793429661E-01  0.00000000000E+00 0.  1.
     999901    1    3    3    0    0  0.53516559118E-01 -0.44612315314E-01  0.11321790477E+00  0.88998459242E+00  0.88000000000E+00 0. -1.
        -11    1    4    4    0    0 -0.59324690025E-01  0.22085114029E-01 -0.71935967160E-01  0.95823878028E-01  0.51100000000E-03 0.  1.
         11    1    4    4    0    0 -0.12528605997E-01  0.16485724564E-01 -0.27375394769E-01  0.34328099895E-01  0.51100000000E-03 0. -1.
</event>
<event>
 8    1  0.1088021E+005  0.1043930E+01  0.7957747E-01            NaN
         13   -1    0    0    0    0  0.00000000000E+00  0.00000000000E+00  0.74505805969E-08  0.10566000000E+00  0.10566000000E+00 0. -1.
     999900   -1    0    0    0    0 -0.00000000000E+00 -0.00000000000E+00 -0.74505805969E-08  0.93827000000E+00  0.93827000000E+00 0.  1.
     999902    2    1    2    0    0 -0.20712484653E-01 -0.74461835806E-02  0.11270273713E-02  0.10218908788E+01  0.10216531923E+01 0.  0.
     999903    2    3    3    0    0  0.90346006008E-01  0.75386852167E-01  0.50946333439E-01  0.12965925902E+00  0.19246201660E-01 0.  0.
         14    1    1    2    0    0  0.20712484653E-01  0.74461835806E-02 -0.11270273713E-02  0.22039121151E-01  0.00000000000E+00 0.  1.
     999901    1    3    3    0    0 -0.11105849066E+00 -0.82833035747E-01 -0.49819306068E-01  0.89223161983E+00  0.88000000000E+00 0.  1.
        -11    1    4    4    0    0  0.49409726761E-01  0.51715593081E-01  0.25349559944E-01  0.75885999872E-01  0.51100000000E-03 0. -1.
         11    1    4    4    0    0  0.40936279248E-01  0.23671259085E-01  0.25596773495E-01  0.53773259151E-01  0.51100000000E-03 0.  1.
</event>
<event>
 8    1  0.1088021E+005  0.1043930E+01  0.7957747E-01            NaN
         13   -1    0    0    0    0  0.00000000000E+00  0.00000000000E+00  0.74505805969E-08  0.10566000000E+00  0.10566000000E+00 0.  1.
     999900   -1    0    0    0    0 -0.00000000000E+00 -0.00000000000E+00 -0.74505805969E-08  0.93827000000E+00  0.93827000000E+00 0.  1.
     999902    2    1    2    0    0  0.21036557178E-01  0.88541685037E-02  0.57348230378E-02  0.10203965933E+01  0.10201251817E+01 0.  0.
     999903    2    3    3    0    0  0.12337826630E+00 -0.44289908388E-02  0.46678374347E-01  0.13342047061E+00  0.19502276541E-01 0.  0.
         14    1    1    2    0    0 -0.21036557178E-01 -0.88541685037E-02 -0.57348230378E-02  0.23533406746E-01  0.00000000000E+00 0.  1.
     999901    1    3    3    0    0 -0.10234170912E+00  0.13283159343E-01 -0.40943551310E-01  0.88697612265E+00  0.88000000000E+00 0.  1.
        -11    1    4    4    0    0  0.76397646324E-02  0.29998016208E-02 -0.44321824305E-03  0.82354342213E-02  0.51100000000E-03 0. -1.
         11    1    4    4    0    0  0.11573850167E+00 -0.74287924596E-02  0.47121592590E-01  0.12518503639E+00  0.51100000000E-03 0.  1.
</event>
<event>
 8    1  0.1088021E+005  0.1043930E+01  0.7957747E-01            NaN
         13   -1    0    0    0    0  0.00000000000E+00  0.00000000000E+00  0.74505805969E-08  0.10566000000E+00  0.10566000000E+00 0.  1.
     999900   -1    0    0    0    0 -0.00000000000E+00 -0.00000000000E+00 -0.74505805969E-08  0.93827000000E+00  0.93827000000E+00 0.  1.
     999902    2    1    2    0    0 -0.14108595512E-01 -0.23814145281E-01  0.18785352921E-01  0.10104777136E+01  0.10099238358E+01 0.  0.
     999903    2    3    3    0    0  0.62784325875E-01 -0.19826024856E-02  0.10355010680E+00  0.12279860426E+00  0.20274868715E-01 0.  0.
         14    1    1    2    0    0  0.14108595512E-01  0.23814145281E-01 -0.18785352921E-01  0.33452286426E-01  0.00000000000E+00 0. -1.
     999901    1    3    3    0    0 -0.76892921387E-01 -0.21831542796E-01 -0.84764753875E-01  0.88767910932E+00  0.88000000000E+00 0.  1.
        -11    1    4    4    0    0  0.12204933949E-01  0.54735928071E-02  0.12189353698E-01  0.18104201045E-01  0.51100000000E-03 0.  1.
         11    1    4    4    0    0  0.50579391926E-01 -0.74561952927E-02  0.91360753098E-01  0.10469440321E+00  0.51100000000E-03 0. -1.
</event>
<event>
 8    1  0.1088021E+005  0.1043930E+01  0.7957747E-01            NaN
         13   -1    0    0    0    0  0.00000000000E+00  0.00000000000E+00  0.74505805969E-08  0.10566000000E+00  0.10566000000E+00 0. -1.
     999900   -1    0    0    0    0 -0.00000000000E+00 -0.00000000000E+00 -0.74505805969E-08  0.93827000000E+00  0.93827000000E+00 0. -1.
     999902    2    1    2    0    0 -0.89695885092E-02 -0.20562718977E-01  0.77986131617E-02  0.10201792674E+01  0.10199027603E+01 0.  0.
     999903    2    3    3    0    0  0.71967982714E-01  0.90274805524E-01  0.52115555490E-01  0.12843948553E+00  0.21254158887E-01 0.  0.
         14    1    1    2    0    0  0.89695885092E-02  0.20562718977E-01 -0.77986131617E-02  0.23750732557E-01  0.00000000000E+00 0.  1.
     999901    1    3    3    0    0 -0.80937571224E-01 -0.11083752450E+00 -0.44316942329E-01  0.89173978192E+00  0.88000000000E+00 0. -1.
        -11    1    4    4    0    0  0.16493210012E-01  0.27024533722E-01  0.24005264539E-01  0.39734937347E-01  0.51100000000E-03 0.  1.
         11    1    4    4    0    0  0.55474772702E-01  0.63250271802E-01  0.28110290951E-01  0.88704548180E-01  0.51100000000E-03 0. -1.
</event>
<event>
 8    1  0.1088021E+005  0.1043930E+01  0.7957747E-01            NaN
         13   -1    0    0    0    0  0.00000000000E+00  0.00000000000E+00  0.74505805969E-08  0.10566000000E+00  0.10566000000E+00 0. -1.
     999900   -1    0    0    0    0 -0.00000000000E+00 -0.00000000000E+00 -0.74505805969E-08  0.93827000000E+00  0.93827000000E+00 0.  1.
     999902    2    1    2    0    0 -0.12833822907E-01 -0.20202385394E-01 -0.48627199327E-02  0.10195068669E+01  0.10192142867E+01 0.  0.
     999903    2    3    3    0    0 -0.50890779997E-01  0.11521266189E+00 -0.13684318179E-01  0.12829230932E+00  0.20194729975E-01 0.  0.
         14    1    1    2    0    0  0.12833822907E-01  0.20202385394E-01  0.48627199327E-02  0.24423133115E-01  0.00000000000E+00 0.  1.
     999901    1    3    3    0    0  0.38056957091E-01 -0.13541504729E+00  0.88215982463E-02  0.89121455756E+00  0.88000000000E+00 0.  1.
        -11    1    4    4    0    0  0.11619803508E-02  0.63340113469E-02 -0.30447279542E-02  0.71415255649E-02  0.51100000000E-03 0.  1.
         11    1    4    4    0    0 -0.52052760348E-01  0.10887865054E+00 -0.10639590225E-01  0.12115078376E+00  0.51100000000E-03 0. -1.
</event>
<event>
 8    1  0.1088021E+005  0.1043930E+01  0.7957747E-01            NaN
         13   -1    0    0    0    0  0.00000000000E+00  0.00000000000E+00  0.74505805969E-08  0.10566000000E+00  0.10566000000E+00 0. -1.
     999900   -1    0    0    0    0 -0.00000000000E+00 -0.00000000000E+00 -0.74505805969E-08  0.93827000000E+00  0.93827000000E+00 0.  1.
     999902    2    1    2    0    0  0.15875144653E-01 -0.10085399485E-01 -0.17865711333E-01  0.10179893149E+01  0.10176587474E+01 0.  0.
     999903    2    3    3    0    0  0.13021798900E-01  0.30448217284E-01 -0.12464463563E+00  0.13060391143E+00  0.20601827749E-01 0.  0.
         14    1    1    2    0    0 -0.15875144653E-01  0.10085399485E-01  0.17865711333E-01  0.25940685071E-01  0.00000000000E+00 0. -1.
     999901    1    3    3    0    0  0.28533457525E-02 -0.40533616769E-01  0.10677892430E+00  0.88738540350E+00  0.88000000000E+00 0. -1.
        -11    1    4    4    0    0  0.91380489990E-02  0.30303761451E-01 -0.83935234144E-01  0.89706223582E-01  0.51100000000E-03 0. -1.
         11    1    4    4    0    0  0.38837499010E-02  0.14445583336E-03 -0.40709401487E-01  0.40897687847E-01  0.51100000000E-03 0.  1.
</event>
<event>
 8    1  0.1088021E+005  0.1043930E+01  0.7957747E-01            NaN
         13   -1    0    0    0    0  0.00000000000E+00  0.00000000000E+00  0.74505805969E-08  0.10566000000E+00  0.10566000000E+00 0.  1.
     999900   -1    0    0    0    0 -0.00000000000E+00 -0.00000000000E+00 -0.74505805969E-08  0.93827000000E+00  0.93827000000E+00 0. -1.
     999902    2    1    2    0    0  0.23155054129E-01  0.17215749161E-02 -0.64860110277E-03  0.10207019774E+01  0.10204376441E+01 0.  0.
     999903    2    3    3    0    0 -0.89731136237E-01 -0.58738013483E-01 -0.68397124022E-01  0.12885640993E+00  0.20590696133E-01 0.  0.
         14    1    1    2    0    0 -0.23155054129E-01 -0.17215749161E-02  0.64860110277E-03  0.23228022630E-01  0.00000000000E+00 0.  1.
     999901    1    3    3    0    0  0.11288619037E+00  0.60459588399E-01  0.67748522919E-01  0.89184556744E+00  0.88000000000E+00 0.  1.
        -11    1    4    4    0    0 -0.29810279121E-01 -0.30976052405E-01 -0.23475842742E-01  0.48985149559E-01  0.51100000000E-03 0. -1.
         11    1    4    4    0    0 -0.59920857116E-01 -0.27761961078E-01 -0.44921281280E-01  0.79871260371E-01  0.51100000000E-03 0.  1.
</event>
<event>
 8    1  0.1088021E+005  0.1043930E+01  0.7957747E-01            NaN
         13   -1    0    0    0    0  0.00000000000E+00  0.00000000000E+00  0.74505805969E-08  0.10566000000E+00  0.10566000000E+00 0. -1.
     999900   -1    0    0    0    0 -0.00000000000E+00 -0.00000000000E+00 -0.74505805969E-08  0.93827000000E+00  0.93827000000E+00 0.  1.
     999902    2    1    2    0    0  0.20461111514E-01  0.34977062303E-02  0.12010070705E-01  0.10199480728E+01  0.10196660916E+01 0.  0.
     999903    2    3    3    0    0 -0.82960617581E-01  0.21654232862E-01  0.95341599469E-01  0.12979648056E+00  0.20142887223E-01 0.  0.
         14    1    1    2    0    0 -0.20461111514E-01 -0.34977062303E-02 -0.12010070705E-01  0.23981927186E-01  0.00000000000E+00 0.  1.
     999901    1    3    3    0    0  0.10342172909E+00 -0.18156526632E-01 -0.83331528765E-01  0.89015159226E+00  0.88000000000E+00 0.  1.
        -11    1    4    4    0    0 -0.42662540008E-01  0.14775879358E-01  0.63793252123E-01  0.78155352140E-01  0.51100000000E-03 0.  1.
         11    1    4    4    0    0 -0.40298077573E-01  0.68783535044E-02  0.31548347346E-01  0.51641128418E-01  0.51100000000E-03 0. -1.
</event>
<event>
 8    1  0.1088021E+005  0.1043930E+01  0.7957747E-01            NaN
         13   -1    0    0    0    0  0.00000000000E+00  0.00000000000E+00  0.74505805969E-08  0.10566000000E+00  0.10566000000E+00 0.  1.
     999900   -1    0    0    0    0 -0.00000000000E+00 -0.00000000000E+00 -0.74505805969E-08  0.93827000000E+00  0.93827000000E+00 0.  1.
     999902    2    1    2    0    0  0.11677041622E-01  0.37674201642E-02  0.20029530242E-01  0.10204410912E+01  0.10201707170E+01 0.  0.
     999903    2    3    3    0    0  0.20637701104E-01 -0.85848328805E-01 -0.91797692045E-01  0.12880405543E+00  0.19178586096E-01 0.  0.
         14    1    1    2    0    0 -0.11677041622E-01 -0.37674201642E-02 -0.20029530242E-01  0.23488908818E-01  0.00000000000E+00 0. -1.
     999901    1    3    3    0    0 -0.89606594819E-02  0.89615748969E-01  0.11182722229E+00  0.89163703575E+00  0.88000000000E+00 0. -1.
        -11    1    4    4    0    0  0.16943716051E-01 -0.44566768392E-01 -0.38492457698E-01  0.61279823589E-01  0.51100000000E-03 0.  1.
         11    1    4    4    0    0  0.36939850531E-02 -0.41281560413E-01 -0.53305234347E-01  0.67524231840E-01  0.51100000000E-03 0. -1.
</event>
<event>
 8    1  0.1088021E+005  0.1043930E+01  0.7957747E-01            NaN
         13   -1    0    0    0    0  0.00000000000E+00  0.00000000000E+00  0.74505805969E-08  0.10566000000E+00  0.10566000000E+00 0.  1.
     999900   -1    0    0    0    0 -0.00000000000E+00 -0.00000000000E+00 -0.74505805969E-08  0.93827000000E+00  0.93827000000E+00 0. -1.
     999902    2    1    2    0    0  0.86892519930E-02  0.61158703244E-02 -0.26706583582E-01  0.10151871996E+01  0.10147802233E+01 0.  0.
     999903    2    3    3    0    0 -0.48420072184E-02  0.50336192565E-01 -0.11754039111E+00  0.12930384807E+00  0.18616236629E-01 0.  0.
         14    1    1    2    0    0 -0.86892519930E-02 -0.61158703244E-02  0.26706583582E-01  0.28742800431E-01  0.00000000000E+00 0.  1.
     999901    1    3    3    0    0  0.13531259211E-01 -0.44220322241E-01  0.90833807532E-01  0.88588335150E+00  0.88000000000E+00 0.  1.
        -11    1    4    4    0    0 -0.80999503316E-02  0.29577651900E-01 -0.50892692981E-01  0.59420316451E-01  0.51100000000E-03 0. -1.
         11    1    4    4    0    0  0.32579431132E-02  0.20758540665E-01 -0.66647698133E-01  0.69883531617E-01  0.51100000000E-03 0.  1.
</event>
<event>
 8    1  0.1088021E+005  0.1043930E+01  0.7957747E-01            NaN
         13   -1    0    0    0    0  0.00000000000E+00  0.00000000000E+00  0.74505805969E-08  0.10566000000E+00  0.10566000000E+00 0.  1.
     999900   -1    0    0    0    0 -0.00000000000E+00 -0.00000000000E+00 -0.74505805969E-08  0.93827000000E+00  0.93827000000E+00 0. -1.
     999902    2    1    2    0    0 -0.91659372984E-02 -0.57483283550E-02 -0.21355745488E-01  0.10199899593E+01  0.10197089739E+01 0.  0.
     999903    2    3    3    0    0 -0.10320805306E+00 -0.40335416045E-01 -0.70267257303E-01  0.13295415267E+00  0.21458594115E-01 0.  0.
         14    1    1    2    0    0  0.91659372984E-02  0.57483283550E-02  0.21355745488E-01  0.23940040743E-01  0.00000000000E+00 0.  1.
     999901    1    3    3    0    0  0.94042115758E-01  0.34587087690E-01  0.48911511816E-01  0.88703580658E+00  0.88000000000E+00 0.  1.
        -11    1    4    4    0    0 -0.56569551894E-01 -0.26835423260E-01 -0.50844712206E-01  0.80657919781E-01  0.51100000000E-03 0.  1.
         11    1    4    4    0    0 -0.46638501163E-01 -0.13499992785E-01 -0.19422545097E-01  0.52296232894E-01  0.51100000000E-03 0. -1.
</event>
<event>
 8    1  0.1088021E+005  0.1043930E+01  0.7957747E-01            NaN
         13   -1    0    0    0    0  0.00000000000E+00  0.00000000000E+00  0.74505805969E-08  0.10566000000E+00  0.10566000000E+00 0. -1.
     999900   -1    0    0    0    0 -0.00000000000E+00 -0.00000000000E+00 -0.74505805969E-08  0.93827000000E+00  0.93827000000E+00 0.  1.
     999902    2    1    2    0    0 -0.11304957115E-01 -0.71884708467E-02 -0.23374170411E-01  0.10169888046E+01  0.10166318904E+01 0.  0.
     999903    2    3    3    0    0 -0.51699375798E-01 -0.34991985563E-01  0.10749481638E+00  0.12596050189E+00  0.20338337595E-01 0.  0.
         14    1    1    2    0    0  0.11304957115E-01  0.71884708467E-02  0.23374170411E-01  0.26941195424E-01  0.00000000000E+00 0. -1.
     999901    1    3    3    0    0  0.40394418682E-01  0.27803514716E-01 -0.13086898679E+00  0.89102830269E+00  0.88000000000E+00 0.  1.
        -11    1    4    4    0    0 -0.16070008605E-01 -0.56302390345E-02  0.46061684828E-01  0.49110942755E-01  0.51100000000E-03 0. -1.
         11    1    4    4    0    0 -0.35629367192E-01 -0.29361746528E-01  0.61433131549E-01  0.76849559131E-01  0.51100000000E-03 0.  1.
</event>
<event>
 8    1  0.1088021E+005  0.1043930E+01  0.7957747E-01            NaN
         13   -1    0    0    0    0  0.00000000000E+00  0.00000000000E+00  0.74505805969E-08  0.10566000000E+00  0.10566000000E+00 0. -1.
     999900   -1    0    0    0    0 -0.00000000000E+00 -0.00000000000E+00 -0.74505805969E-08  0.93827000000E+00  0.93827000000E+00 0. -1.
     999902    2    1    2    0    0 -0.72476485716E-02  0.15271150052E-01  0.16940517196E-01  0.10199984819E+01  0.10197176990E+01 0.  0.
     999903    2    3    3    0    0 -0.64293850509E-01 -0.10251825607E+00 -0.38490441733E-01  0.12859441837E+00  0.20280983412E-01 0.  0.
         14    1    1    2    0    0  0.72476485716E-02 -0.15271150052E-01 -0.16940517196E-01  0.23931518059E-01  0.00000000000E+00 0.  1.
     999901    1    3    3    0    0  0.57046201937E-01  0.11778940613E+00  0.55430958930E-01  0.89140406358E+00  0.88000000000E+00 0.  1.
        -11    1    4    4    0    0 -0.48813266218E-03 -0.11027693857E-01 -0.19702618262E-02  0.11224587206E-01  0.51100000000E-03 0.  1.
         11    1    4    4    0    0 -0.63805717847E-01 -0.91490562218E-01 -0.36520179907E-01  0.11736983116E+00  0.51100000000E-03 0. -1.
</event>
<event>
 8    1  0.1088021E+005  0.1043930E+01  0.7957747E-01            NaN
         13   -1    0    0    0    0  0.00000000000E+00  0.00000000000E+00  0.74505805969E-08  0.10566000000E+00  0.10566000000E+00 0.  1.
     999900   -1    0    0    0    0 -0.00000000000E+00 -0.00000000000E+00 -0.74505805969E-08  0.93827000000E+00  0.93827000000E+00 0.  1.
     999902    2    1    2    0    0  0.36529222342E-02  0.17955727413E-01 -0.14685137156E-01  0.10204479805E+01  0.10201777667E+01 0.  0.
     999903    2    3    3    0    0 -0.61407703841E-01  0.73726671465E-01 -0.89654551522E-01  0.13311281473E+00  0.21784275559E-01 0.  0.
         14    1    1    2    0    0 -0.36529222342E-02 -0.17955727413E-01  0.14685137156E-01  0.23482019527E-01  0.00000000000E+00 0. -1.
     999901    1    3    3    0    0  0.65060626075E-01 -0.55770944052E-01  0.74969414366E-01  0.88733516574E+00  0.88000000000E+00 0. -1.
        -11    1    4    4    0    0 -0.54184481577E-01  0.50580815388E-01 -0.68531784153E-01  0.10095168889E+00  0.51100000000E-03 0. -1.
         11    1    4    4    0    0 -0.72232222643E-02  0.23145856078E-01 -0.21122767369E-01  0.32161125847E-01  0.51100000000E-03 0.  1.
</event>
<event>
 8    1  0.1088021E+005  0.1043930E+01  0.7957747E-01            NaN
         13   -1    0    0    0    0  0.00000000000E+00  0.00000000000E+00  0.74505805969E-08  0.10566000000E+00  0.10566000000E+00 0. -1.
     999900   -1    0    0    0    0 -0.00000000000E+00 -0.00000000000E+00 -0.74505805969E-08  0.93827000000E+00  0.93827000000E+00 0.  1.
     999902    2    1    2    0    0 -0.87369890004E-02  0.22249963682E-01  0.67328915201E-03  0.10200166318E+01  0.10197362796E+01 0.  0.
     999903    2    3    3    0    0 -0.41025056544E-01 -0.11948809103E+00 -0.60015839590E-02  0.12806554043E+00  0.20107323872E-01 0.  0.
         14    1    1    2    0    0  0.87369890004E-02 -0.22249963682E-01 -0.67328915201E-03  0.23913368205E-01  0.00000000000E+00 0.  1.
     999901    1    3    3    0    0  0.32288067543E-01  0.14173805471E+00  0.66748731110E-02  0.89195109137E+00  0.88000000000E+00 0.  1.
        -11    1    4    4    0    0 -0.29483423642E-01 -0.55101214809E-01 -0.19758163179E-02  0.62526643235E-01  0.51100000000E-03 0. -1.
         11    1    4    4    0    0 -0.11541632902E-01 -0.64386876219E-01 -0.40257676412E-02  0.65538897193E-01  0.51100000000E-03 0.  1.
</event>
<event>
 8    1  0.1088021E+005  0.1043930E+01  0.7957747E-01            NaN
         13   -1    0    0    0    0  0.00000000000E+00  0.00000000000E+00  0.74505805969E-08  0.10566000000E+00  0.10566000000E+00 0.  1.
     999900   -1    0    0    0    0 -0.00000000000E+00 -0.00000000000E+00 -0.74505805969E-08  0.93827000000E+00  0.93827000000E+00 0.  1.
     999902    2    1    2    0    0 -0.95711869223E-02  0.21552006983E-01  0.50156579291E-02  0.10198208016E+01  0.10195357835E+01 0.  0.
     999903    2    3    3    0    0  0.70535021594E-01  0.73332876210E-01  0.80381879761E-01  0.13146370533E+00  0.21646228787E-01 0.  0.
         14    1    1    2    0    0  0.95711869223E-02 -0.21552006983E-01 -0.50156579291E-02  0.24109198422E-01  0.00000000000E+00 0. -1.
     999901    1    3    3    0    0 -0.80106208516E-01 -0.51780869227E-01 -0.75366221832E-01  0.88835709625E+00  0.88000000000E+00 0.  1.
        -11    1    4    4    0    0  0.32053210036E-01  0.42016323070E-01  0.30085216572E-01  0.60812507390E-01  0.51100000000E-03 0.  1.
         11    1    4    4    0    0  0.38481811558E-01  0.31316553140E-01  0.50296663189E-01  0.70651197940E-01  0.51100000000E-03 0. -1.
</event>
<event>
 8    1  0.1088021E+005  0.1043930E+01  0.7957747E-01            NaN
         13   -1    0    0    0    0  0.00000000000E+00  0.00000000000E+00  0.74505805969E-08  0.10566000000E+00  0.10566000000E+00 0.  1.
     999900   -1    0    0    0    0 -0.00000000000E+00 -0.00000000000E+00 -0.74505805969E-08  0.93827000000E+00  0.93827000000E+00 0.  1.
     999902    2    1    2    0    0  0.77971779951E-02 -0.16030665207E-01  0.15308220844E-01  0.10204327696E+01  0.10201622015E+01 0.  0.
     999903    2    3    3    0    0 -0.73397752936E-01 -0.21693043850E-01 -0.10203545351E+00  0.12892044928E+00  0.18746471211E-01 0.  0.
         14    1    1    2    0    0 -0.77971779951E-02  0.16030665207E-01 -0.15308220844E-01  0.23497230413E-01  0.00000000000E+00 0. -1.
     999901    1    3    3    0    0  0.81194930931E-01  0.56623786431E-02  0.11734367436E+00  0.89151232030E+00  0.88000000000E+00 0. -1.
        -11    1    4    4    0    0 -0.26198641439E-01  0.10924833078E-02 -0.37953430046E-01  0.46133353512E-01  0.51100000000E-03 0. -1.
         11    1    4    4    0    0 -0.47199111497E-01 -0.22785527158E-01 -0.64082023466E-01  0.82787095772E-01  0.51100000000E-03 0.  1.
</event>
<event>
 8    1  0.1088021E+005  0.1043930E+01  0.7957747E-01            NaN
         13   -1    0    0    0    0  0.00000000000E+00  0.00000000000E+00  0.74505805969E-08  0.10566000000E+00  0.10566000000E+00 0. -1.
     999900   -1    0    0    0    0 -0.00000000000E+00 -0.00000000000E+00 -0.74505805969E-08  0.93827000000E+00  0.93827000000E+00 0. -1.
     999902    2    1    2    0    0  0.21006262905E-02  0.14979798432E-01 -0.19187143788E-01  0.10194973686E+01  0.10192045580E+01 0.  0.
     999903    2    3    3    0    0  0.12171999969E+00  0.39421329975E-01 -0.18683586217E-01  0.13106817245E+00  0.21447374053E-01 0.  0.
         14    1    1    2    0    0 -0.21006262905E-02 -0.14979798432E-01  0.19187143788E-01  0.24432631430E-01  0.00000000000E+00 0. -1.
     999901    1    3    3    0    0 -0.11961937340E+00 -0.24441531543E-01 -0.50355757080E-03  0.88842919612E+00  0.88000000000E+00 0. -1.
        -11    1    4    4    0    0  0.99909599142E-01  0.25287566588E-01 -0.20228148578E-01  0.10502774938E+00  0.51100000000E-03 0. -1.
         11    1    4    4    0    0  0.21810400544E-01  0.14133763387E-01  0.15445623612E-02  0.26040423063E-01  0.51100000000E-03 0.  1.
</event>
<event>
 8    1  0.1088021E+005  0.1043930E+01  0.7957747E-01            NaN
         13   -1    0    0    0    0  0.00000000000E+00  0.00000000000E+00  0.74505805969E-08  0.10566000000E+00  0.10566000000E+00 0.  1.
     999900   -1    0    0    0    0 -0.00000000000E+00 -0.00000000000E+00 -0.74505805969E-08  0.93827000000E+00  0.93827000000E+00 0.  1.
     999902    2    1    2    0    0  0.80874386880E-02  0.72131638718E-02  0.21266109835E-01  0.10200619497E+01  0.10197826717E+01 0.  0.
     999903    2    3    3    0    0  0.11163089381E+00 -0.63615368259E-01 -0.78218437549E-02  0.13068911612E+00  0.22585223061E-01 0.  0.
         14    1    1    2    0    0 -0.80874386880E-02 -0.72131638718E-02 -0.21266109835E-01  0.23868050299E-01  0.00000000000E+00 0. -1.
     999901    1    3    3    0    0 -0.10354345513E+00  0.70828532131E-01  0.29087953590E-01  0.88937283358E+00  0.88000000000E+00 0. -1.
        -11    1    4    4    0    0  0.92975948926E-01 -0.42378509684E-01 -0.57288426188E-02  0.10234034356E+00  0.51100000000E-03 0.  1.
         11    1    4    4    0    0  0.18654944888E-01 -0.21236858575E-01 -0.20930011361E-02  0.28348772560E-01  0.51100000000E-03 0. -1.
</event>
<event>
 8    1  0.1088021E+005  0.1043930E+01  0.7957747E-01            NaN
         13   -1    0    0    0    0  0.00000000000E+00  0.00000000000E+00  0.74505805969E-08  0.10566000000E+00  0.10566000000E+00 0.  1.
     999900   -1    0    0    0    0 -0.00000000000E+00 -0.00000000000E+00 -0.74505805969E-08  0.93827000000E+00  0.93827000000E+00 0.  1.
     999902    2    1    2    0    0  0.20105956396E-01 -0.11840137370E-01 -0.46493584575E-02  0.10201380924E+01  0.10198606143E+01 0.  0.
     999903    2    3    3    0    0 -0.12466447695E+00 -0.62058340072E-04 -0.15691873520E-01  0.12816323920E+00  0.25265496668E-01 0.  0.
         14    1    1    2    0    0 -0.20105956396E-01  0.11840137370E-01  0.46493584575E-02  0.23791907650E-01  0.00000000000E+00 0.  1.
     999901    1    3    3    0    0  0.14477043335E+00 -0.11778079030E-01  0.11042515063E-01  0.89197485315E+00  0.88000000000E+00 0. -1.
        -11    1    4    4    0    0 -0.87243617943E-01 -0.10053388675E-01 -0.49289780979E-02  0.87960647120E-01  0.51100000000E-03 0. -1.
         11    1    4    4    0    0 -0.37420859010E-01  0.99913303352E-02 -0.10762895423E-01  0.40202592078E-01  0.51100000000E-03 0.  1.
</event>
<event>
 8    1  0.1088021E+005  0.1043930E+01  0.7957747E-01            NaN
         13   -1    0    0    0    0  0.00000000000E+00  0.00000000000E+00  0.74505805969E-08  0.10566000000E+00  0.10566000000E+00 0. -1.
     999900   -1    0    0    0    0 -0.00000000000E+00 -0.00000000000E+00 -0.74505805969E-08  0.93827000000E+00  0.93827000000E+00 0. -1.
     999902    2    1    2    0    0  0.14269624523E-01  0.17963031537E-01 -0.40537600748E-02  0.10206335269E+01  0.10203676155E+01 0.  0.
     999903    2    3    3    0    0  0.11537355265E+00 -0.58213207281E-01  0.13428183609E-01  0.13140327443E+00  0.19663933023E-01 0.  0.
         14    1    1    2    0    0 -0.14269624523E-01 -0.17963031537E-01  0.40537600748E-02  0.23296473054E-01  0.00000000000E+00 0. -1.
     999901    1    3    3    0    0 -0.10110392813E+00  0.76176238818E-01 -0.17481943684E-01  0.88923025252E+00  0.88000000000E+00 0.  1.
        -11    1    4    4    0    0  0.67438612234E-01 -0.44393120267E-01  0.59934972122E-02  0.80962328752E-01  0.51100000000E-03 0.  1.
         11    1    4    4    0    0  0.47934940414E-01 -0.13820087014E-01  0.74346863967E-02  0.50440945673E-01  0.51100000000E-03 0. -1.
</event>
<event>
 8    1  0.1088021E+005  0.1043930E+01  0.7957747E-01            NaN
         13   -1    0    0    0    0  0.00000000000E+00  0.00000000000E+00  0.74505805969E-08  0.10566000000E+00  0.10566000000E+00 0.  1.
     999900   -1    0    0    0    0 -0.00000000000E+00 -0.00000000000E+00 -0.74505805969E-08  0.93827000000E+00  0.93827000000E+00 0.  1.
     999902    2    1    2    0    0 -0.13612787399E-01  0.16671118128E-02  0.17614481405E-01  0.10216060846E+01  0.10213621468E+01 0.  0.
     999903    2    3    3    0    0 -0.91573682330E-02  0.98455724546E-01  0.87435325680E-01  0.13353917464E+00  0.20258032914E-01 0.  0.
         14    1    1    2    0    0  0.13612787399E-01 -0.16671118128E-02 -0.17614481405E-01  0.22323915376E-01  0.00000000000E+00 0. -1.
     999901    1    3    3    0    0 -0.44554191660E-02 -0.96788612733E-01 -0.69820844276E-01  0.88806690998E+00  0.88000000000E+00 0.  1.
        -11    1    4    4    0    0  0.63792768351E-02  0.28946776614E-01  0.23574495487E-01  0.37876496773E-01  0.51100000000E-03 0.  1.
         11    1    4    4    0    0 -0.15536645068E-01  0.69508947932E-01  0.63860830193E-01  0.95662677866E-01  0.51100000000E-03 0. -1.
</event>
<event>
 7    1  0.1088021E+005  0.1043930E+01  0.7957747E-01            NaN
         13   -1    0    0    0    0  0.00000000000E+00  0.00000000000E+00  0.74505805969E-08  0.10566000000E+00  0.10566000000E+00 0.  1.
     999900   -1    0    0    0    0 -0.00000000000E+00 -0.00000000000E+00 -0.74505805969E-08  0.93827000000E+00  0.93827000000E+00 0.  1.
     999903    2    1    2    0    0 -0.27304927888E-01 -0.36209698213E-01 -0.86998189634E-01  0.10014637219E+00  0.20097500649E-01 0.  0.
         14    1    1    2    0    0 -0.53858063282E-01  0.96724525903E-03  0.17420822954E-01  0.56613705198E-01  0.00000000000E+00 0. -1.
     999901    1    1    2    0    0  0.81162991170E-01  0.35242452954E-01  0.69577366681E-01  0.88716992261E+00  0.88000000000E+00 0. -1.
        -11    1    3    3    0    0 -0.19104299349E-01 -0.12509628877E-01 -0.54504362649E-01  0.59096968933E-01  0.51100000000E-03 0.  1.
         11    1    3    3    0    0 -0.82006285399E-02 -0.23700069336E-01 -0.32493826985E-01  0.41049403262E-01  0.51100000000E-03 0. -1.
</event>
<event>
 8    1  0.1088021E+005  0.1043930E+01  0.7957747E-01            NaN
         13   -1    0    0    0    0  0.00000000000E+00  0.00000000000E+00  0.74505805969E-08  0.10566000000E+00  0.10566000000E+00 0. -1.
     999900   -1    0    0    0    0 -0.00000000000E+00 -0.00000000000E+00 -0.74505805969E-08  0.93827000000E+00  0.93827000000E+00 0.  1.
     999902    2    1    2    0    0 -0.56335780951E-02  0.23774895948E-01  0.80566440142E-04  0.10194966341E+01  0.10192038057E+01 0.  0.
     999903    2    3    3    0    0  0.45501312519E-01 -0.55936307724E-01 -0.10496215671E+00  0.12820396233E+00  0.14831104227E-01 0.  0.
         14    1    1    2    0    0  0.56335780951E-02 -0.23774895948E-01 -0.80566440142E-04  0.24433365925E-01  0.00000000000E+00 0. -1.
     999901    1    3    3    0    0 -0.51134890614E-01  0.79711203671E-01  0.10504272315E+00  0.89129267175E+00  0.88000000000E+00 0. -1.
        -11    1    4    4    0    0  0.30734014776E-01 -0.44983823054E-01 -0.70051635454E-01  0.88744671680E-01  0.51100000000E-03 0. -1.
         11    1    4    4    0    0  0.14767297743E-01 -0.10952484670E-01 -0.34910521253E-01  0.39459290645E-01  0.51100000000E-03 0.  1.
</event>
<event>
 8    1  0.1088021E+005  0.1043930E+01  0.7957747E-01            NaN
         13   -1    0    0    0    0  0.00000000000E+00  0.00000000000E+00  0.74505805969E-08  0.10566000000E+00  0.10566000000E+00 0.  1.
     999900   -1    0    0    0    0 -0.00000000000E+00 -0.00000000000E+00 -0.74505805969E-08  0.93827000000E+00  0.93827000000E+00 0.  1.
     999902    2    1    2    0    0 -0.18686683512E-01  0.11755965543E-01  0.60240305674E-02  0.10210458612E+01  0.10207893841E+01 0.  0.
     999903    2    3    3    0    0  0.10589710919E+00  0.93297607632E-02  0.71784255328E-01  0.12983802062E+00  0.20092041056E-01 0.  0.
         14    1    1    2    0    0  0.18686683512E-01 -0.11755965543E-01 -0.60240305674E-02  0.22884138848E-01  0.00000000000E+00 0. -1.
     999901    1    3    3    0    0 -0.12458379270E+00  0.24262047799E-02 -0.65760224760E-01  0.89120784054E+00  0.88000000000E+00 0. -1.
        -11    1    4    4    0    0  0.28670240582E-01  0.53426889781E-02  0.99297872923E-02  0.30812153725E-01  0.51100000000E-03 0. -1.
         11    1    4    4    0    0  0.77226868608E-01  0.39870717851E-02  0.61854468035E-01  0.99025866890E-01  0.51100000000E-03 0.  1.
</event>
<event>
 8    1  0.1088021E+005  0.1043930E+01  0.7957747E-01            NaN
         13   -1    0    0    0    0  0.00000000000E+00  0.00000000000E+00  0.74505805969E-08  0.10566000000E+00  0.10566000000E+00 0.  1.
     999900   -1    0    0    0    0 -0.00000000000E+00 -0.00000000000E+00 -0.74505805969E-08  0.93827000000E+00  0.93827000000E+00 0.  1.
     999902    2    1    2    0    0 -0.86721153492E-02 -0.52897709584E-02 -0.21317234171E-01  0.10203161961E+01  0.10200429051E+01 0.  0.
     999903    2    3    3    0    0 -0.96151711925E-01  0.81003672679E-01  0.28335303437E-01  0.13039225963E+00  0.19811745424E-01 0.  0.
         14    1    1    2    0    0  0.86721153492E-02  0.52897709584E-02  0.21317234171E-01  0.23613803889E-01  0.00000000000E+00 0.  1.
     999901    1    3    3    0    0  0.87479596576E-01 -0.86293443637E-01 -0.49652537608E-01  0.88992393648E+00  0.88000000000E+00 0. -1.
        -11    1    4    4    0    0 -0.62313594000E-01  0.57037671038E-01  0.27751339933E-01  0.88919502382E-01  0.51100000000E-03 0.  1.
         11    1    4    4    0    0 -0.33838117925E-01  0.23966001640E-01  0.58396350309E-03  0.41472757247E-01  0.51100000000E-03 0. -1.
</event>
<event>
 8    1  0.1088021E+005  0.1043930E+01  0.7957747E-01            NaN
         13   -1    0    0    0    0  0.00000000000E+00  0.00000000000E+00  0.74505805969E-08  0.10566000000E+00  0.10566000000E+00 0.  1.
     999900   -1    0    0    0    0 -0.00000000000E+00 -0.00000000000E+00 -0.74505805969E-08  0.93827000000E+00  0.93827000000E+00 0.  1.
     999902    2    1    2    0    0 -0.15353469988E-01  0.17247299650E-01 -0.19305487788E-02  0.10207583491E+01  0.10204953120E+01 0.  0.
     999903    2    3    3    0    0  0.90045406573E-02 -0.66312723900E-01 -0.10952051377E+00  0.12994344647E+00  0.20300178347E-01 0.  0.
         14    1    1    2    0    0  0.15353469988E-01 -0.17247299650E-01  0.19305487788E-02  0.23171650879E-01  0.00000000000E+00 0. -1.
     999901    1    3    3    0    0 -0.24358010645E-01  0.83560023550E-01  0.10758996499E+00  0.89081490265E+00  0.88000000000E+00 0. -1.
        -11    1    4    4    0    0  0.53882758611E-02 -0.35195605452E-01 -0.39199893752E-01  0.52959011991E-01  0.51100000000E-03 0.  1.
         11    1    4    4    0    0  0.36162647963E-02 -0.31117118448E-01 -0.70320620017E-01  0.76984434479E-01  0.51100000000E-03 0. -1.
</event>
<event>
 8    1  0.1088021E+005  0.1043930E+01  0.7957747E-01            NaN
         13   -1    0    0    0    0  0.00000000000E+00  0.00000000000E+00  0.74505805969E-08  0.10566000000E+00  0.10566000000E+00 0.  1.
     999900   -1    0    0    0    0 -0.00000000000E+00 -0.00000000000E+00 -0.74505805969E-08  0.93827000000E+00  0.93827000000E+00 0.  1.
     999902    2    1    2    0    0 -0.14452672394E-01  0.17727626226E-01 -0.40650936082E-02  0.10206991271E+01  0.10204347282E+01 0.  0.
     999903    2    3    3    0    0  0.15501285479E-01 -0.68103856484E-01  0.10731810491E+00  0.12903186855E+00  0.15925524786E-01 0.  0.
         14    1    1    2    0    0  0.14452672394E-01 -0.17727626226E-01  0.40650936082E-02  0.23230872928E-01  0.00000000000E+00 0.  1.
     999901    1    3    3    0    0 -0.29953957873E-01  0.85831482710E-01 -0.11138319852E+00  0.89166725853E+00  0.88000000000E+00 0.  1.
        -11    1    4    4    0    0  0.11499214752E-01 -0.34822165993E-01  0.68818960970E-01  0.77981572787E-01  0.51100000000E-03 0.  1.
         11    1    4    4    0    0  0.40020707267E-02 -0.33281690491E-01  0.38499143939E-01  0.51050295759E-01  0.51100000000E-03 0. -1.
</event>
<event>
 8    1  0.1088021E+005  0.1043930E+01  0.7957747E-01            NaN
         13   -1    0    0    0    0  0.00000000000E+00  0.00000000000E+00  0.74505805969E-08  0.10566000000E+00  0.10566000000E+00 0.  1.
     999900   -1    0    0    0    0 -0.00000000000E+00 -0.00000000000E+00 -0.74505805969E-08  0.93827000000E+00  0.93827000000E+00 0. -1.
     999902    2    1    2    0    0  0.13940855715E-01  0.18688780647E-01 -0.15396364907E-02  0.10205636040E+01  0.10202960754E+01 0.  0.
     999903    2    3    3    0    0  0.64514895002E-01 -0.11078553844E+00 -0.57204918030E-02  0.12964339868E+00  0.18414113890E-01 0.  0.
         14    1    1    2    0    0 -0.13940855715E-01 -0.18688780647E-01  0.15396364907E-02  0.23366395971E-01  0.00000000000E+00 0.  1.
     999901    1    3    3    0    0 -0.50574039288E-01  0.12947431908E+00  0.41808553123E-02  0.89092020535E+00  0.88000000000E+00 0.  1.
        -11    1    4    4    0    0  0.59639488662E-02 -0.11537493955E-01 -0.62196703290E-02  0.14409298138E-01  0.51100000000E-03 0.  1.
         11    1    4    4    0    0  0.58550946136E-01 -0.99248044482E-01  0.49917852594E-03  0.11523410054E+00  0.51100000000E-03 0. -1.
</event>
<event>
 7    1  0.1088021E+005  0.1043930E+01  0.7957747E-01            NaN
         13   -1    0    0    0    0  0.00000000000E+00  0.00000000000E+00  0.74505805969E-08  0.10566000000E+00  0.10566000000E+00 0.  1.
     999900   -1    0    0    0    0 -0.00000000000E+00 -0.00000000000E+00 -0.74505805969E-08  0.93827000000E+00  0.93827000000E+00 0. -1.
     999902    2    1    2    0    0 -0.21780072554E-01  0.10159331803E-01 -0.13633210189E-01  0.10162994372E+01  0.10159237658E+01 0.  0.
         14    1    1    2    0    0  0.21780072554E-01 -0.10159331803E-01  0.13633210189E-01  0.27630562846E-01  0.00000000000E+00 0.  1.
     999901    1    3    3    0    0 -0.33591430249E-01 -0.58678165375E-01  0.88373722412E-01  0.88700700453E+00  0.88000000000E+00 0.  1.
        -11    1    3    3    0    0  0.32631938186E-02  0.58425228189E-01 -0.99714600161E-01  0.11561755199E+00  0.51100000000E-03 0. -1.
         11    1    3    3    0    0  0.85481638758E-02  0.10412268989E-01 -0.22923324398E-02  0.13674880627E-01  0.51100000000E-03 0.  1.
</event>
<event>
 8    1  0.1088021E+005  0.1043930E+01  0.7957747E-01            NaN
         13   -1    0    0    0    0  0.00000000000E+00  0.00000000000E+00  0.74505805969E-08  0.10566000000E+00  0.10566000000E+00 0.  1.
     999900   -1    0    0    0    0 -0.00000000000E+00 -0.00000000000E+00 -0.74505805969E-08  0.93827000000E+00  0.93827000000E+00 0.  1.
     999902    2    1    2    0    0 -0.83938433513E-02 -0.15109597398E-01 -0.15519150329E-01  0.10207006959E+01  0.10204363332E+01 0.  0.
     999903    2    3    3    0    0  0.99200264308E-01 -0.51322373806E-01 -0.66763723114E-01  0.13192971115E+00  0.21757193495E-01 0.  0.
         14    1    1    2    0    0  0.83938433513E-02  0.15109597398E-01  0.15519150329E-01  0.23229304050E-01  0.00000000000E+00 0.  1.
     999901    1    3    3    0    0 -0.10759410766E+00  0.36212776408E-01  0.51244572786E-01  0.88877098480E+00  0.88000000000E+00 0. -1.
        -11    1    4    4    0    0  0.64111115210E-01 -0.44490498905E-01 -0.45780738737E-01  0.90475282517E-01  0.51100000000E-03 0.  1.
         11    1    4    4    0    0  0.35089149098E-01 -0.68318749014E-02 -0.20982984378E-01  0.41454428635E-01  0.51100000000E-03 0. -1.
</event>
<event>
 8    1  0.1088021E+005  0.1043930E+01  0.7957747E-01            NaN
         13   -1    0    0    0    0  0.00000000000E+00  0.00000000000E+00  0.74505805969E-08  0.10566000000E+00  0.10566000000E+00 0.  1.
     999900   -1    0    0    0    0 -0.00000000000E+00 -0.00000000000E+00 -0.74505805969E-08  0.93827000000E+00  0.93827000000E+00 0.  1.
     999902    2    1    2    0    0 -0.31365978726E-02 -0.10512194409E-02 -0.23162740335E-01  0.10205322256E+01  0.10202639696E+01 0.  0.
     999903    2    3    3    0    0 -0.62916302964E-01 -0.42239158825E-01 -0.10802883582E+00  0.13347398979E+00  0.20061626712E-01 0.  0.
         14    1    1    2    0    0  0.31365978726E-02  0.10512194409E-02  0.23162740335E-01  0.23397774431E-01  0.00000000000E+00 0.  1.
     999901    1    3    3    0    0  0.59779705091E-01  0.41187939385E-01  0.84866095485E-01  0.88705823577E+00  0.88000000000E+00 0. -1.
        -11    1    4    4    0    0 -0.46250818007E-01 -0.29210451598E-01 -0.61196920997E-01  0.82083572713E-01  0.51100000000E-03 0. -1.
         11    1    4    4    0    0 -0.16665484956E-01 -0.13028707228E-01 -0.46831914823E-01  0.51390417082E-01  0.51100000000E-03 0.  1.
</event>
<event>
 8    1  0.1088021E+005  0.1043930E+01  0.7957747E-01            NaN
         13   -1    0    0    0    0  0.00000000000E+00  0.00000000000E+00  0.74505805969E-08  0.10566000000E+00  0.10566000000E+00 0.  1.
     999900   -1    0    0    0    0 -0.00000000000E+00 -0.00000000000E+00 -0.74505805969E-08  0.93827000000E+00  0.93827000000E+00 0. -1.
     999902    2    1    2    0    0  0.93689375080E-02  0.21275508053E-01 -0.67293668501E-02  0.10197285825E+01  0.10194413535E+01 0.  0.
     999903    2    3    3    0    0 -0.10628898625E+00 -0.65875590954E-01  0.16087069351E-01  0.12760041950E+00  0.19650220690E-01 0.  0.
         14    1    1    2    0    0 -0.93689375080E-02 -0.21275508053E-01  0.67293668501E-02  0.24201417544E-01  0.00000000000E+00 0. -1.
     999901    1    3    3    0    0  0.11565792376E+00  0.87151099007E-01 -0.22816436201E-01  0.89212816296E+00  0.88000000000E+00 0. -1.
        -11    1    4    4    0    0 -0.87857194236E-01 -0.48290587093E-01  0.18708779231E-01  0.10198601337E+00  0.51100000000E-03 0.  1.
         11    1    4    4    0    0 -0.18431792016E-01 -0.17585003861E-01 -0.26217098807E-02  0.25614406130E-01  0.51100000000E-03 0. -1.
</event>
<event>
 8    1  0.1088021E+005  0.1043930E+01  0.7957747E-01            NaN
         13   -1    0    0    0    0  0.00000000000E+00  0.00000000000E+00  0.74505805969E-08  0.10566000000E+00  0.10566000000E+00 0. -1.
     999900   -1    0    0    0    0 -0.00000000000E+00 -0.00000000000E+00 -0.74505805969E-08  0.93827000000E+00  0.93827000000E+00 0.  1.
     999902    2    1    2    0    0 -0.22652270979E-02 -0.62817718566E-02  0.22493129125E-01  0.10204665653E+01  0.10201967840E+01 0.  0.
     999903    2    3    3    0    0  0.88832517896E-01  0.91861720467E-01 -0.10596019226E-01  0.12972202503E+00  0.19640168832E-01 0.  0.
         14    1    1    2    0    0  0.22652270979E-02  0.62817718566E-02 -0.22493129125E-01  0.23463434729E-01  0.00000000000E+00 0.  1.
     999901    1    3    3    0    0 -0.91097744994E-01 -0.98143492323E-01  0.33089148351E-01  0.89074454024E+00  0.88000000000E+00 0. -1.
        -11    1    4    4    0    0  0.67350894431E-01  0.57108792408E-01 -0.45992395970E-02  0.88424947141E-01  0.51100000000E-03 0. -1.
         11    1    4    4    0    0  0.21481623466E-01  0.34752928058E-01 -0.59967796286E-02  0.41297077890E-01  0.51100000000E-03 0.  1.
</event>
<event>
 8    1  0.1088021E+005  0.1043930E+01  0.7957747E-01            NaN
         13   -1    0    0    0    0  0.00000000000E+00  0.00000000000E+00  0.74505805969E-08  0.10566000000E+00  0.10566000000E+00 0. -1.
     999900   -1    0    0    0    0 -0.00000000000E+00 -0.00000000000E+00 -0.74505805969E-08  0.93827000000E+00  0.93827000000E+00 0.  1.
     999902    2    1    2    0    0  0.51477717814E-02  0.20943746470E-01 -0.94059401646E-02  0.10204010438E+01  0.10201297360E+01 0.  0.
     999903    2    3    3    0    0  0.70341234012E-01  0.58553868016E-01 -0.94804560547E-01  0.13306929459E+00  0.18522629386E-01 0.  0.
         14    1    1    2    0    0 -0.51477717814E-02 -0.20943746470E-01  0.94059401646E-02  0.23528956222E-01  0.00000000000E+00 0. -1.
     999901    1    3    3    0    0 -0.65193462230E-01 -0.37610121546E-01  0.85398620382E-01  0.88733174919E+00  0.88000000000E+00 0. -1.
        -11    1    4    4    0    0  0.26344555000E-01  0.17288799065E-01 -0.21569121596E-01  0.38189347712E-01  0.51100000000E-03 0.  1.
         11    1    4    4    0    0  0.43996679012E-01  0.41265068951E-01 -0.73235438951E-01  0.94879946875E-01  0.51100000000E-03 0. -1.
</event>
<event>
 8    1  0.1088021E+005  0.1043930E+01  0.7957747E-01            NaN
         13   -1    0    0    0    0  0.00000000000E+00  0.00000000000E+00  0.74505805969E-08  0.10566000000E+00  0.10566000000E+00 0.  1.
     999900   -1    0    0    0    0 -0.00000000000E+00 -0.00000000000E+00 -0.74505805969E-08  0.93827000000E+00  0.93827000000E+00 0.  1.
     999902    2    1    2    0    0  0.16107937215E-01  0.15249701636E-01  0.80423344206E-02  0.10203355476E+01  0.10200627096E+01 0.  0.
     999903    2    3    3    0    0 -0.13152018494E-03  0.11132324741E+00 -0.67521765484E-01  0.13173902534E+00  0.20077332293E-01 0.  0.
         14    1    1    2    0    0 -0.16107937215E-01 -0.15249701636E-01 -0.80423344206E-02  0.23594452404E-01  0.00000000000E+00 0.  1.
     999901    1    3    3    0    0  0.16239457400E-01 -0.96073545772E-01  0.75564099904E-01  0.88859652226E+00  0.88000000000E+00 0. -1.
        -11    1    4    4    0    0  0.71833572203E-02  0.53435713943E-01 -0.24392730768E-01  0.59179748064E-01  0.51100000000E-03 0. -1.
         11    1    4    4    0    0 -0.73148774052E-02  0.57887533465E-01 -0.43129034716E-01  0.72559277275E-01  0.51100000000E-03 0.  1.
</event>
<event>
 8    1  0.1088021E+005  0.1043930E+01  0.7957747E-01            NaN
         13   -1    0    0    0    0  0.00000000000E+00  0.00000000000E+00  0.74505805969E-08  0.10566000000E+00  0.10566000000E+00 0.  1.
     999900   -1    0    0    0    0 -0.00000000000E+00 -0.00000000000E+00 -0.74505805969E-08  0.93827000000E+00  0.93827000000E+00 0.  1.
     999902    2    1    2    0    0  0.61977550802E-02 -0.13950010172E-01  0.18571208182E-01  0.10198903510E+01  0.10196069945E+01 0.  0.
     999903    2    3    3    0    0 -0.48245936582E-01 -0.11957829501E+00 -0.14173443391E-01  0.13129952145E+00  0.20298738869E-01 0.  0.
         14    1    1    2    0    0 -0.61977550802E-02  0.13950010172E-01 -0.18571208182E-01  0.24039649023E-01  0.00000000000E+00 0. -1.
     999901    1    3    3    0    0  0.54443691662E-01  0.10562828484E+00  0.32744651572E-01  0.88859082953E+00  0.88000000000E+00 0. -1.
        -11    1    4    4    0    0 -0.38526288559E-01 -0.73504427452E-01 -0.14271359918E-01  0.84208720452E-01  0.51100000000E-03 0.  1.
         11    1    4    4    0    0 -0.97196480234E-02 -0.46073867560E-01  0.97916527559E-04  0.47090800994E-01  0.51100000000E-03 0. -1.
</event>
<event>
 8    1  0.1088021E+005  0.1043930E+01  0.7957747E-01            NaN
         13   -1    0    0    0    0  0.00000000000E+00  0.00000000000E+00  0.74505805969E-08  0.10566000000E+00  0.10566000000E+00 0.  1.
     999900   -1    0    0    0    0 -0.00000000000E+00 -0.00000000000E+00 -0.74505805969E-08  0.93827000000E+00  0.93827000000E+00 0. -1.
     999902    2    1    2    0    0  0.14930388843E-01 -0.18809555193E-01  0.32190258952E-02  0.10197003074E+01  0.10194123988E+01 0.  0.
     999903    2    3    3    0    0  0.44955014381E-01 -0.10314487499E+00 -0.66996166088E-01  0.13237618536E+00  0.19368779662E-01 0.  0.
         14    1    1    2    0    0 -0.14930388843E-01  0.18809555193E-01 -0.32190258952E-02  0.24229692637E-01  0.00000000000E+00 0. -1.
     999901    1    3    3    0    0 -0.30024625538E-01  0.84335319795E-01  0.70215191983E-01  0.88732412200E+00  0.88000000000E+00 0.  1.
        -11    1    4    4    0    0  0.39159179571E-01 -0.86134452189E-01 -0.47558737564E-01  0.10589938545E+00  0.51100000000E-03 0. -1.
         11    1    4    4    0    0  0.57958348100E-02 -0.17010422799E-01 -0.19437428524E-01  0.26476799912E-01  0.51100000000E-03 0.  1.
</event>
<event>
 8    1  0.1088021E+005  0.1043930E+01  0.7957747E-01            NaN
         13   -1    0    0    0    0  0.00000000000E+00  0.00000000000E+00  0.74505805969E-08  0.10566000000E+00  0.10566000000E+00 0.  1.
     999900   -1    0    0    0    0 -0.00000000000E+00 -0.00000000000E+00 -0.74505805969E-08  0.93827000000E+00  0.93827000000E+00 0. -1.
     999902    2    1    2    0    0  0.16354522395E-01 -0.16725658769E-01  0.49637227475E-02  0.10200164765E+01  0.10197361206E+01 0.  0.
     999903    2    3    3    0    0  0.10864024740E+00 -0.74495090116E-01 -0.43774598660E-02  0.13325764797E+00  0.19652398824E-01 0.  0.
         14    1    1    2    0    0 -0.16354522395E-01  0.16725658769E-01 -0.49637227475E-02  0.23913523528E-01  0.00000000000E+00 0.  1.
     999901    1    3    3    0    0 -0.92285725009E-01  0.57769431347E-01  0.93411826136E-02  0.88675882850E+00  0.88000000000E+00 0.  1.
        -11    1    4    4    0    0  0.71610230143E-01 -0.50383862462E-01 -0.12114826903E-01  0.88394506671E-01  0.51100000000E-03 0. -1.
         11    1    4    4    0    0  0.37030017261E-01 -0.24111227655E-01  0.77373670365E-02  0.44863141297E-01  0.51100000000E-03 0.  1.
</event>
<event>
 8    1  0.1088021E+005  0.1043930E+01  0.7957747E-01            NaN
         13   -1    0    0    0    0  0.00000000000E+00  0.00000000000E+00  0.74505805969E-08  0.10566000000E+00  0.10566000000E+00 0.  1.
     999900   -1    0    0    0    0 -0.00000000000E+00 -0.00000000000E+00 -0.74505805969E-08  0.93827000000E+00  0.93827000000E+00 0.  1.
     999902    2    1    2    0    0  0.19805078426E-01 -0.14702684068E-02  0.13676725810E-01  0.10198166085E+01  0.10195314901E+01 0.  0.
     999903    2    3    3    0    0  0.66491892082E-01  0.91381672415E-01  0.65586531517E-01  0.13218167824E+00  0.19965499772E-01 0.  0.
         14    1    1    2    0    0 -0.19805078426E-01  0.14702684068E-02 -0.13676725810E-01  0.24113391498E-01  0.00000000000E+00 0. -1.
     999901    1    3    3    0    0 -0.46686813656E-01 -0.92851940822E-01 -0.51909805706E-01  0.88763493026E+00  0.88000000000E+00 0.  1.
        -11    1    4    4    0    0  0.54849101921E-01  0.66865786565E-01  0.57508884398E-01  0.10386043665E+00  0.51100000000E-03 0. -1.
         11    1    4    4    0    0  0.11642790162E-01  0.24515885850E-01  0.80776471190E-02  0.28321241599E-01  0.51100000000E-03 0.  1.
</event>
<event>
 8    1  0.1088021E+005  0.1043930E+01  0.7957747E-01            NaN
         13   -1    0    0    0    0  0.00000000000E+00  0.00000000000E+00  0.74505805969E-08  0.10566000000E+00  0.10566000000E+00 0. -1.
     999900   -1    0    0    0    0 -0.00000000000E+00 -0.00000000000E+00 -0.74505805969E-08  0.93827000000E+00  0.93827000000E+00 0.  1.
     999902    2    1    2    0    0  0.21015063925E-01 -0.83128803656E-02  0.54874091049E-03  0.10213238502E+01  0.10210736354E+01 0.  0.
     999903    2    3    3    0    0  0.23202669166E-01  0.19939461265E-01 -0.12441313183E+00  0.13204411353E+00  0.31954257522E-01 0.  0.
         14    1    1    2    0    0 -0.21015063925E-01  0.83128803656E-02 -0.54874091049E-03  0.22606149790E-01  0.00000000000E+00 0. -1.
     999901    1    3    3    0    0 -0.21876052405E-02 -0.28252341630E-01  0.12496187275E+00  0.88927973668E+00  0.88000000000E+00 0. -1.
        -11    1    4    4    0    0  0.23362304269E-01  0.33153313585E-02 -0.44016543959E-01  0.49945029241E-01  0.51100000000E-03 0. -1.
         11    1    4    4    0    0 -0.15963510338E-03  0.16624129906E-01 -0.80396587876E-01  0.82099084292E-01  0.51100000000E-03 0.  1.
</event>
<event>
 8    1  0.1088021E+005  0.1043930E+01  0.7957747E-01            NaN
         13   -1    0    0    0    0  0.00000000000E+00  0.00000000000E+00  0.74505805969E-08  0.10566000000E+00  0.10566000000E+00 0. -1.
     999900   -1    0    0    0    0 -0.00000000000E+00 -0.00000000000E+00 -0.74505805969E-08  0.93827000000E+00  0.93827000000E+00 0.  1.
     999902    2    1    2    0    0 -0.24775273179E-01  0.19830314464E-02 -0.13181785487E-01  0.10157962828E+01  0.10154066093E+01 0.  0.
     999903    2    3    3    0    0  0.11512276629E+00  0.17559950477E-01  0.34994655274E-01  0.12330814770E+00  0.20461432335E-01 0.  0.
         14    1    1    2    0    0  0.24775273179E-01 -0.19830314464E-02  0.13181785487E-01  0.28133717199E-01  0.00000000000E+00 0. -1.
     999901    1    3    3    0    0 -0.13989803947E+00 -0.15576919031E-01 -0.48176440760E-01  0.89248813510E+00  0.88000000000E+00 0.  1.
        -11    1    4    4    0    0  0.35055311380E-01  0.33846837725E-02  0.20373363840E-01  0.40689876079E-01  0.51100000000E-03 0. -1.
         11    1    4    4    0    0  0.80067454907E-01  0.14175266705E-01  0.14621291434E-01  0.82618271621E-01  0.51100000000E-03 0.  1.
</event>
<event>
 8    1  0.1088021E+005  0.1043930E+01  0.7957747E-01            NaN
         13   -1    0    0    0    0  0.00000000000E+00  0.00000000000E+00  0.74505805969E-08  0.10566000000E+00  0.10566000000E+00 0.  1.
     999900   -1    0    0    0    0 -0.00000000000E+00 -0.00000000000E+00 -0.74505805969E-08  0.93827000000E+00  0.93827000000E+00 0. -1.
     999902    2    1    2    0    0 -0.25042391174E-01 -0.16091707875E-02  0.76559808840E-02  0.10176940546E+01  0.10173558198E+01 0.  0.
     999903    2    3    3    0    0 -0.10162953531E-01 -0.91217354384E-01 -0.87038707886E-01  0.12796482148E+00  0.19374403245E-01 0.  0.
         14    1    1    2    0    0  0.25042391174E-01  0.16091707875E-02 -0.76559808840E-02  0.26235945373E-01  0.00000000000E+00 0. -1.
     999901    1    3    3    0    0 -0.14879437642E-01  0.89608183597E-01  0.94694688770E-01  0.88972923315E+00  0.88000000000E+00 0.  1.
        -11    1    4    4    0    0 -0.10517509057E-01 -0.47694762812E-01 -0.34821125773E-01  0.59984834063E-01  0.51100000000E-03 0. -1.
         11    1    4    4    0    0  0.35455552552E-03 -0.43522591573E-01 -0.52217582112E-01  0.67979987419E-01  0.51100000000E-03 0.  1.
</event>
<event>
 8    1  0.1088021E+005  0.1043930E+01  0.7957747E-01            NaN
         13   -1    0    0    0    0  0.00000000000E+00  0.00000000000E+00  0.74505805969E-08  0.10566000000E+00  0.10566000000E+00 0. -1.
     999900   -1    0    0    0    0 -0.00000000000E+00 -0.00000000000E+00 -0.74505805969E-08  0.93827000000E+00  0.93827000000E+00 0.  1.
     999902    2    1    2    0    0 -0.84967990981E-02  0.10422258361E-01 -0.20108300520E-01  0.10197398612E+01  0.10194529032E+01 0.  0.
     999903    2    3    3    0    0  0.12525536677E+00 -0.11503599708E-01 -0.22476728230E-01  0.12936016998E+00  0.20189367363E-01 0.  0.
         14    1    1    2    0    0  0.84967990981E-02 -0.10422258361E-01  0.20108300520E-01  0.24190138777E-01  0.00000000000E+00 0. -1.
     999901    1    3    3    0    0 -0.13375216587E+00  0.21925858068E-01  0.23684277106E-02  0.89037969124E+00  0.88000000000E+00 0. -1.
        -11    1    4    4    0    0  0.38411497359E-01 -0.11999179809E-01 -0.30053179708E-02  0.40357359955E-01  0.51100000000E-03 0. -1.
         11    1    4    4    0    0  0.86843869412E-01  0.49558010083E-03 -0.19471410259E-01  0.89002810026E-01  0.51100000000E-03 0.  1.
</event>
<event>
 8    1  0.1088021E+005  0.1043930E+01  0.7957747E-01            NaN
         13   -1    0    0    0    0  0.00000000000E+00  0.00000000000E+00  0.74505805969E-08  0.10566000000E+00  0.10566000000E+00 0. -1.
     999900   -1    0    0    0    0 -0.00000000000E+00 -0.00000000000E+00 -0.74505805969E-08  0.93827000000E+00  0.93827000000E+00 0. -1.
     999902    2    1    2    0    0 -0.13590154972E-01 -0.95621061271E-02  0.18889577139E-01  0.10187716553E+01  0.10184609680E+01 0.  0.
     999903    2    3    3    0    0 -0.11846257993E+00  0.34590469956E-01  0.38623483419E-01  0.13122610569E+00  0.22330111701E-01 0.  0.
         14    1    1    2    0    0  0.13590154972E-01  0.95621061271E-02 -0.18889577139E-01  0.25158344744E-01  0.00000000000E+00 0.  1.
     999901    1    3    3    0    0  0.10487242496E+00 -0.44152576083E-01 -0.19733906280E-01  0.88754554956E+00  0.88000000000E+00 0. -1.
        -11    1    4    4    0    0 -0.74031268192E-01  0.32206986849E-01  0.28248002887E-01  0.85534375897E-01  0.51100000000E-03 0.  1.
         11    1    4    4    0    0 -0.44431311739E-01  0.23834831065E-02  0.10375480532E-01  0.45691729797E-01  0.51100000000E-03 0. -1.
</event>
<event>
 8    1  0.1088021E+005  0.1043930E+01  0.7957747E-01            NaN
         13   -1    0    0    0    0  0.00000000000E+00  0.00000000000E+00  0.74505805969E-08  0.10566000000E+00  0.10566000000E+00 0. -1.
     999900   -1    0    0    0    0 -0.00000000000E+00 -0.00000000000E+00 -0.74505805969E-08  0.93827000000E+00  0.93827000000E+00 0. -1.
     999902    2    1    2    0    0 -0.87724383756E-02 -0.21391410871E-01 -0.61998001927E-02  0.10199928812E+01  0.10197119652E+01 0.  0.
     999903    2    3    3    0    0  0.55056445569E-01 -0.11808387409E+00  0.13649324920E-01  0.13217671406E+00  0.17588807533E-01 0.  0.
         14    1    1    2    0    0  0.87724383756E-02  0.21391410871E-01  0.61998001927E-02  0.23937118801E-01  0.00000000000E+00 0. -1.
     999901    1    3    3    0    0 -0.63828883944E-01  0.96692463216E-01 -0.19849125112E-01  0.88781616714E+00  0.88000000000E+00 0.  1.
        -11    1    4    4    0    0  0.37248473750E-01 -0.62930017751E-01  0.12604026454E-01  0.74207536913E-01  0.51100000000E-03 0.  1.
         11    1    4    4    0    0  0.17807971818E-01 -0.55153856336E-01  0.10452984661E-02  0.57969177145E-01  0.51100000000E-03 0. -1.
</event>
<event>
 8    1  0.1088021E+005  0.1043930E+01  0.7957747E-01            NaN
         13   -1    0    0    0    0  0.00000000000E+00  0.00000000000E+00  0.74505805969E-08  0.10566000000E+00  0.10566000000E+00 0.  1.
     999900   -1    0    0    0    0 -0.00000000000E+00 -0.00000000000E+00 -0.74505805969E-08  0.93827000000E+00  0.93827000000E+00 0. -1.
     999902    2    1    2    0    0 -0.22284195414E-01  0.44991595603E-03  0.57141630499E-02  0.10209204487E+01  0.10206611207E+01 0.  0.
     999903    2    3    3    0    0 -0.99954098770E-02 -0.49648153004E-01 -0.11868701759E+00  0.13067526650E+00  0.20605091941E-01 0.  0.
         14    1    1    2    0    0  0.22284195414E-01 -0.44991595603E-03 -0.57141630499E-02  0.23009551256E-01  0.00000000000E+00 0. -1.
     999901    1    3    3    0    0 -0.12288785537E-01  0.50098068960E-01  0.12440118064E+00  0.89024518224E+00  0.88000000000E+00 0.  1.
        -11    1    4    4    0    0 -0.16347751823E-01 -0.38185467635E-01 -0.88690183634E-01  0.97936656683E-01  0.51100000000E-03 0. -1.
         11    1    4    4    0    0  0.63523419463E-02 -0.11462685369E-01 -0.29996833961E-01  0.32738609817E-01  0.51100000000E-03 0.  1.
</event>
<event>
 8    1  0.1088021E+005  0.1043930E+01  0.7957747E-01            NaN
         13   -1    0    0    0    0  0.00000000000E+00  0.00000000000E+00  0.74505805969E-08  0.10566000000E+00  0.10566000000E+00 0.  1.
     999900   -1    0    0    0    0 -0.00000000000E+00 -0.00000000000E+00 -0.74505805969E-08  0.93827000000E+00  0.93827000000E+00 0.  1.
     999902    2    1    2    0    0  0.52531397352E-02 -0.10741751472E-01  0.20137043905E-01  0.10205103237E+01  0.10202415594E+01 0.  0.
     999903    2    3    3    0    0  0.23486428768E-01 -0.11878853455E+00 -0.46472261021E-01  0.13121658162E+00  0.19894521132E-01 0.  0.
         14    1    1    2    0    0 -0.52531397352E-02  0.10741751472E-01 -0.20137043905E-01  0.23419676321E-01  0.00000000000E+00 0. -1.
     999901    1    3    3    0    0 -0.18233289032E-01  0.10804678308E+00  0.66609304926E-01  0.88929374206E+00  0.88000000000E+00 0. -1.
        -11    1    4    4    0    0  0.82976298101E-02 -0.24270228846E-01 -0.18002040653E-01  0.31340536967E-01  0.51100000000E-03 0. -1.
         11    1    4    4    0    0  0.15188798958E-01 -0.94518305703E-01 -0.28470220369E-01  0.99876044654E-01  0.51100000000E-03 0.  1.
</event>
<event>
 8    1  0.1088021E+005  0.1043930E+01  0.7957747E-01            NaN
         13   -1    0    0    0    0  0.00000000000E+00  0.00000000000E+00  0.74505805969E-08  0.10566000000E+00  0.10566000000E+00 0. -1.
     999900   -1    0    0    0    0 -0.00000000000E+00 -0.00000000000E+00 -0.74505805969E-08  0.93827000000E+00  0.93827000000E+00 0.  1.
     999902    2    1    2    0    0 -0.12764291518E-01 -0.16741302556E-01  0.11520142159E-01  0.10199318329E+01  0.10196494651E+01 0.  0.
     999903    2    3    3    0    0  0.12436868672E+00 -0.13643593078E-01  0.24524677372E-01  0.12921068266E+00  0.20981488166E-01 0.  0.
         14    1    1    2    0    0  0.12764291518E-01  0.16741302556E-01 -0.11520142159E-01  0.23998167109E-01  0.00000000000E+00 0.  1.
     999901    1    3    3    0    0 -0.13713297824E+00 -0.30977094787E-02 -0.13004535213E-01  0.89072115023E+00  0.88000000000E+00 0.  1.
        -11    1    4    4    0    0  0.92354873963E-01 -0.18553041514E-01  0.21892303581E-01  0.96711799545E-01  0.51100000000E-03 0. -1.
         11    1    4    4    0    0  0.32013812758E-01  0.49094484361E-02  0.26323737910E-02  0.32498883120E-01  0.51100000000E-03 0.  1.
</event>
<event>
 8    1  0.1088021E+005  0.1043930E+01  0.7957747E-01            NaN
         13   -1    0    0    0    0  0.00000000000E+00  0.00000000000E+00  0.74505805969E-08  0.10566000000E+00  0.10566000000E+00 0. -1.
     999900   -1    0    0    0    0 -0.00000000000E+00 -0.00000000000E+00 -0.74505805969E-08  0.93827000000E+00  0.93827000000E+00 0.  1.
     999902    2    1    2    0    0 -0.12664648667E-01 -0.19604569441E-01  0.15155238985E-02  0.10205413429E+01  0.10202732983E+01 0.  0.
     999903    2    3    3    0    0  0.40419335454E-01 -0.12375806615E+00  0.14863370579E-01  0.13271026365E+00  0.21007443373E-01 0.  0.
         14    1    1    2    0    0  0.12664648667E-01  0.19604569441E-01 -0.15155238985E-02  0.23388657112E-01  0.00000000000E+00 0. -1.
     999901    1    3    3    0    0 -0.53083984121E-01  0.10415349671E+00 -0.13347846681E-01  0.88783107924E+00  0.88000000000E+00 0.  1.
        -11    1    4    4    0    0  0.28606940487E-01 -0.11017529520E+00  0.11741320504E-01  0.11443370327E+00  0.51100000000E-03 0.  1.
         11    1    4    4    0    0  0.11812394967E-01 -0.13582770951E-01  0.31220500748E-02  0.18276560378E-01  0.51100000000E-03 0. -1.
</event>
<event>
 8    1  0.1088021E+005  0.1043930E+01  0.7957747E-01            NaN
         13   -1    0    0    0    0  0.00000000000E+00  0.00000000000E+00  0.74505805969E-08  0.10566000000E+00  0.10566000000E+00 0. -1.
     999900   -1    0    0    0    0 -0.00000000000E+00 -0.00000000000E+00 -0.74505805969E-08  0.93827000000E+00  0.93827000000E+00 0. -1.
     999902    2    1    2    0    0 -0.16985955582E-01  0.16880675660E-01  0.10131207096E-02  0.10199611387E+01  0.10196794684E+01 0.  0.
     999903    2    3    3    0    0 -0.87883251680E-01  0.68358932530E-01 -0.69586745066E-01  0.13279667900E+00  0.19905609342E-01 0.  0.
         14    1    1    2    0    0  0.16985955582E-01 -0.16880675660E-01 -0.10131207096E-02  0.23968861286E-01  0.00000000000E+00 0. -1.
     999901    1    3    3    0    0  0.70897296097E-01 -0.51478256870E-01  0.70599865776E-01  0.88716445971E+00  0.88000000000E+00 0.  1.
        -11    1    4    4    0    0 -0.49284576898E-01  0.29559229515E-01 -0.27265286376E-01  0.63611119560E-01  0.51100000000E-03 0.  1.
         11    1    4    4    0    0 -0.38598674782E-01  0.38799703015E-01 -0.42321458690E-01  0.69185559444E-01  0.51100000000E-03 0. -1.
</event>
<event>
 8    1  0.1088021E+005  0.1043930E+01  0.7957747E-01            NaN
         13   -1    0    0    0    0  0.00000000000E+00  0.00000000000E+00  0.74505805969E-08  0.10566000000E+00  0.10566000000E+00 0. -1.
     999900   -1    0    0    0    0 -0.00000000000E+00 -0.00000000000E+00 -0.74505805969E-08  0.93827000000E+00  0.93827000000E+00 0.  1.
     999902    2    1    2    0    0 -0.16282596979E-01 -0.41083124479E-02 -0.16494495797E-01  0.10203913172E+01  0.10201197825E+01 0.  0.
     999903    2    3    3    0    0 -0.10923578679E+00  0.69825236051E-01 -0.17905630526E-01  0.13241133074E+00  0.20102940010E-01 0.  0.
         14    1    1    2    0    0  0.16282596979E-01  0.41083124479E-02  0.16494495797E-01  0.23538682782E-01  0.00000000000E+00 0. -1.
     999901    1    3    3    0    0  0.92953189814E-01 -0.73933548499E-01  0.14111347297E-02  0.88797998648E+00  0.88000000000E+00 0. -1.
        -11    1    4    4    0    0 -0.86287767545E-01  0.63822352200E-01 -0.12276784683E-01  0.10802708934E+00  0.51100000000E-03 0. -1.
         11    1    4    4    0    0 -0.22948019248E-01  0.60028838511E-02 -0.56288458432E-02  0.24384241396E-01  0.51100000000E-03 0.  1.
</event>
<event>
 8    1  0.1088021E+005  0.1043930E+01  0.7957747E-01            NaN
         13   -1    0    0    0    0  0.00000000000E+00  0.00000000000E+00  0.74505805969E-08  0.10566000000E+00  0.10566000000E+00 0. -1.
     999900   -1    0    0    0    0 -0.00000000000E+00 -0.00000000000E+00 -0.74505805969E-08  0.93827000000E+00  0.93827000000E+00 0.  1.
     999902    2    1    2    0    0 -0.15346370576E-01  0.17405432676E-01 -0.33044593634E-02  0.10204911513E+01  0.10202219417E+01 0.  0.
     999903    2    3    3    0    0 -0.12708062556E+00 -0.27366860810E-01  0.10929522224E-01  0.13218281056E+00  0.21316906153E-01 0.  0.
         14    1    1    2    0    0  0.15346370576E-01 -0.17405432676E-01  0.33044593634E-02  0.23438848696E-01  0.00000000000E+00 0. -1.
     999901    1    3    3    0    0  0.11173425499E+00  0.44772293486E-01 -0.14233981587E-01  0.88830834074E+00  0.88000000000E+00 0.  1.
        -11    1    4    4    0    0 -0.11978583421E+00 -0.25850635262E-01  0.49992732552E-02  0.12264646458E+00  0.51100000000E-03 0.  1.
         11    1    4    4    0    0 -0.72947913564E-02 -0.15162255489E-02  0.59302489689E-02  0.95363459816E-02  0.51100000000E-03 0. -1.
</event>
<event>
 8    1  0.1088021E+005  0.1043930E+01  0.7957747E-01            NaN
         13   -1    0    0    0    0  0.00000000000E+00  0.00000000000E+00  0.74505805969E-08  0.10566000000E+00  0.10566000000E+00 0. -1.
     999900   -1    0    0    0    0 -0.00000000000E+00 -0.00000000000E+00 -0.74505805969E-08  0.93827000000E+00  0.93827000000E+00 0. -1.
     999902    2    1    2    0    0  0.11626925842E-01 -0.16696067463E-01  0.98194604984E-02  0.10213387212E+01  0.10210888392E+01 0.  0.
     999903    2    3    3    0    0  0.97318270859E-01 -0.14000524937E-01  0.88765849227E-01  0.13365476570E+00  0.17814596934E-01 0.  0.
         14    1    1    2    0    0 -0.11626925842E-01  0.16696067463E-01 -0.98194604984E-02  0.22591278799E-01  0.00000000000E+00 0.  1.
     999901    1    3    3    0    0 -0.85691345017E-01 -0.26955425262E-02 -0.78946388729E-01  0.88768395550E+00  0.88000000000E+00 0. -1.
        -11    1    4    4    0    0  0.52466802693E-02 -0.33604363106E-02  0.11062025714E-01  0.12706286631E-01  0.51100000000E-03 0.  1.
         11    1    4    4    0    0  0.92071590590E-01 -0.10640088626E-01  0.77703823513E-01  0.12094847907E+00  0.51100000000E-03 0. -1.
</event>
<event>
 8    1  0.1088021E+005  0.1043930E+01  0.7957747E-01            NaN
         13   -1    0    0    0    0  0.00000000000E+00  0.00000000000E+00  0.74505805969E-08  0.10566000000E+00  0.10566000000E+00 0.  1.
     999900   -1    0    0    0    0 -0.00000000000E+00 -0.00000000000E+00 -0.74505805969E-08  0.93827000000E+00  0.93827000000E+00 0. -1.
     999902    2    1    2    0    0 -0.99127430411E-02  0.16542387695E-01 -0.13540147001E-01  0.10203662854E+01  0.10200941661E+01 0.  0.
     999903    2    3    3    0    0 -0.10025658973E+00 -0.22572681132E-01  0.77711363953E-01  0.13018718123E+00  0.18674483930E-01 0.  0.
         14    1    1    2    0    0  0.99127430411E-02 -0.16542387695E-01  0.13540147001E-01  0.23563714607E-01  0.00000000000E+00 0. -1.
     999901    1    3    3    0    0  0.90343846690E-01  0.39115068828E-01 -0.91251510955E-01  0.89017910417E+00  0.88000000000E+00 0.  1.
        -11    1    4    4    0    0 -0.13657365875E-01 -0.99294087895E-02  0.11309952965E-01  0.20329607931E-01  0.51100000000E-03 0.  1.
         11    1    4    4    0    0 -0.86599223856E-01 -0.12643272343E-01  0.66401410988E-01  0.10985757330E+00  0.51100000000E-03 0. -1.
</event>
<event>
 8    1  0.1088021E+005  0.1043930E+01  0.7957747E-01            NaN
         13   -1    0    0    0    0  0.00000000000E+00  0.00000000000E+00  0.74505805969E-08  0.10566000000E+00  0.10566000000E+00 0. -1.
     999900   -1    0    0    0    0 -0.00000000000E+00 -0.00000000000E+00 -0.74505805969E-08  0.93827000000E+00  0.93827000000E+00 0. -1.
     999902    2    1    2    0    0 -0.15721785454E-01 -0.14359054697E-01 -0.10480221652E-01  0.10201983326E+01  0.10199222744E+01 0.  0.
     999903    2    3    3    0    0  0.94748890897E-01 -0.81420024855E-01  0.29322604114E-01  0.12986962425E+00  0.19993284296E-01 0.  0.
         14    1    1    2    0    0  0.15721785454E-01  0.14359054697E-01  0.10480221652E-01  0.23731667357E-01  0.00000000000E+00 0. -1.
     999901    1    3    3    0    0 -0.11047067635E+00  0.67060970157E-01 -0.39802825766E-01  0.89032870839E+00  0.88000000000E+00 0.  1.
        -11    1    4    4    0    0  0.62406098605E-01 -0.57098059519E-01  0.28928512742E-01  0.89397033029E-01  0.51100000000E-03 0. -1.
         11    1    4    4    0    0  0.32342792292E-01 -0.24321965336E-01  0.39409137246E-03  0.40472591220E-01  0.51100000000E-03 0.  1.
</event>
<event>
 8    1  0.1088021E+005  0.1043930E+01  0.7957747E-01            NaN
         13   -1    0    0    0    0  0.00000000000E+00  0.00000000000E+00  0.74505805969E-08  0.10566000000E+00  0.10566000000E+00 0. -1.
     999900   -1    0    0    0    0 -0.00000000000E+00 -0.00000000000E+00 -0.74505805969E-08  0.93827000000E+00  0.93827000000E+00 0. -1.
     999902    2    1    2    0    0  0.16327997472E-01  0.76286880708E-02 -0.15536487100E-01  0.10201354037E+01  0.10198578622E+01 0.  0.
     999903    2    3    3    0    0 -0.11392105191E+00  0.50943145625E-01 -0.27895177722E-01  0.12940890562E+00  0.19882498819E-01 0.  0.
         14    1    1    2    0    0 -0.16327997472E-01 -0.76286880708E-02  0.15536487100E-01  0.23794596331E-01  0.00000000000E+00 0. -1.
     999901    1    3    3    0    0  0.13024904938E+00 -0.43314457555E-01  0.12358690622E-01  0.89072649805E+00  0.88000000000E+00 0.  1.
        -11    1    4    4    0    0 -0.59436619261E-01  0.36771583014E-01 -0.18814332667E-01  0.72381636215E-01  0.51100000000E-03 0.  1.
         11    1    4    4    0    0 -0.54484432646E-01  0.14171562612E-01 -0.90808450546E-02  0.57027269402E-01  0.51100000000E-03 0. -1.
</event>
<event>
 8    1  0.1088021E+005  0.1043930E+01  0.7957747E-01            NaN
         13   -1    0    0    0    0  0.00000000000E+00  0.00000000000E+00  0.74505805969E-08  0.10566000000E+00  0.10566000000E+00 0. -1.
     999900   -1    0    0    0    0 -0.00000000000E+00 -0.00000000000E+00 -0.74505805969E-08  0.93827000000E+00  0.93827000000E+00 0. -1.
     999902    2    1    2    0    0  0.56373577356E-03  0.61653347287E-02  0.23330321063E-01  0.10197922074E+01  0.10195065048E+01 0.  0.
     999903    2    3    3    0    0  0.48998676827E-01  0.57301865893E-01 -0.10178557979E+00  0.12815613984E+00  0.19476081789E-01 0.  0.
         14    1    1    2    0    0 -0.56373577356E-03 -0.61653347287E-02 -0.23330321063E-01  0.24137792593E-01  0.00000000000E+00 0.  1.
     999901    1    3    3    0    0 -0.48434941053E-01 -0.51136531164E-01  0.12511590085E+00  0.89163606756E+00  0.88000000000E+00 0.  1.
        -11    1    4    4    0    0  0.37479660079E-01  0.38013361587E-01 -0.83857989770E-01  0.99409074777E-01  0.51100000000E-03 0.  1.
         11    1    4    4    0    0  0.11519016747E-01  0.19288504306E-01 -0.17927590015E-01  0.28747065067E-01  0.51100000000E-03 0. -1.
</event>
<event>
 8    1  0.1088021E+005  0.1043930E+01  0.7957747E-01            NaN
         13   -1    0    0    0    0  0.00000000000E+00  0.00000000000E+00  0.74505805969E-08  0.10566000000E+00  0.10566000000E+00 0.  1.
     999900   -1    0    0    0    0 -0.00000000000E+00 -0.00000000000E+00 -0.74505805969E-08  0.93827000000E+00  0.93827000000E+00 0. -1.
     999902    2    1    2    0    0  0.51818750592E-03 -0.29925768353E-02 -0.23948114876E-01  0.10197900696E+01  0.10195043157E+01 0.  0.
     999903    2    3    3    0    0  0.39112372076E-01  0.89322805791E-02 -0.12552667037E+00  0.13302633767E+00  0.18152086764E-01 0.  0.
         14    1    1    2    0    0 -0.51818750592E-03  0.29925768353E-02  0.23948114876E-01  0.24139930417E-01  0.00000000000E+00 0.  1.
     999901    1    3    3    0    0 -0.38594184570E-01 -0.11924857414E-01  0.10157855549E+00  0.88676373192E+00  0.88000000000E+00 0.  1.
        -11    1    4    4    0    0  0.15445538153E-01  0.53388209380E-02 -0.26433358823E-01  0.31081364795E-01  0.51100000000E-03 0.  1.
         11    1    4    4    0    0  0.23666833922E-01  0.35934596411E-02 -0.99093311544E-01  0.10194497287E+00  0.51100000000E-03 0. -1.
</event>
<event>
 8    1  0.1088021E+005  0.1043930E+01  0.7957747E-01            NaN
         13   -1    0    0    0    0  0.00000000000E+00  0.00000000000E+00  0.74505805969E-08  0.10566000000E+00  0.10566000000E+00 0.  1.
     999900   -1    0    0    0    0 -0.00000000000E+00 -0.00000000000E+00 -0.74505805969E-08  0.93827000000E+00  0.93827000000E+00 0.  1.
     999902    2    1    2    0    0  0.11559883851E-01  0.18899063415E-01  0.82055549699E-02  0.10203050842E+01  0.10200315330E+01 0.  0.
     999903    2    3    3    0    0  0.53863657520E-01  0.45142543683E-01  0.11104637722E+00  0.13291871729E+00  0.19923470101E-01 0.  0.
         14    1    1    2    0    0 -0.11559883851E-01 -0.18899063415E-01 -0.82055549699E-02  0.23624915767E-01  0.00000000000E+00 0. -1.
     999901    1    3    3    0    0 -0.42303773669E-01 -0.26243480268E-01 -0.10284082225E+00  0.88738636695E+00  0.88000000000E+00 0.  1.
        -11    1    4    4    0    0  0.26452805764E-01  0.12431320140E-01  0.33989037028E-01  0.44830842199E-01  0.51100000000E-03 0. -1.
         11    1    4    4    0    0  0.27410851757E-01  0.32711223543E-01  0.77057340187E-01  0.88087875087E-01  0.51100000000E-03 0.  1.
</event>
<event>
 8    1  0.1088021E+005  0.1043930E+01  0.7957747E-01            NaN
         13   -1    0    0    0    0  0.00000000000E+00  0.00000000000E+00  0.74505805969E-08  0.10566000000E+00  0.10566000000E+00 0.  1.
     999900   -1    0    0    0    0 -0.00000000000E+00 -0.00000000000E+00 -0.74505805969E-08  0.93827000000E+00  0.93827000000E+00 0.  1.
     999902    2    1    2    0    0 -0.17760040971E-01 -0.10933764291E-02 -0.15950763909E-01  0.10200335275E+01  0.10197535761E+01 0.  0.
     999903    2    3    3    0    0 -0.84084857973E-01 -0.88376327291E-01 -0.48359137858E-01  0.13263981696E+00  0.19341051210E-01 0.  0.
         14    1    1    2    0    0  0.17760040971E-01  0.10933764291E-02  0.15950763909E-01  0.23896472472E-01  0.00000000000E+00 0.  1.
     999901    1    3    3    0    0  0.66324817001E-01  0.87282950862E-01  0.32408373948E-01  0.88739371057E+00  0.88000000000E+00 0. -1.
        -11    1    4    4    0    0 -0.36248189169E-01 -0.50401182379E-01 -0.29336035870E-01  0.68666400261E-01  0.51100000000E-03 0.  1.
         11    1    4    4    0    0 -0.47836668804E-01 -0.37975144912E-01 -0.19023101987E-01  0.63973416694E-01  0.51100000000E-03 0. -1.
</event>
<event>
 8    1  0.1088021E+005  0.1043930E+01  0.7957747E-01            NaN
         13   -1    0    0    0    0  0.00000000000E+00  0.00000000000E+00  0.74505805969E-08  0.10566000000E+00  0.10566000000E+00 0. -1.
     999900   -1    0    0    0    0 -0.00000000000E+00 -0.00000000000E+00 -0.74505805969E-08  0.93827000000E+00  0.93827000000E+00 0.  1.
     999902    2    1    2    0    0 -0.12671396726E-01  0.22617369767E-01 -0.26657288000E-02  0.10178682307E+01  0.10175345297E+01 0.  0.
     999903    2    3    3    0    0  0.43506855459E-01  0.34600966721E-01 -0.11464540385E+00  0.12891432285E+00  0.19628057522E-01 0.  0.
         14    1    1    2    0    0  0.12671396726E-01 -0.22617369767E-01  0.26657288000E-02  0.26061769322E-01  0.00000000000E+00 0.  1.
     999901    1    3    3    0    0 -0.56178252184E-01 -0.11983596954E-01  0.11197967505E+00  0.88895390783E+00  0.88000000000E+00 0. -1.
        -11    1    4    4    0    0  0.34104887093E-01  0.17676131343E-01 -0.87558072669E-01  0.95615198339E-01  0.51100000000E-03 0.  1.
         11    1    4    4    0    0  0.94019683658E-02  0.16924835378E-01 -0.27087331183E-01  0.33299124513E-01  0.51100000000E-03 0. -1.
</event>
<event>
 7    1  0.1088021E+005  0.1043930E+01  0.7957747E-01            NaN
         13   -1    0    0    0    0  0.00000000000E+00  0.00000000000E+00  0.74505805969E-08  0.10566000000E+00  0.10566000000E+00 0. -1.
     999900   -1    0    0    0    0 -0.00000000000E+00 -0.00000000000E+00 -0.74505805969E-08  0.93827000000E+00  0.93827000000E+00 0. -1.
     999903    2    1    2    0    0 -0.93921442196E-03 -0.10685819215E+00  0.32524218784E-01  0.11348448990E+00  0.20033703743E-01 0.  0.
         14    1    1    2    0    0  0.18355476837E-01 -0.27942005253E-01 -0.21864662754E-01  0.39946747864E-01  0.00000000000E+00 0.  1.
     999901    1    1    2    0    0 -0.17416262415E-01  0.13480019741E+00 -0.10659556030E-01  0.89049876224E+00  0.88000000000E+00 0.  1.
        -11    1    3    3    0    0 -0.94759940443E-02 -0.32089839705E-01  0.95341730332E-02  0.34795313647E-01  0.51100000000E-03 0. -1.
         11    1    3    3    0    0  0.85367796223E-02 -0.74768352448E-01  0.22990045751E-01  0.78689176249E-01  0.51100000000E-03 0.  1.
</event>
<event>
 8    1  0.1088021E+005  0.1043930E+01  0.7957747E-01            NaN
         13   -1    0    0    0    0  0.00000000000E+00  0.00000000000E+00  0.74505805969E-08  0.10566000000E+00  0.10566000000E+00 0.  1.
     999900   -1    0    0    0    0 -0.00000000000E+00 -0.00000000000E+00 -0.74505805969E-08  0.93827000000E+00  0.93827000000E+00 0. -1.
     999902    2    1    2    0    0 -0.17809811993E-02  0.19117588635E-01 -0.14330078272E-01  0.10199715937E+01  0.10196901719E+01 0.  0.
     999903    2    3    3    0    0 -0.63896456373E-01 -0.81828517029E-01 -0.75004055847E-01  0.12995486348E+00  0.21999882124E-01 0.  0.
         14    1    1    2    0    0  0.17809811993E-02 -0.19117588635E-01  0.14330078272E-01  0.23958406302E-01  0.00000000000E+00 0.  1.
     999901    1    3    3    0    0  0.62115475174E-01  0.10094610566E+00  0.60673977575E-01  0.89001673021E+00  0.88000000000E+00 0.  1.
        -11    1    4    4    0    0 -0.38168758244E-01 -0.34631638244E-01 -0.28623105681E-01  0.58955472801E-01  0.51100000000E-03 0. -1.
         11    1    4    4    0    0 -0.25727698129E-01 -0.47196878786E-01 -0.46380950166E-01  0.70999390684E-01  0.51100000000E-03 0.  1.
</event>
<event>
 8    1  0.1088021E+005  0.1043930E+01  0.7957747E-01            NaN
         13   -1    0    0    0    0  0.00000000000E+00  0.00000000000E+00  0.74505805969E-08  0.10566000000E+00  0.10566000000E+00 0. -1.
     999900   -1    0    0    0    0 -0.00000000000E+00 -0.00000000000E+00 -0.74505805969E-08  0.93827000000E+00  0.93827000000E+00 0. -1.
     999902    2    1    2    0    0 -0.90210060858E-02  0.39749883142E-02 -0.23304952733E-01  0.10186258520E+01  0.10183115076E+01 0.  0.
     999903    2    3    3    0    0 -0.22931836718E-01 -0.10088851709E+00  0.70935538229E-01  0.12729474850E+00  0.21627306726E-01 0.  0.
         14    1    1    2    0    0  0.90210060858E-02 -0.39749883142E-02  0.23304952733E-01  0.25304147976E-01  0.00000000000E+00 0. -1.
     999901    1    3    3    0    0  0.13910830632E-01  0.10486350540E+00 -0.94240490962E-01  0.89133110352E+00  0.88000000000E+00 0. -1.
        -11    1    4    4    0    0 -0.50366980645E-02 -0.68526447069E-01  0.45827752451E-01  0.82593500295E-01  0.51100000000E-03 0.  1.
         11    1    4    4    0    0 -0.17895138654E-01 -0.32362070019E-01  0.25107785778E-01  0.44701248204E-01  0.51100000000E-03 0. -1.
</event>
<event>
 8    1  0.1088021E+005  0.1043930E+01  0.7957747E-01            NaN
         13   -1    0    0    0    0  0.00000000000E+00  0.00000000000E+00  0.74505805969E-08  0.10566000000E+00  0.10566000000E+00 0.  1.
     999900   -1    0    0    0    0 -0.00000000000E+00 -0.00000000000E+00 -0.74505805969E-08  0.93827000000E+00  0.93827000000E+00 0.  1.
     999902    2    1    2    0    0  0.21423880428E-01 -0.20328959976E-02 -0.10193583073E-01  0.10201177247E+01  0.10198397658E+01 0.  0.
     999903    2    3    3    0    0 -0.30432068693E-01 -0.83256863876E-01  0.91451042833E-01  0.12904084677E+00  0.20746824161E-01 0.  0.
         14    1    1    2    0    0 -0.21423880428E-01  0.20328959976E-02  0.10193583073E-01  0.23812275292E-01  0.00000000000E+00 0.  1.
     999901    1    3    3    0    0  0.51855949121E-01  0.81223967879E-01 -0.10164462591E+00  0.89107687794E+00  0.88000000000E+00 0.  1.
        -11    1    4    4    0    0 -0.14218772849E-01 -0.14309759206E-01  0.21691219212E-01  0.29626218486E-01  0.51100000000E-03 0.  1.
         11    1    4    4    0    0 -0.16213295844E-01 -0.68947104670E-01  0.69759823621E-01  0.99414628286E-01  0.51100000000E-03 0. -1.
</event>
<event>
 8    1  0.1088021E+005  0.1043930E+01  0.7957747E-01            NaN
         13   -1    0    0    0    0  0.00000000000E+00  0.00000000000E+00  0.74505805969E-08  0.10566000000E+00  0.10566000000E+00 0.  1.
     999900   -1    0    0    0    0 -0.00000000000E+00 -0.00000000000E+00 -0.74505805969E-08  0.93827000000E+00  0.93827000000E+00 0.  1.
     999902    2    1    2    0    0 -0.17264495834E-01  0.14514420036E-01 -0.82474294542E-02  0.10199143531E+01  0.10196315689E+01 0.  0.
     999903    2    3    3    0    0 -0.10911531682E+00 -0.54660915666E-02 -0.72620688687E-01  0.13257016355E+00  0.19106368454E-01 0.  0.
         14    1    1    2    0    0  0.17264495834E-01 -0.14514420036E-01  0.82474294542E-02  0.24015646941E-01  0.00000000000E+00 0.  1.
     999901    1    3    3    0    0  0.91850820985E-01  0.19980511602E-01  0.64373259233E-01  0.88734418951E+00  0.88000000000E+00 0. -1.
        -11    1    4    4    0    0 -0.20166194647E-01 -0.80785680566E-02 -0.17421817930E-01  0.27851741945E-01  0.51100000000E-03 0. -1.
         11    1    4    4    0    0 -0.88949122172E-01  0.26124764900E-02 -0.55198870758E-01  0.10471842160E+00  0.51100000000E-03 0.  1.
</event>
<event>
 8    1  0.1088021E+005  0.1043930E+01  0.7957747E-01            NaN
         13   -1    0    0    0    0  0.00000000000E+00  0.00000000000E+00  0.74505805969E-08  0.10566000000E+00  0.10566000000E+00 0.  1.
     999900   -1    0    0    0    0 -0.00000000000E+00 -0.00000000000E+00 -0.74505805969E-08  0.93827000000E+00  0.93827000000E+00 0.  1.
     999902    2    1    2    0    0 -0.23233236520E-01 -0.33643167868E-02 -0.22158903616E-02  0.10203500917E+01  0.10200775939E+01 0.  0.
     999903    2    3    3    0    0  0.10243051616E+00  0.48477996890E-01  0.55973420704E-01  0.12801327177E+00  0.20303869114E-01 0.  0.
         14    1    1    2    0    0  0.23233236520E-01  0.33643167868E-02  0.22158903616E-02  0.23579908328E-01  0.00000000000E+00 0.  1.
     999901    1    3    3    0    0 -0.12566375268E+00 -0.51842313677E-01 -0.58189311066E-01  0.89233681990E+00  0.88000000000E+00 0.  1.
        -11    1    4    4    0    0  0.74966741343E-01  0.44902841196E-01  0.41045996286E-01  0.96546943956E-01  0.51100000000E-03 0.  1.
         11    1    4    4    0    0  0.27463774819E-01  0.35751556942E-02  0.14927424418E-01  0.31466327818E-01  0.51100000000E-03 0. -1.
</event>
<event>
 8    1  0.1088021E+005  0.1043930E+01  0.7957747E-01            NaN
         13   -1    0    0    0    0  0.00000000000E+00  0.00000000000E+00  0.74505805969E-08  0.10566000000E+00  0.10566000000E+00 0.  1.
     999900   -1    0    0    0    0 -0.00000000000E+00 -0.00000000000E+00 -0.74505805969E-08  0.93827000000E+00  0.93827000000E+00 0.  1.
     999902    2    1    2    0    0 -0.11103945924E-01 -0.93969539877E-02  0.21137909116E-01  0.10182704684E+01  0.10179471181E+01 0.  0.
     999903    2    3    3    0    0  0.96198600049E-01  0.73777813939E-01  0.35336715630E-01  0.12774619334E+00  0.19315019036E-01 0.  0.
         14    1    1    2    0    0  0.11103945924E-01  0.93969539877E-02 -0.21137909116E-01  0.25659531585E-01  0.00000000000E+00 0. -1.
     999901    1    3    3    0    0 -0.10730254597E+00 -0.83174767927E-01 -0.14198806514E-01  0.89052427508E+00  0.88000000000E+00 0.  1.
        -11    1    4    4    0    0  0.50145487599E-01  0.28136782364E-01  0.11351850731E-01  0.58612064324E-01  0.51100000000E-03 0.  1.
         11    1    4    4    0    0  0.46053112450E-01  0.45641031575E-01  0.23984864899E-01  0.69134129016E-01  0.51100000000E-03 0. -1.
</event>
<event>
 8    1  0.1088021E+005  0.1043930E+01  0.7957747E-01            NaN
         13   -1    0    0    0    0  0.00000000000E+00  0.00000000000E+00  0.74505805969E-08  0.10566000000E+00  0.10566000000E+00 0. -1.
     999900   -1    0    0    0    0 -0.00000000000E+00 -0.00000000000E+00 -0.74505805969E-08  0.93827000000E+00  0.93827000000E+00 0. -1.
     999902    2    1    2    0    0  0.16411626391E-01 -0.27052357562E-02  0.14802680149E-01  0.10216639020E+01  0.10214212400E+01 0.  0.
     999903    2    3    3    0    0  0.10993226446E+00 -0.10376156798E-02  0.75123643885E-01  0.13465346835E+00  0.20045329986E-01 0.  0.
         14    1    1    2    0    0 -0.16411626391E-01  0.27052357562E-02 -0.14802680149E-01  0.22266098017E-01  0.00000000000E+00 0.  1.
     999901    1    3    3    0    0 -0.93520638066E-01 -0.16676200764E-02 -0.60320963736E-01  0.88701043363E+00  0.88000000000E+00 0.  1.
        -11    1    4    4    0    0  0.60306956210E-01 -0.53532417995E-02  0.51654375325E-01  0.79586567814E-01  0.51100000000E-03 0.  1.
         11    1    4    4    0    0  0.49625308247E-01  0.43156261196E-02  0.23469268559E-01  0.55066900540E-01  0.51100000000E-03 0. -1.
</event>
<event>
 8    1  0.1088021E+005  0.1043930E+01  0.7957747E-01            NaN
         13   -1    0    0    0    0  0.00000000000E+00  0.00000000000E+00  0.74505805969E-08  0.10566000000E+00  0.10566000000E+00 0. -1.
     999900   -1    0    0    0    0 -0.00000000000E+00 -0.00000000000E+00 -0.74505805969E-08  0.93827000000E+00  0.93827000000E+00 0. -1.
     999902    2    1    2    0    0 -0.81194378202E-02 -0.68545490589E-02  0.15266359539E-01  0.10253296815E+01  0.10251609552E+01 0.  0.
     999903    2    3    3    0    0  0.13145234419E+00  0.14300452688E-01  0.11051864460E-01  0.13406901350E+00  0.19186842698E-01 0.  0.
         14    1    1    2    0    0  0.81194378202E-02  0.68545490589E-02 -0.15266359539E-01  0.18600318462E-01  0.00000000000E+00 0.  1.
     999901    1    3    3    0    0 -0.13957178201E+00 -0.21155001747E-01  0.42144950787E-02  0.89126066804E+00  0.88000000000E+00 0.  1.
        -11    1    4    4    0    0  0.11065737596E+00  0.51256898009E-02  0.11122449172E-01  0.11133417062E+00  0.51100000000E-03 0. -1.
         11    1    4    4    0    0  0.20794968225E-01  0.91747628873E-02 -0.70584711525E-04  0.22734842879E-01  0.51100000000E-03 0.  1.
</event>
<event>
 8    1  0.1088021E+005  0.1043930E+01  0.7957747E-01            NaN
         13   -1    0    0    0    0  0.00000000000E+00  0.00000000000E+00  0.74505805969E-08  0.10566000000E+00  0.10566000000E+00 0.  1.
     999900   -1    0    0    0    0 -0.00000000000E+00 -0.00000000000E+00 -0.74505805969E-08  0.93827000000E+00  0.93827000000E+00 0.  1.
     999902    2    1    2    0    0  0.18290977603E-01 -0.22237317209E-02 -0.14441146430E-01  0.10205194991E+01  0.10202509478E+01 0.  0.
     999903    2    3    3    0    0 -0.24211407673E-01 -0.45666692170E-01 -0.12000544230E+00  0.13212906454E+00  0.19625098196E-01 0.  0.
         14    1    1    2    0    0 -0.18290977603E-01  0.22237317209E-02  0.14441146430E-01  0.23410500948E-01  0.00000000000E+00 0.  1.
     999901    1    3    3    0    0  0.42502385276E-01  0.43442960449E-01  0.10556429587E+00  0.88839043451E+00  0.88000000000E+00 0. -1.
        -11    1    4    4    0    0 -0.70616898630E-03 -0.20860338577E-01 -0.39762034839E-01  0.44910276505E-01  0.51100000000E-03 0. -1.
         11    1    4    4    0    0 -0.23505238687E-01 -0.24806353592E-01 -0.80243407463E-01  0.87218788036E-01  0.51100000000E-03 0.  1.
</event>
<event>
 8    1  0.1088021E+005  0.1043930E+01  0.7957747E-01            NaN
         13   -1    0    0    0    0  0.00000000000E+00  0.00000000000E+00  0.74505805969E-08  0.10566000000E+00  0.10566000000E+00 0. -1.
     999900   -1    0    0    0    0 -0.00000000000E+00 -0.00000000000E+00 -0.74505805969E-08  0.93827000000E+00  0.93827000000E+00 0. -1.
     999902    2    1    2    0    0 -0.39528629651E-02 -0.22833821988E-01  0.16059977979E-02  0.10207009712E+01  0.10204366148E+01 0.  0.
     999903    2    3    3    0    0 -0.74444683166E-01 -0.25913682638E-01  0.10388848532E+00  0.13197137813E+00  0.20250863316E-01 0.  0.
         14    1    1    2    0    0  0.39528629651E-02  0.22833821988E-01 -0.16059977979E-02  0.23229028846E-01  0.00000000000E+00 0. -1.
     999901    1    3    3    0    0  0.70491820201E-01  0.30798606499E-02 -0.10228248752E+00  0.88872959302E+00  0.88000000000E+00 0. -1.
        -11    1    4    4    0    0 -0.47194797009E-02 -0.80981981625E-02  0.10842005735E-01  0.14341008036E-01  0.51100000000E-03 0. -1.
         11    1    4    4    0    0 -0.69725203466E-01 -0.17815484475E-01  0.93046479583E-01  0.11763037010E+00  0.51100000000E-03 0.  1.
</event>
<event>
 8    1  0.1088021E+005  0.1043930E+01  0.7957747E-01            NaN
         13   -1    0    0    0    0  0.00000000000E+00  0.00000000000E+00  0.74505805969E-08  0.10566000000E+00  0.10566000000E+00 0. -1.
     999900   -1    0    0    0    0 -0.00000000000E+00 -0.00000000000E+00 -0.74505805969E-08  0.93827000000E+00  0.93827000000E+00 0.  1.
     999902    2    1    2    0    0 -0.80086836267E-02 -0.16534995446E-01 -0.14663453936E-01  0.10204233633E+01  0.10201525760E+01 0.  0.
     999903    2    3    3    0    0  0.88664755313E-01  0.28819854873E-01 -0.90018892306E-01  0.13077103888E+00  0.17482584720E-01 0.  0.
         14    1    1    2    0    0  0.80086836267E-02  0.16534995446E-01  0.14663453936E-01  0.23506636704E-01  0.00000000000E+00 0. -1.
     999901    1    3    3    0    0 -0.96673438940E-01 -0.45354850319E-01  0.75355438370E-01  0.88965232441E+00  0.88000000000E+00 0. -1.
        -11    1    4    4    0    0  0.12885642647E-01  0.12110661652E-03 -0.66513297490E-02  0.14510539675E-01  0.51100000000E-03 0.  1.
         11    1    4    4    0    0  0.75779112666E-01  0.28698748257E-01 -0.83367562557E-01  0.11626049921E+00  0.51100000000E-03 0. -1.
</event>
<event>
 8    1  0.1088021E+005  0.1043930E+01  0.7957747E-01            NaN
         13   -1    0    0    0    0  0.00000000000E+00  0.00000000000E+00  0.74505805969E-08  0.10566000000E+00  0.10566000000E+00 0.  1.
     999900   -1    0    0    0    0 -0.00000000000E+00 -0.00000000000E+00 -0.74505805969E-08  0.93827000000E+00  0.93827000000E+00 0. -1.
     999902    2    1    2    0    0  0.86177789241E-02 -0.19190875414E-01 -0.11307409651E-01  0.10200466726E+01  0.10197670327E+01 0.  0.
     999903    2    3    3    0    0 -0.57608424413E-01 -0.45547131499E-02 -0.11643616470E+00  0.13119787650E+00  0.17777130614E-01 0.  0.
         14    1    1    2    0    0 -0.86177789241E-02  0.19190875414E-01  0.11307409651E-01  0.23883327359E-01  0.00000000000E+00 0.  1.
     999901    1    3    3    0    0  0.66226203337E-01 -0.14636162264E-01  0.10512875505E+00  0.88884879614E+00  0.88000000000E+00 0.  1.
        -11    1    4    4    0    0 -0.46052248003E-01 -0.55856380050E-02 -0.75212534392E-01  0.88369651741E-01  0.51100000000E-03 0. -1.
         11    1    4    4    0    0 -0.11556176410E-01  0.10309248551E-02 -0.41223630312E-01  0.42828224764E-01  0.51100000000E-03 0.  1.
</event>
<event>
 8    1  0.1088021E+005  0.1043930E+01  0.7957747E-01            NaN
         13   -1    0    0    0    0  0.00000000000E+00  0.00000000000E+00  0.74505805969E-08  0.10566000000E+00  0.10566000000E+00 0. -1.
     999900   -1    0    0    0    0 -0.00000000000E+00 -0.00000000000E+00 -0.74505805969E-08  0.93827000000E+00  0.93827000000E+00 0.  1.
     999902    2    1    2    0    0  0.13294429294E-01 -0.18418037273E-01  0.48348634450E-02  0.10207062653E+01  0.10204420308E+01 0.  0.
     999903    2    3    3    0    0  0.70070530819E-01  0.93270026783E-01  0.54755954225E-01  0.13043110301E+00  0.20121653082E-01 0.  0.
         14    1    1    2    0    0 -0.13294429294E-01  0.18418037273E-01 -0.48348634450E-02  0.23223734665E-01  0.00000000000E+00 0.  1.
     999901    1    3    3    0    0 -0.56776101526E-01 -0.11168806406E+00 -0.49921090780E-01  0.89027516233E+00  0.88000000000E+00 0. -1.
        -11    1    4    4    0    0  0.13513367823E-01  0.18879260339E-01  0.20256514009E-01  0.30815987112E-01  0.51100000000E-03 0.  1.
         11    1    4    4    0    0  0.56557162997E-01  0.74390766444E-01  0.34499440216E-01  0.99615115894E-01  0.51100000000E-03 0. -1.
</event>
<event>
 8    1  0.1088021E+005  0.1043930E+01  0.7957747E-01            NaN
         13   -1    0    0    0    0  0.00000000000E+00  0.00000000000E+00  0.74505805969E-08  0.10566000000E+00  0.10566000000E+00 0. -1.
     999900   -1    0    0    0    0 -0.00000000000E+00 -0.00000000000E+00 -0.74505805969E-08  0.93827000000E+00  0.93827000000E+00 0.  1.
     999902    2    1    2    0    0  0.17029049697E-01  0.20160965529E-01  0.75015149023E-02  0.10164941514E+01  0.10161238281E+01 0.  0.
     999903    2    3    3    0    0  0.18536816807E-02  0.11242369762E+00 -0.60031594054E-01  0.12896757467E+00  0.19655002130E-01 0.  0.
         14    1    1    2    0    0 -0.17029049697E-01 -0.20160965529E-01 -0.75015149023E-02  0.27435848638E-01  0.00000000000E+00 0.  1.
     999901    1    3    3    0    0  0.15175368017E-01 -0.92262732095E-01  0.67533108957E-01  0.88752657669E+00  0.88000000000E+00 0.  1.
        -11    1    4    4    0    0 -0.15271129847E-02  0.38452413913E-01 -0.31042842403E-01  0.49445317223E-01  0.51100000000E-03 0.  1.
         11    1    4    4    0    0  0.33807946654E-02  0.73971283711E-01 -0.28988751651E-01  0.79522257448E-01  0.51100000000E-03 0. -1.
</event>
<event>
 8    1  0.1088021E+005  0.1043930E+01  0.7957747E-01            NaN
         13   -1    0    0    0    0  0.00000000000E+00  0.00000000000E+00  0.74505805969E-08  0.10566000000E+00  0.10566000000E+00 0. -1.
     999900   -1    0    0    0    0 -0.00000000000E+00 -0.00000000000E+00 -0.74505805969E-08  0.93827000000E+00  0.93827000000E+00 0.  1.
     999902    2    1    2    0    0 -0.20965066415E-01  0.55406821243E-02  0.71949595213E-02  0.10210826673E+01  0.10208270240E+01 0.  0.
     999903    2    3    3    0    0 -0.82111690627E-03  0.12854135194E+00 -0.22831581476E-01  0.13179276147E+00  0.18013813365E-01 0.  0.
         14    1    1    2    0    0  0.20965066415E-01 -0.55406821243E-02 -0.71949595213E-02  0.22847332682E-01  0.00000000000E+00 0.  1.
     999901    1    3    3    0    0 -0.20143949509E-01 -0.12300066982E+00  0.30026540998E-01  0.88928990585E+00  0.88000000000E+00 0. -1.
        -11    1    4    4    0    0  0.72636333835E-02  0.70511370557E-01 -0.78836217611E-02  0.71323392802E-01  0.51100000000E-03 0.  1.
         11    1    4    4    0    0 -0.80847502898E-02  0.58029981383E-01 -0.14947959715E-01  0.60469368669E-01  0.51100000000E-03 0. -1.
</event>
<event>
 8    1  0.1088021E+005  0.1043930E+01  0.7957747E-01            NaN
         13   -1    0    0    0    0  0.00000000000E+00  0.00000000000E+00  0.74505805969E-08  0.10566000000E+00  0.10566000000E+00 0.  1.
     999900   -1    0    0    0    0 -0.00000000000E+00 -0.00000000000E+00 -0.74505805969E-08  0.93827000000E+00  0.93827000000E+00 0.  1.
     999902    2    1    2    0    0  0.67709063436E-02  0.17577771220E-01 -0.10470428552E-01  0.10223788263E+01  0.10221516577E+01 0.  0.
     999903    2    3    3    0    0  0.10958803941E+00  0.39527490813E-01 -0.63709192313E-01  0.13452325302E+00  0.21579701232E-01 0.  0.
         14    1    1    2    0    0 -0.67709063436E-02 -0.17577771220E-01  0.10470428552E-01  0.21551173700E-01  0.00000000000E+00 0.  1.
     999901    1    3    3    0    0 -0.10281713307E+00 -0.21949719593E-01  0.53238763761E-01  0.88785557328E+00  0.88000000000E+00 0. -1.
        -11    1    4    4    0    0  0.66264077781E-01  0.18695430252E-01 -0.48053492150E-01  0.83963363113E-01  0.51100000000E-03 0.  1.
         11    1    4    4    0    0  0.43323961630E-01  0.20832060561E-01 -0.15655700163E-01  0.50559889904E-01  0.51100000000E-03 0. -1.
</event>
<event>
 8    1  0.1088021E+005  0.1043930E+01  0.7957747E-01            NaN
         13   -1    0    0    0    0  0.00000000000E+00  0.00000000000E+00  0.74505805969E-08  0.10566000000E+00  0.10566000000E+00 0. -1.
     999900   -1    0    0    0    0 -0.00000000000E+00 -0.00000000000E+00 -0.74505805969E-08  0.93827000000E+00  0.93827000000E+00 0. -1.
     999902    2    1    2    0    0  0.13459126478E-01 -0.16704140844E-01 -0.10287799547E-01  0.10201389255E+01  0.10198614671E+01 0.  0.
     999903    2    3    3    0    0  0.43625422527E-01 -0.12395094861E+00  0.25308559617E-02  0.13302213435E+00  0.20529681987E-01 0.  0.
         14    1    1    2    0    0 -0.13459126478E-01  0.16704140844E-01  0.10287799547E-01  0.23791074511E-01  0.00000000000E+00 0.  1.
     999901    1    3    3    0    0 -0.30166296050E-01  0.10724680777E+00 -0.12818655509E-01  0.88711679114E+00  0.88000000000E+00 0. -1.
        -11    1    4    4    0    0  0.11015491648E-01 -0.39904025317E-01  0.99050314290E-02  0.42568099105E-01  0.51100000000E-03 0.  1.
         11    1    4    4    0    0  0.32609930879E-01 -0.84046923294E-01 -0.73741754673E-02  0.90454035244E-01  0.51100000000E-03 0. -1.
</event>
<event>
 8    1  0.1088021E+005  0.1043930E+01  0.7957747E-01            NaN
         13   -1    0    0    0    0  0.00000000000E+00  0.00000000000E+00  0.74505805969E-08  0.10566000000E+00  0.10566000000E+00 0. -1.
     999900   -1    0    0    0    0 -0.00000000000E+00 -0.00000000000E+00 -0.74505805969E-08  0.93827000000E+00  0.93827000000E+00 0.  1.
     999902    2    1    2    0    0 -0.17485503463E-01  0.31967689703E-02  0.14967547592E-01  0.10206923227E+01  0.10204277672E+01 0.  0.
     999903    2    3    3    0    0  0.40805260685E-02 -0.31845570043E-01  0.12746106433E+00  0.13257754950E+00  0.17311634423E-01 0.  0.
         14    1    1    2    0    0  0.17485503463E-01 -0.31967689703E-02 -0.14967547592E-01  0.23237677253E-01  0.00000000000E+00 0. -1.
     999901    1    3    3    0    0 -0.21566029532E-01  0.35042339014E-01 -0.11249351674E+00  0.88811477325E+00  0.88000000000E+00 0.  1.
        -11    1    4    4    0    0 -0.33933180512E-02 -0.27679837930E-01  0.98942843816E-01  0.10279900534E+00  0.51100000000E-03 0.  1.
         11    1    4    4    0    0  0.74738441198E-02 -0.41657321132E-02  0.28518220514E-01  0.29778544159E-01  0.51100000000E-03 0. -1.
</event>
<event>
 8    1  0.1088021E+005  0.1043930E+01  0.7957747E-01            NaN
         13   -1    0    0    0    0  0.00000000000E+00  0.00000000000E+00  0.74505805969E-08  0.10566000000E+00  0.10566000000E+00 0.  1.
     999900   -1    0    0    0    0 -0.00000000000E+00 -0.00000000000E+00 -0.74505805969E-08  0.93827000000E+00  0.93827000000E+00 0.  1.
     999902    2    1    2    0    0  0.11037709041E-01 -0.26713990350E-02 -0.21013758655E-01  0.10200439068E+01  0.10197642014E+01 0.  0.
     999903    2    3    3    0    0  0.58054722721E-01 -0.31849682724E-01 -0.11416483058E+00  0.13339905459E+00  0.19415099938E-01 0.  0.
         14    1    1    2    0    0 -0.11037709041E-01  0.26713990350E-02  0.21013758655E-01  0.23886093161E-01  0.00000000000E+00 0.  1.
     999901    1    3    3    0    0 -0.47017013680E-01  0.29178283689E-01  0.93151071921E-01  0.88664485225E+00  0.88000000000E+00 0. -1.
        -11    1    4    4    0    0  0.24644113419E-01 -0.19171288897E-01 -0.69520454337E-01  0.76211713906E-01  0.51100000000E-03 0.  1.
         11    1    4    4    0    0  0.33410609302E-01 -0.12678393827E-01 -0.44644376240E-01  0.57187340687E-01  0.51100000000E-03 0. -1.
</event>
<event>
 8    1  0.1088021E+005  0.1043930E+01  0.7957747E-01            NaN
         13   -1    0    0    0    0  0.00000000000E+00  0.00000000000E+00  0.74505805969E-08  0.10566000000E+00  0.10566000000E+00 0. -1.
     999900   -1    0    0    0    0 -0.00000000000E+00 -0.00000000000E+00 -0.74505805969E-08  0.93827000000E+00  0.93827000000E+00 0.  1.
     999902    2    1    2    0    0 -0.16599924241E-02  0.41040125215E-02  0.20865340019E-01  0.10226001873E+01  0.10223777102E+01 0.  0.
     999903    2    3    3    0    0  0.96636244135E-01 -0.33853499680E-01  0.84004698065E-01  0.13406796993E+00  0.20804041515E-01 0.  0.
         14    1    1    2    0    0  0.16599924241E-02 -0.41040125215E-02 -0.20865340019E-01  0.21329812651E-01  0.00000000000E+00 0.  1.
     999901    1    3    3    0    0 -0.98296236560E-01  0.37957512201E-01 -0.63139358046E-01  0.88853221742E+00  0.88000000000E+00 0.  1.
        -11    1    4    4    0    0  0.73959484384E-01 -0.18042665929E-01  0.68255993921E-01  0.10224815378E+00  0.51100000000E-03 0. -1.
         11    1    4    4    0    0  0.22676759751E-01 -0.15810833751E-01  0.15748704143E-01  0.31819816151E-01  0.51100000000E-03 0.  1.
</event>
<event>
 8    1  0.1088021E+005  0.1043930E+01  0.7957747E-01            NaN
         13   -1    0    0    0    0  0.00000000000E+00  0.00000000000E+00  0.74505805969E-08  0.10566000000E+00  0.10566000000E+00 0.  1.
     999900   -1    0    0    0    0 -0.00000000000E+00 -0.00000000000E+00 -0.74505805969E-08  0.93827000000E+00  0.93827000000E+00 0.  1.
     999902    2    1    2    0    0  0.23510362800E-01 -0.95397178571E-03 -0.92261879424E-02  0.10186561051E+01  0.10183425213E+01 0.  0.
     999903    2    3    3    0    0  0.96203424360E-01 -0.74801248647E-01 -0.45781129407E-01  0.13182243112E+00  0.20758513414E-01 0.  0.
         14    1    1    2    0    0 -0.23510362800E-01  0.95397178571E-03  0.92261879424E-02  0.25273894933E-01  0.00000000000E+00 0.  1.
     999901    1    3    3    0    0 -0.72693061559E-01  0.73847276861E-01  0.36554941464E-01  0.88683367395E+00  0.88000000000E+00 0.  1.
        -11    1    4    4    0    0  0.55437575258E-02 -0.11458921576E-01 -0.20991567637E-02  0.12911534041E-01  0.51100000000E-03 0. -1.
         11    1    4    4    0    0  0.90659666834E-01 -0.63342327071E-01 -0.43681972643E-01  0.11891089708E+00  0.51100000000E-03 0.  1.
</event>
<event>
 8    1  0.1088021E+005  0.1043930E+01  0.7957747E-01            NaN
         13   -1    0    0    0    0  0.00000000000E+00  0.00000000000E+00  0.74505805969E-08  0.10566000000E+00  0.10566000000E+00 0. -1.
     999900   -1    0    0    0    0 -0.00000000000E+00 -0.00000000000E+00 -0.74505805969E-08  0.93827000000E+00  0.93827000000E+00 0.  1.
     999902    2    1    2    0    0  0.15756000796E-01  0.10151815667E-01  0.14936564590E-01  0.10199631086E+01  0.10196814851E+01 0.  0.
     999903    2    3    3    0    0  0.53159961605E-02 -0.66067797906E-01 -0.10807206609E+00  0.12808332609E+00  0.18236041752E-01 0.  0.
         14    1    1    2    0    0 -0.15756000796E-01 -0.10151815667E-01 -0.14936564590E-01  0.23966891416E-01  0.00000000000E+00 0.  1.
     999901    1    3    3    0    0  0.10440004635E-01  0.76219613573E-01  0.12300863068E+00  0.89187978249E+00  0.88000000000E+00 0. -1.
        -11    1    4    4    0    0  0.28016292008E-02 -0.45332198052E-01 -0.56872250019E-01  0.72784416255E-01  0.51100000000E-03 0. -1.
         11    1    4    4    0    0  0.25143669597E-02 -0.20735599854E-01 -0.51199816074E-01  0.55298909840E-01  0.51100000000E-03 0.  1.
</event>
<event>
 8    1  0.1088021E+005  0.1043930E+01  0.7957747E-01            NaN
         13   -1    0    0    0    0  0.00000000000E+00  0.00000000000E+00  0.74505805969E-08  0.10566000000E+00  0.10566000000E+00 0. -1.
     999900   -1    0    0    0    0 -0.00000000000E+00 -0.00000000000E+00 -0.74505805969E-08  0.93827000000E+00  0.93827000000E+00 0.  1.
     999902    2    1    2    0    0 -0.19531992415E-02  0.16928711557E-01 -0.16255769357E-01  0.10203790701E+01  0.10201072494E+01 0.  0.
     999903    2    3    3    0    0 -0.11976642844E+00 -0.34812873138E-01 -0.34452432770E-01  0.13083521669E+00  0.19363633083E-01 0.  0.
         14    1    1    2    0    0  0.19531992415E-02 -0.16928711557E-01  0.16255769357E-01  0.23550929910E-01  0.00000000000E+00 0. -1.
     999901    1    3    3    0    0  0.11781322920E+00  0.51741584694E-01  0.18196663413E-01  0.88954385340E+00  0.88000000000E+00 0.  1.
        -11    1    4    4    0    0 -0.72602739606E-01 -0.24883952323E-01 -0.12077552491E-01  0.77694898653E-01  0.51100000000E-03 0.  1.
         11    1    4    4    0    0 -0.47163688831E-01 -0.99289208143E-02 -0.22374880279E-01  0.53140318038E-01  0.51100000000E-03 0. -1.
</event>
<event>
 8    1  0.1088021E+005  0.1043930E+01  0.7957747E-01            NaN
         13   -1    0    0    0    0  0.00000000000E+00  0.00000000000E+00  0.74505805969E-08  0.10566000000E+00  0.10566000000E+00 0.  1.
     999900   -1    0    0    0    0 -0.00000000000E+00 -0.00000000000E+00 -0.74505805969E-08  0.93827000000E+00  0.93827000000E+00 0. -1.
     999902    2    1    2    0    0 -0.18714627742E-01 -0.90470898109E-02 -0.11076117520E-01  0.10203764970E+01  0.10201046162E+01 0.  0.
     999903    2    3    3    0    0  0.12330272557E+00  0.23025678438E-01 -0.12536476436E-01  0.12841252699E+00  0.24471817346E-01 0.  0.
         14    1    1    2    0    0  0.18714627742E-01  0.90470898109E-02  0.11076117520E-01  0.23553503028E-01  0.00000000000E+00 0.  1.
     999901    1    3    3    0    0 -0.14201735331E+00 -0.32072768249E-01  0.14603589161E-02  0.89196396999E+00  0.88000000000E+00 0.  1.
        -11    1    4    4    0    0  0.51979656995E-01  0.28128812861E-02  0.47990919075E-02  0.52278957972E-01  0.51100000000E-03 0.  1.
         11    1    4    4    0    0  0.71323068578E-01  0.20212797152E-01 -0.17335568343E-01  0.76133569014E-01  0.51100000000E-03 0. -1.
</event>
<event>
 8    1  0.1088021E+005  0.1043930E+01  0.7957747E-01            NaN
         13   -1    0    0    0    0  0.00000000000E+00  0.00000000000E+00  0.74505805969E-08  0.10566000000E+00  0.10566000000E+00 0.  1.
     999900   -1    0    0    0    0 -0.00000000000E+00 -0.00000000000E+00 -0.74505805969E-08  0.93827000000E+00  0.93827000000E+00 0. -1.
     999902    2    1    2    0    0  0.11820430006E-01  0.16313287897E-01 -0.12927620242E-01  0.10199932230E+01  0.10197123152E+01 0.  0.
     999903    2    3    3    0    0 -0.10060016704E-03 -0.56685236502E-01 -0.11617016877E+00  0.13087572833E+00  0.20487117789E-01 0.  0.
         14    1    1    2    0    0 -0.11820430006E-01 -0.16313287897E-01  0.12927620242E-01  0.23936776990E-01  0.00000000000E+00 0. -1.
     999901    1    3    3    0    0  0.11921030173E-01  0.72998524399E-01  0.10324254853E+00  0.88911749468E+00  0.88000000000E+00 0.  1.
        -11    1    4    4    0    0  0.72344776799E-03 -0.30652750132E-01 -0.84354679328E-01  0.89755710197E-01  0.51100000000E-03 0.  1.
         11    1    4    4    0    0 -0.82404793503E-03 -0.26032486370E-01 -0.31815489443E-01  0.41120018131E-01  0.51100000000E-03 0. -1.
</event>
<event>
 8    1  0.1088021E+005  0.1043930E+01  0.7957747E-01            NaN
         13   -1    0    0    0    0  0.00000000000E+00  0.00000000000E+00  0.74505805969E-08  0.10566000000E+00  0.10566000000E+00 0.  1.
     999900   -1    0    0    0    0 -0.00000000000E+00 -0.00000000000E+00 -0.74505805969E-08  0.93827000000E+00  0.93827000000E+00 0. -1.
     999902    2    1    2    0    0 -0.13900327639E-01  0.20842323900E-01  0.76775911985E-02  0.10177275768E+01  0.10173902170E+01 0.  0.
     999903    2    3    3    0    0  0.33102264222E-01 -0.10150980855E+00 -0.62319721788E-01  0.12527090460E+00  0.20225001523E-01 0.  0.
         14    1    1    2    0    0  0.13900327639E-01 -0.20842323900E-01 -0.76775911985E-02  0.26202423182E-01  0.00000000000E+00 0.  1.
     999901    1    3    3    0    0 -0.47002591861E-01  0.12235213245E+00  0.69997312987E-01  0.89245667222E+00  0.88000000000E+00 0.  1.
        -11    1    4    4    0    0  0.14304370470E-01 -0.59706931052E-01 -0.45596934350E-01  0.76477932591E-01  0.51100000000E-03 0.  1.
         11    1    4    4    0    0  0.18797893752E-01 -0.41802877502E-01 -0.16722787438E-01  0.48792972011E-01  0.51100000000E-03 0. -1.
</event>
<event>
 8    1  0.1088021E+005  0.1043930E+01  0.7957747E-01            NaN
         13   -1    0    0    0    0  0.00000000000E+00  0.00000000000E+00  0.74505805969E-08  0.10566000000E+00  0.10566000000E+00 0.  1.
     999900   -1    0    0    0    0 -0.00000000000E+00 -0.00000000000E+00 -0.74505805969E-08  0.93827000000E+00  0.93827000000E+00 0. -1.
     999902    2    1    2    0    0 -0.11129898869E-01  0.19065419651E-01 -0.33068711746E-02  0.10216073596E+01  0.10213634500E+01 0.  0.
     999903    2    3    3    0    0  0.15778169614E-01  0.52612793309E-01 -0.11942219194E+00  0.13293855849E+00  0.19848016287E-01 0.  0.
         14    1    1    2    0    0  0.11129898869E-01 -0.19065419651E-01  0.33068711746E-02  0.22322640352E-01  0.00000000000E+00 0. -1.
     999901    1    3    3    0    0 -0.26908068483E-01 -0.33547373658E-01  0.11611532077E+00  0.88866880115E+00  0.88000000000E+00 0.  1.
        -11    1    4    4    0    0 -0.42017096160E-02  0.50217680402E-02 -0.17482582653E-01  0.18675500935E-01  0.51100000000E-03 0.  1.
         11    1    4    4    0    0  0.19979879230E-01  0.47591025269E-01 -0.10193960929E+00  0.11426305756E+00  0.51100000000E-03 0. -1.
</event>
<event>
 8    1  0.1088021E+005  0.1043930E+01  0.7957747E-01            NaN
         13   -1    0    0    0    0  0.00000000000E+00  0.00000000000E+00  0.74505805969E-08  0.10566000000E+00  0.10566000000E+00 0.  1.
     999900   -1    0    0    0    0 -0.00000000000E+00 -0.00000000000E+00 -0.74505805969E-08  0.93827000000E+00  0.93827000000E+00 0. -1.
     999902    2    1    2    0    0  0.42075796474E-03  0.27849629993E-01 -0.51954874732E-02  0.10155967683E+01  0.10152014696E+01 0.  0.
     999903    2    3    3    0    0 -0.15065156842E-01  0.97137491837E-01 -0.81697865723E-01  0.12942904421E+00  0.20363814731E-01 0.  0.
         14    1    1    2    0    0 -0.42075796474E-03 -0.27849629993E-01  0.51954874732E-02  0.28333231691E-01  0.00000000000E+00 0.  1.
     999901    1    3    3    0    0  0.15485914807E-01 -0.69287861844E-01  0.76502378249E-01  0.88616772410E+00  0.88000000000E+00 0.  1.
        -11    1    4    4    0    0 -0.36455547149E-03  0.27306180233E-01 -0.33913031235E-01  0.43544404786E-01  0.51100000000E-03 0. -1.
         11    1    4    4    0    0 -0.14700601371E-01  0.69831311604E-01 -0.47784834487E-01  0.85884639424E-01  0.51100000000E-03 0.  1.
</event>
<event>
 8    1  0.1088021E+005  0.1043930E+01  0.7957747E-01            NaN
         13   -1    0    0    0    0  0.00000000000E+00  0.00000000000E+00  0.74505805969E-08  0.10566000000E+00  0.10566000000E+00 0. -1.
     999900   -1    0    0    0    0 -0.00000000000E+00 -0.00000000000E+00 -0.74505805969E-08  0.93827000000E+00  0.93827000000E+00 0.  1.
     999902    2    1    2    0    0 -0.47123809310E-02  0.47428143808E-02 -0.32161871829E-01  0.10110805431E+01  0.10105467717E+01 0.  0.
     999903    2    3    3    0    0 -0.28205056138E-01 -0.90700441049E-01  0.70115104249E-01  0.11972096318E+00  0.19871738277E-01 0.  0.
         14    1    1    2    0    0  0.47123809310E-02 -0.47428143808E-02  0.32161871829E-01  0.32849456949E-01  0.00000000000E+00 0. -1.
     999901    1    3    3    0    0  0.23492675207E-01  0.95443255430E-01 -0.10227697608E+00  0.89135957987E+00  0.88000000000E+00 0.  1.
        -11    1    4    4    0    0 -0.19169197254E-01 -0.75832549691E-01  0.48767630704E-01  0.92176876935E-01  0.51100000000E-03 0.  1.
         11    1    4    4    0    0 -0.90358588841E-02 -0.14867891358E-01  0.21347473545E-01  0.27544086243E-01  0.51100000000E-03 0. -1.
</event>
<event>
 8    1  0.1088021E+005  0.1043930E+01  0.7957747E-01            NaN
         13   -1    0    0    0    0  0.00000000000E+00  0.00000000000E+00  0.74505805969E-08  0.10566000000E+00  0.10566000000E+00 0. -1.
     999900   -1    0    0    0    0 -0.00000000000E+00 -0.00000000000E+00 -0.74505805969E-08  0.93827000000E+00  0.93827000000E+00 0.  1.
     999902    2    1    2    0    0 -0.35606566547E-02 -0.31203623701E-02 -0.24797383084E-01  0.10186847005E+01  0.10183718348E+01 0.  0.
     999903    2    3    3    0    0  0.62779718144E-01  0.63692543771E-01 -0.93515555627E-01  0.13099827111E+00  0.20429262023E-01 0.  0.
         14    1    1    2    0    0  0.35606566547E-02  0.31203623701E-02  0.24797383084E-01  0.25245299463E-01  0.00000000000E+00 0. -1.
     999901    1    3    3    0    0 -0.66340374799E-01 -0.66812906141E-01  0.68718172543E-01  0.88768642943E+00  0.88000000000E+00 0. -1.
        -11    1    4    4    0    0  0.25169083194E-01  0.38390846510E-01 -0.53843240578E-01  0.70758006766E-01  0.51100000000E-03 0. -1.
         11    1    4    4    0    0  0.37610634950E-01  0.25301697261E-01 -0.39672315049E-01  0.60240264342E-01  0.51100000000E-03 0.  1.
</event>
<event>
 8    1  0.1088021E+005  0.1043930E+01  0.7957747E-01            NaN
         13   -1    0    0    0    0  0.00000000000E+00  0.00000000000E+00  0.74505805969E-08  0.10566000000E+00  0.10566000000E+00 0. -1.
     999900   -1    0    0    0    0 -0.00000000000E+00 -0.00000000000E+00 -0.74505805969E-08  0.93827000000E+00  0.93827000000E+00 0. -1.
     999902    2    1    2    0    0 -0.21850565078E-01  0.53235538018E-02  0.20587107153E-02  0.10213462512E+01  0.10210965376E+01 0.  0.
     999903    2    3    3    0    0  0.13836650277E-01  0.10439052094E+00 -0.76301168235E-01  0.13161139636E+00  0.20269623204E-01 0.  0.
         14    1    1    2    0    0  0.21850565078E-01 -0.53235538018E-02 -0.20587107153E-02  0.22583748784E-01  0.00000000000E+00 0.  1.
     999901    1    3    3    0    0 -0.35687215355E-01 -0.99066967138E-01  0.78359878950E-01  0.88973485486E+00  0.88000000000E+00 0.  1.
        -11    1    4    4    0    0  0.15255354697E-01  0.60236459613E-01 -0.36021818317E-01  0.71826105487E-01  0.51100000000E-03 0. -1.
         11    1    4    4    0    0 -0.14187044202E-02  0.44154061326E-01 -0.40279349918E-01  0.59785290872E-01  0.51100000000E-03 0.  1.
</event>
<event>
 8    1  0.1088021E+005  0.1043930E+01  0.7957747E-01            NaN
         13   -1    0    0    0    0  0.00000000000E+00  0.00000000000E+00  0.74505805969E-08  0.10566000000E+00  0.10566000000E+00 0.  1.
     999900   -1    0    0    0    0 -0.00000000000E+00 -0.00000000000E+00 -0.74505805969E-08  0.93827000000E+00  0.93827000000E+00 0. -1.
     999902    2    1    2    0    0 -0.18001613129E-01 -0.14744911645E-01  0.17713333238E-02  0.10205931597E+01  0.10203263152E+01 0.  0.
     999903    2    3    3    0    0 -0.69360819453E-02 -0.10218066426E+00 -0.81424627509E-01  0.13228632940E+00  0.19511678508E-01 0.  0.
         14    1    1    2    0    0  0.18001613129E-01  0.14744911645E-01 -0.17713333238E-02  0.23336840326E-01  0.00000000000E+00 0. -1.
     999901    1    3    3    0    0 -0.11065531183E-01  0.87435752620E-01  0.83195960833E-01  0.88830683028E+00  0.88000000000E+00 0.  1.
        -11    1    4    4    0    0 -0.12905892132E-01 -0.84392814704E-01 -0.69057279398E-01  0.10980837028E+00  0.51100000000E-03 0. -1.
         11    1    4    4    0    0  0.59698101866E-02 -0.17787849560E-01 -0.12367348111E-01  0.22477959114E-01  0.51100000000E-03 0.  1.
</event>
<event>
 8    1  0.1088021E+005  0.1043930E+01  0.7957747E-01            NaN
         13   -1    0    0    0    0  0.00000000000E+00  0.00000000000E+00  0.74505805969E-08  0.10566000000E+00  0.10566000000E+00 0. -1.
     999900   -1    0    0    0    0 -0.00000000000E+00 -0.00000000000E+00 -0.74505805969E-08  0.93827000000E+00  0.93827000000E+00 0.  1.
     999902    2    1    2    0    0 -0.21768423673E-01  0.70259998872E-02 -0.54568499433E-02  0.10204139171E+01  0.10201429096E+01 0.  0.
     999903    2    3    3    0    0  0.46657787334E-01  0.11890464518E+00  0.16844798869E-01  0.13041597263E+00  0.20231532417E-01 0.  0.
         14    1    1    2    0    0  0.21768423673E-01 -0.70259998872E-02  0.54568499433E-02  0.23516082899E-01  0.00000000000E+00 0.  1.
     999901    1    3    3    0    0 -0.68426211007E-01 -0.11187864529E+00 -0.22301648813E-01  0.88999794447E+00  0.88000000000E+00 0.  1.
        -11    1    4    4    0    0  0.30970369252E-01  0.57017150156E-01  0.22722593823E-02  0.64927216691E-01  0.51100000000E-03 0.  1.
         11    1    4    4    0    0  0.15687418081E-01  0.61887495022E-01  0.14572539487E-01  0.65488755938E-01  0.51100000000E-03 0. -1.
</event>
<event>
 8    1  0.1088021E+005  0.1043930E+01  0.7957747E-01            NaN
         13   -1    0    0    0    0  0.00000000000E+00  0.00000000000E+00  0.74505805969E-08  0.10566000000E+00  0.10566000000E+00 0. -1.
     999900   -1    0    0    0    0 -0.00000000000E+00 -0.00000000000E+00 -0.74505805969E-08  0.93827000000E+00  0.93827000000E+00 0. -1.
     999902    2    1    2    0    0  0.28416761400E-03  0.16231804344E-01  0.17328465703E-01  0.10201849385E+01  0.10199085649E+01 0.  0.
     999903    2    3    3    0    0  0.16867094143E-01 -0.70889202020E-01 -0.10279293008E+00  0.12760765166E+00  0.20187829521E-01 0.  0.
         14    1    1    2    0    0 -0.28416761400E-03 -0.16231804344E-01 -0.17328465703E-01  0.23745061531E-01  0.00000000000E+00 0. -1.
     999901    1    3    3    0    0 -0.16582926529E-01  0.87121006364E-01  0.12012139578E+00  0.89257728681E+00  0.88000000000E+00 0.  1.
        -11    1    4    4    0    0  0.53932528004E-02 -0.56955005599E-01 -0.72693468671E-01  0.92507088090E-01  0.51100000000E-03 0.  1.
         11    1    4    4    0    0  0.11473841342E-01 -0.13934196421E-01 -0.30099461405E-01  0.35100563570E-01  0.51100000000E-03 0. -1.
</event>
<event>
 8    1  0.1088021E+005  0.1043930E+01  0.7957747E-01            NaN
         13   -1    0    0    0    0  0.00000000000E+00  0.00000000000E+00  0.74505805969E-08  0.10566000000E+00  0.10566000000E+00 0.  1.
     999900   -1    0    0    0    0 -0.00000000000E+00 -0.00000000000E+00 -0.74505805969E-08  0.93827000000E+00  0.93827000000E+00 0. -1.
     999902    2    1    2    0    0  0.17131394295E-01 -0.10952305542E-01  0.12378116218E-01  0.10201254746E+01  0.10198476987E+01 0.  0.
     999903    2    3    3    0    0  0.52253725271E-01 -0.10733132193E+00 -0.52164325269E-01  0.13181909748E+00  0.20116986798E-01 0.  0.
         14    1    1    2    0    0 -0.17131394295E-01  0.10952305542E-01 -0.12378116218E-01  0.23804525374E-01  0.00000000000E+00 0. -1.
     999901    1    3    3    0    0 -0.35122330976E-01  0.96379016383E-01  0.64542441486E-01  0.88830637715E+00  0.88000000000E+00 0.  1.
        -11    1    4    4    0    0  0.13699258489E-01 -0.35863321328E-01 -0.26510691525E-01  0.46657533004E-01  0.51100000000E-03 0.  1.
         11    1    4    4    0    0  0.38554466782E-01 -0.71468000597E-01 -0.25653633743E-01  0.85161564473E-01  0.51100000000E-03 0. -1.
</event>
<event>
 8    1  0.1088021E+005  0.1043930E+01  0.7957747E-01            NaN
         13   -1    0    0    0    0  0.00000000000E+00  0.00000000000E+00  0.74505805969E-08  0.10566000000E+00  0.10566000000E+00 0.  1.
     999900   -1    0    0    0    0 -0.00000000000E+00 -0.00000000000E+00 -0.74505805969E-08  0.93827000000E+00  0.93827000000E+00 0.  1.
     999902    2    1    2    0    0 -0.34137557910E-02  0.20474993633E-01  0.96675175562E-02  0.10210315287E+01  0.10207747267E+01 0.  0.
     999903    2    3    3    0    0  0.86332127895E-01 -0.92508143868E-01  0.16977225588E-01  0.12925075695E+00  0.20162812192E-01 0.  0.
         14    1    1    2    0    0  0.34137557910E-02 -0.20474993633E-01 -0.96675175562E-02  0.22898471315E-01  0.00000000000E+00 0. -1.
     999901    1    3    3    0    0 -0.89745883686E-01  0.11298313750E+00 -0.73097080319E-02  0.89178077173E+00  0.88000000000E+00 0. -1.
        -11    1    4    4    0    0  0.47112159289E-01 -0.64271251205E-01  0.79662780561E-02  0.80087901654E-01  0.51100000000E-03 0. -1.
         11    1    4    4    0    0  0.39219968606E-01 -0.28236892663E-01  0.90109475320E-02  0.49162855299E-01  0.51100000000E-03 0.  1.
</event>
<event>
 8    1  0.1088021E+005  0.1043930E+01  0.7957747E-01            NaN
         13   -1    0    0    0    0  0.00000000000E+00  0.00000000000E+00  0.74505805969E-08  0.10566000000E+00  0.10566000000E+00 0.  1.
     999900   -1    0    0    0    0 -0.00000000000E+00 -0.00000000000E+00 -0.74505805969E-08  0.93827000000E+00  0.93827000000E+00 0.  1.
     999902    2    1    2    0    0 -0.21900419640E-01  0.44755886595E-02 -0.81523901098E-02  0.10201367081E+01  0.10198591974E+01 0.  0.
     999903    2    3    3    0    0  0.10005346694E+00 -0.45612414326E-01 -0.63823109279E-01  0.12857583668E+00  0.19161626040E-01 0.  0.
         14    1    1    2    0    0  0.21900419640E-01 -0.44755886595E-02  0.81523901098E-02  0.23793291886E-01  0.00000000000E+00 0.  1.
     999901    1    3    3    0    0 -0.12195388658E+00  0.50088002985E-01  0.55670719169E-01  0.89156087143E+00  0.88000000000E+00 0. -1.
        -11    1    4    4    0    0  0.37641363977E-01 -0.25753514608E-01 -0.20220603230E-01  0.49892381309E-01  0.51100000000E-03 0. -1.
         11    1    4    4    0    0  0.62412102966E-01 -0.19858899718E-01 -0.43602506050E-01  0.78683455373E-01  0.51100000000E-03 0.  1.
</event>
<event>
 8    1  0.1088021E+005  0.1043930E+01  0.7957747E-01            NaN
         13   -1    0    0    0    0  0.00000000000E+00  0.00000000000E+00  0.74505805969E-08  0.10566000000E+00  0.10566000000E+00 0.  1.
     999900   -1    0    0    0    0 -0.00000000000E+00 -0.00000000000E+00 -0.74505805969E-08  0.93827000000E+00  0.93827000000E+00 0. -1.
     999902    2    1    2    0    0  0.50626848392E-02  0.22134457761E-01  0.88905207080E-02  0.10195454484E+01  0.10192538030E+01 0.  0.
     999903    2    3    3    0    0 -0.42275743830E-01 -0.55813818903E-01  0.10681328477E+00  0.12942987816E+00  0.20990346851E-01 0.  0.
         14    1    1    2    0    0 -0.50626848392E-02 -0.22134457761E-01 -0.88905207080E-02  0.24384551597E-01  0.00000000000E+00 0.  1.
     999901    1    3    3    0    0  0.47338428669E-01  0.77948276664E-01 -0.97922764061E-01  0.89011557024E+00  0.88000000000E+00 0. -1.
        -11    1    4    4    0    0 -0.15604382305E-01 -0.36891386659E-01  0.64873856101E-01  0.76245324336E-01  0.51100000000E-03 0. -1.
         11    1    4    4    0    0 -0.26671361525E-01 -0.18922432245E-01  0.41939428668E-01  0.53184553826E-01  0.51100000000E-03 0.  1.
</event>
<event>
 8    1  0.1088021E+005  0.1043930E+01  0.7957747E-01            NaN
         13   -1    0    0    0    0  0.00000000000E+00  0.00000000000E+00  0.74505805969E-08  0.10566000000E+00  0.10566000000E+00 0. -1.
     999900   -1    0    0    0    0 -0.00000000000E+00 -0.00000000000E+00 -0.74505805969E-08  0.93827000000E+00  0.93827000000E+00 0. -1.
     999902    2    1    2    0    0  0.24172326601E-01  0.46639885621E-02  0.36355538964E-02  0.10190448354E+01  0.10187409412E+01 0.  0.
     999903    2    3    3    0    0 -0.63620179632E-01  0.13399639880E-01  0.10892694812E+00  0.12838771093E+00  0.19779956668E-01 0.  0.
         14    1    1    2    0    0 -0.24172326601E-01 -0.46639885621E-02 -0.36355538964E-02  0.24885164551E-01  0.00000000000E+00 0.  1.
     999901    1    3    3    0    0  0.87792506232E-01 -0.87356513180E-02 -0.10529139423E+00  0.89065712452E+00  0.88000000000E+00 0. -1.
        -11    1    4    4    0    0 -0.61435025316E-01  0.80347155039E-02  0.10198804345E+00  0.11933415737E+00  0.51100000000E-03 0.  1.
         11    1    4    4    0    0 -0.21851543161E-02  0.53649243762E-02  0.69389046732E-02  0.90535535571E-02  0.51100000000E-03 0. -1.
</event>
<event>
 8    1  0.1088021E+005  0.1043930E+01  0.7957747E-01            NaN
         13   -1    0    0    0    0  0.00000000000E+00  0.00000000000E+00  0.74505805969E-08  0.10566000000E+00  0.10566000000E+00 0.  1.
     999900   -1    0    0    0    0 -0.00000000000E+00 -0.00000000000E+00 -0.74505805969E-08  0.93827000000E+00  0.93827000000E+00 0. -1.
     999902    2    1    2    0    0  0.46259430905E-02 -0.20821958359E-01 -0.66468831666E-02  0.10215886850E+01  0.10213443626E+01 0.  0.
     999903    2    3    3    0    0 -0.63001937632E-01  0.25369790715E-01 -0.11092015624E+00  0.13165603396E+00  0.20424490035E-01 0.  0.
         14    1    1    2    0    0 -0.46259430905E-02  0.20821958359E-01  0.66468831666E-02  0.22341314984E-01  0.00000000000E+00 0.  1.
     999901    1    3    3    0    0  0.67627880723E-01 -0.46191749074E-01  0.10427327307E+00  0.88993265105E+00  0.88000000000E+00 0.  1.
        -11    1    4    4    0    0 -0.30562462006E-01  0.22801294926E-01 -0.65247883196E-01  0.75574536166E-01  0.51100000000E-03 0. -1.
         11    1    4    4    0    0 -0.32439475626E-01  0.25684957890E-02 -0.45672273040E-01  0.56081497797E-01  0.51100000000E-03 0.  1.
</event>
<event>
 8    1  0.1088021E+005  0.1043930E+01  0.7957747E-01            NaN
         13   -1    0    0    0    0  0.00000000000E+00  0.00000000000E+00  0.74505805969E-08  0.10566000000E+00  0.10566000000E+00 0. -1.
     999900   -1    0    0    0    0 -0.00000000000E+00 -0.00000000000E+00 -0.74505805969E-08  0.93827000000E+00  0.93827000000E+00 0. -1.
     999902    2    1    2    0    0  0.47616009373E-02 -0.13665150370E-01  0.17329519333E-01  0.10213529892E+01  0.10211034262E+01 0.  0.
     999903    2    3    3    0    0  0.69739671432E-01  0.10619914649E+00 -0.19262248997E-01  0.13010187033E+00  0.20336714126E-01 0.  0.
         14    1    1    2    0    0 -0.47616009373E-02  0.13665150370E-01 -0.17329519333E-01  0.22577010839E-01  0.00000000000E+00 0.  1.
     999901    1    3    3    0    0 -0.64978070495E-01 -0.11986429686E+00  0.36591768331E-01  0.89125111883E+00  0.88000000000E+00 0.  1.
        -11    1    4    4    0    0  0.34606715231E-01  0.34876234998E-01 -0.61118815671E-02  0.49513561011E-01  0.51100000000E-03 0.  1.
         11    1    4    4    0    0  0.35132956201E-01  0.71322911488E-01 -0.13150367430E-01  0.80588309320E-01  0.51100000000E-03 0. -1.
</event>
<event>
 8    1  0.1088021E+005  0.1043930E+01  0.7957747E-01            NaN
         13   -1    0    0    0    0  0.00000000000E+00  0.00000000000E+00  0.74505805969E-08  0.10566000000E+00  0.10566000000E+00 0.  1.
     999900   -1    0    0    0    0 -0.00000000000E+00 -0.00000000000E+00 -0.74505805969E-08  0.93827000000E+00  0.93827000000E+00 0. -1.
     999902    2    1    2    0    0 -0.10286012693E-01  0.12762781437E-01 -0.15271454045E-01  0.10215266977E+01  0.10212810025E+01 0.  0.
     999903    2    3    3    0    0  0.69535188951E-01 -0.83572685098E-01 -0.70133534139E-01  0.13098652778E+00  0.20474902955E-01 0.  0.
         14    1    1    2    0    0  0.10286012693E-01 -0.12762781437E-01  0.15271454045E-01  0.22403302341E-01  0.00000000000E+00 0.  1.
     999901    1    3    3    0    0 -0.79821201644E-01  0.96335466534E-01  0.54862080095E-01  0.89054016988E+00  0.88000000000E+00 0.  1.
        -11    1    4    4    0    0  0.23028337722E-01 -0.16296877433E-01 -0.24265832410E-01  0.37215377142E-01  0.51100000000E-03 0.  1.
         11    1    4    4    0    0  0.46506851229E-01 -0.67275807665E-01 -0.45867701730E-01  0.93771150634E-01  0.51100000000E-03 0. -1.
</event>
<event>
 8    1  0.1088021E+005  0.1043930E+01  0.7957747E-01            NaN
         13   -1    0    0    0    0  0.00000000000E+00  0.00000000000E+00  0.74505805969E-08  0.10566000000E+00  0.10566000000E+00 0.  1.
     999900   -1    0    0    0    0 -0.00000000000E+00 -0.00000000000E+00 -0.74505805969E-08  0.93827000000E+00  0.93827000000E+00 0.  1.
     999902    2    1    2    0    0  0.12752402401E-01 -0.80863928389E-02 -0.18839671315E-01  0.10197857102E+01  0.10194998519E+01 0.  0.
     999903    2    3    3    0    0  0.47345053693E-01 -0.11702692249E+00  0.29082121257E-01  0.13110062043E+00  0.20118354916E-01 0.  0.
         14    1    1    2    0    0 -0.12752402401E-01  0.80863928389E-02  0.18839671315E-01  0.24144289830E-01  0.00000000000E+00 0.  1.
     999901    1    3    3    0    0 -0.34592651292E-01  0.10894052965E+00 -0.47921792573E-01  0.88868508974E+00  0.88000000000E+00 0.  1.
        -11    1    4    4    0    0  0.19972501056E-01 -0.37777406115E-01  0.18583148215E-01  0.46600726708E-01  0.51100000000E-03 0.  1.
         11    1    4    4    0    0  0.27372552637E-01 -0.79249516371E-01  0.10498973042E-01  0.84499893721E-01  0.51100000000E-03 0. -1.
</event>
<event>
 8    1  0.1088021E+005  0.1043930E+01  0.7957747E-01            NaN
         13   -1    0    0    0    0  0.00000000000E+00  0.00000000000E+00  0.74505805969E-08  0.10566000000E+00  0.10566000000E+00 0.  1.
     999900   -1    0    0    0    0 -0.00000000000E+00 -0.00000000000E+00 -0.74505805969E-08  0.93827000000E+00  0.93827000000E+00 0. -1.
     999902    2    1    2    0    0 -0.14548940373E-01  0.11203145545E-01 -0.18311069555E-01  0.10179978307E+01  0.10176674830E+01 0.  0.
     999903    2    3    3    0    0 -0.48196671559E-01 -0.13658955248E-01 -0.12004248537E+00  0.13114971810E+00  0.16750046459E-01 0.  0.
         14    1    1    2    0    0  0.14548940373E-01 -0.11203145545E-01  0.18311069555E-01  0.25932169295E-01  0.00000000000E+00 0.  1.
     999901    1    3    3    0    0  0.33647731186E-01  0.24862100793E-01  0.10173141581E+00  0.88684811261E+00  0.88000000000E+00 0.  1.
        -11    1    4    4    0    0 -0.16526425140E-01  0.81906245531E-03 -0.54092717015E-01  0.56569220839E-01  0.51100000000E-03 0.  1.
         11    1    4    4    0    0 -0.31670246420E-01 -0.14478017703E-01 -0.65949768352E-01  0.74580497260E-01  0.51100000000E-03 0. -1.
</event>
<event>
 8    1  0.1088021E+005  0.1043930E+01  0.7957747E-01            NaN
         13   -1    0    0    0    0  0.00000000000E+00  0.00000000000E+00  0.74505805969E-08  0.10566000000E+00  0.10566000000E+00 0. -1.
     999900   -1    0    0    0    0 -0.00000000000E+00 -0.00000000000E+00 -0.74505805969E-08  0.93827000000E+00  0.93827000000E+00 0. -1.
     999902    2    1    2    0    0 -0.17826915873E-01  0.16884392960E-01 -0.20386470905E-02  0.10192918642E+01  0.10189940464E+01 0.  0.
     999903    2    3    3    0    0  0.68998107329E-01  0.43130925770E-01 -0.98597965356E-01  0.12937548210E+00  0.19885698959E-01 0.  0.
         14    1    1    2    0    0  0.17826915873E-01 -0.16884392960E-01  0.20386470905E-02  0.24638135829E-01  0.00000000000E+00 0. -1.
     999901    1    3    3    0    0 -0.86825023201E-01 -0.26246532810E-01  0.96559318265E-01  0.88991638207E+00  0.88000000000E+00 0.  1.
        -11    1    4    4    0    0  0.49278163329E-01  0.40605801414E-01 -0.73906562361E-01  0.97670924898E-01  0.51100000000E-03 0. -1.
         11    1    4    4    0    0  0.19719944000E-01  0.25251243563E-02 -0.24691402995E-01  0.31704557200E-01  0.51100000000E-03 0.  1.
</event>
<event>
 8    1  0.1088021E+005  0.1043930E+01  0.7957747E-01            NaN
         13   -1    0    0    0    0  0.00000000000E+00  0.00000000000E+00  0.74505805969E-08  0.10566000000E+00  0.10566000000E+00 0. -1.
     999900   -1    0    0    0    0 -0.00000000000E+00 -0.00000000000E+00 -0.74505805969E-08  0.93827000000E+00  0.93827000000E+00 0. -1.
     999902    2    1    2    0    0  0.49117663373E-02  0.62237108863E-02 -0.22858549793E-01  0.10197355105E+01  0.10194484479E+01 0.  0.
     999903    2    3    3    0    0  0.59511170531E-01  0.90114781116E-01 -0.74181826194E-01  0.13257549935E+00  0.20274774884E-01 0.  0.
         14    1    1    2    0    0 -0.49117663373E-02 -0.62237108863E-02  0.22858549793E-01  0.24194489546E-01  0.00000000000E+00 0. -1.
     999901    1    3    3    0    0 -0.54599404194E-01 -0.83891070230E-01  0.51323276400E-01  0.88716001110E+00  0.88000000000E+00 0.  1.
        -11    1    4    4    0    0  0.28611020852E-01  0.58436815725E-01 -0.50619345809E-01  0.82438044842E-01  0.51100000000E-03 0. -1.
         11    1    4    4    0    0  0.30900149680E-01  0.31677965391E-01 -0.23562480385E-01  0.50137454507E-01  0.51100000000E-03 0.  1.
</event>
<event>
 8    1  0.1088021E+005  0.1043930E+01  0.7957747E-01            NaN
         13   -1    0    0    0    0  0.00000000000E+00  0.00000000000E+00  0.74505805969E-08  0.10566000000E+00  0.10566000000E+00 0. -1.
     999900   -1    0    0    0    0 -0.00000000000E+00 -0.00000000000E+00 -0.74505805969E-08  0.93827000000E+00  0.93827000000E+00 0. -1.
     999902    2    1    2    0    0  0.17406239623E-01  0.72005994520E-02 -0.10514810739E-01  0.10223571686E+01  0.10221295383E+01 0.  0.
     999903    2    3    3    0    0  0.50360695208E-01  0.60499498098E-01  0.10467025795E+00  0.13264127641E+00  0.21010864264E-01 0.  0.
         14    1    1    2    0    0 -0.17406239623E-01 -0.72005994520E-02  0.10514810739E-01  0.21572831413E-01  0.00000000000E+00 0. -1.
     999901    1    3    3    0    0 -0.32954455585E-01 -0.53298898646E-01 -0.11518506869E+00  0.88971589217E+00  0.88000000000E+00 0. -1.
        -11    1    4    4    0    0  0.40357324335E-01  0.47230594098E-01  0.66487190651E-01  0.90995880610E-01  0.51100000000E-03 0. -1.
         11    1    4    4    0    0  0.10003370873E-01  0.13268903999E-01  0.38183067299E-01  0.41645395802E-01  0.51100000000E-03 0.  1.
</event>
<event>
 8    1  0.1088021E+005  0.1043930E+01  0.7957747E-01            NaN
         13   -1    0    0    0    0  0.00000000000E+00  0.00000000000E+00  0.74505805969E-08  0.10566000000E+00  0.10566000000E+00 0. -1.
     999900   -1    0    0    0    0 -0.00000000000E+00 -0.00000000000E+00 -0.74505805969E-08  0.93827000000E+00  0.93827000000E+00 0. -1.
     999902    2    1    2    0    0 -0.15918065035E-01  0.29841912331E-02  0.15097322765E-01  0.10217891024E+01  0.10215491914E+01 0.  0.
     999903    2    3    3    0    0  0.28812414756E-01  0.94299907965E-01 -0.83072688697E-01  0.13051096002E+00  0.20233911901E-01 0.  0.
         14    1    1    2    0    0  0.15918065035E-01 -0.29841912331E-02 -0.15097322765E-01  0.22140897598E-01  0.00000000000E+00 0.  1.
     999901    1    3    3    0    0 -0.44730479791E-01 -0.91315716732E-01  0.98170011462E-01  0.89127814239E+00  0.88000000000E+00 0.  1.
        -11    1    4    4    0    0  0.10737932079E-01  0.10863395552E-01 -0.12868783814E-01  0.19979571219E-01  0.51100000000E-03 0.  1.
         11    1    4    4    0    0  0.18074482677E-01  0.83436512413E-01 -0.70203904883E-01  0.11053138880E+00  0.51100000000E-03 0. -1.
</event>
<event>
 8    1  0.1088021E+005  0.1043930E+01  0.7957747E-01            NaN
         13   -1    0    0    0    0  0.00000000000E+00  0.00000000000E+00  0.74505805969E-08  0.10566000000E+00  0.10566000000E+00 0. -1.
     999900   -1    0    0    0    0 -0.00000000000E+00 -0.00000000000E+00 -0.74505805969E-08  0.93827000000E+00  0.93827000000E+00 0.  1.
     999902    2    1    2    0    0  0.22274092936E-01 -0.48729957008E-02  0.45194324833E-02  0.10206855045E+01  0.10204207918E+01 0.  0.
     999903    2    3    3    0    0 -0.68229214731E-01  0.68255319635E-01  0.83735321103E-01  0.12949879214E+00  0.21078870058E-01 0.  0.
         14    1    1    2    0    0 -0.22274092936E-01  0.48729957008E-02 -0.45194324833E-02  0.23244495546E-01  0.00000000000E+00 0. -1.
     999901    1    3    3    0    0  0.90503307668E-01 -0.73128315336E-01 -0.79215888620E-01  0.89118671232E+00  0.88000000000E+00 0.  1.
        -11    1    4    4    0    0 -0.16254514873E-01  0.20093046836E-01  0.11442493415E-01  0.28268915109E-01  0.51100000000E-03 0. -1.
         11    1    4    4    0    0 -0.51974699858E-01  0.48162272799E-01  0.72292827688E-01  0.10122987703E+00  0.51100000000E-03 0.  1.
</event>
<event>
 8    1  0.1088021E+005  0.1043930E+01  0.7957747E-01            NaN
         13   -1    0    0    0    0  0.00000000000E+00  0.00000000000E+00  0.74505805969E-08  0.10566000000E+00  0.10566000000E+00 0.  1.
     999900   -1    0    0    0    0 -0.00000000000E+00 -0.00000000000E+00 -0.74505805969E-08  0.93827000000E+00  0.93827000000E+00 0.  1.
     999902    2    1    2    0    0 -0.23478436534E-01 -0.28274375508E-02 -0.88029349465E-03  0.10202655477E+01  0.10199910694E+01 0.  0.
     999903    2    3    3    0    0  0.59572335136E-01  0.46752236087E-01  0.10218585438E+00  0.12898657593E+00  0.21469821652E-01 0.  0.
         14    1    1    2    0    0  0.23478436534E-01  0.28274375508E-02  0.88029349465E-03  0.23664452283E-01  0.00000000000E+00 0. -1.
     999901    1    3    3    0    0 -0.83050771671E-01 -0.49579673638E-01 -0.10306614788E+00  0.89127897179E+00  0.88000000000E+00 0.  1.
        -11    1    4    4    0    0  0.25483383733E-01  0.29155322082E-01  0.64338289374E-01  0.75094022750E-01  0.51100000000E-03 0. -1.
         11    1    4    4    0    0  0.34088951404E-01  0.17596914005E-01  0.37847565007E-01  0.53892553180E-01  0.51100000000E-03 0.  1.
</event>
<event>
 8    1  0.1088021E+005  0.1043930E+01  0.7957747E-01            NaN
         13   -1    0    0    0    0  0.00000000000E+00  0.00000000000E+00  0.74505805969E-08  0.10566000000E+00  0.10566000000E+00 0. -1.
     999900   -1    0    0    0    0 -0.00000000000E+00 -0.00000000000E+00 -0.74505805969E-08  0.93827000000E+00  0.93827000000E+00 0. -1.
     999902    2    1    2    0    0  0.22211803727E-01  0.56474786813E-02  0.35550312191E-02  0.10207374045E+01  0.10204738862E+01 0.  0.
     999903    2    3    3    0    0  0.92886980124E-01 -0.21176378330E-01  0.90685695866E-01  0.13320923445E+00  0.21080195266E-01 0.  0.
         14    1    1    2    0    0 -0.22211803727E-01 -0.56474786813E-02 -0.35550312191E-02  0.23192595526E-01  0.00000000000E+00 0.  1.
     999901    1    3    3    0    0 -0.70675176397E-01  0.26823857012E-01 -0.87130664647E-01  0.88752817002E+00  0.88000000000E+00 0. -1.
        -11    1    4    4    0    0  0.59313248992E-01 -0.19350894461E-01  0.47178757691E-01  0.78221575800E-01  0.51100000000E-03 0.  1.
         11    1    4    4    0    0  0.33573731132E-01 -0.18254838698E-02  0.43506938175E-01  0.54987658650E-01  0.51100000000E-03 0. -1.
</event>
<event>
 8    1  0.1088021E+005  0.1043930E+01  0.7957747E-01            NaN
         13   -1    0    0    0    0  0.00000000000E+00  0.00000000000E+00  0.74505805969E-08  0.10566000000E+00  0.10566000000E+00 0.  1.
     999900   -1    0    0    0    0 -0.00000000000E+00 -0.00000000000E+00 -0.74505805969E-08  0.93827000000E+00  0.93827000000E+00 0.  1.
     999902    2    1    2    0    0 -0.22742014722E-01  0.70631509681E-02  0.25334242723E-03  0.10201150568E+01  0.10198370349E+01 0.  0.
     999903    2    3    3    0    0  0.10482775148E+00  0.20564872993E-01  0.67344669714E-01  0.12828682902E+00  0.22592797049E-01 0.  0.
         14    1    1    2    0    0  0.22742014722E-01 -0.70631509681E-02 -0.25334242723E-03  0.23814943157E-01  0.00000000000E+00 0. -1.
     999901    1    3    3    0    0 -0.12756976620E+00 -0.13501722025E-01 -0.67091327287E-01  0.89182822782E+00  0.88000000000E+00 0. -1.
        -11    1    4    4    0    0  0.64772845336E-01  0.12351814215E-01  0.28333236535E-01  0.71771318929E-01  0.51100000000E-03 0. -1.
         11    1    4    4    0    0  0.40054906147E-01  0.82130587784E-02  0.39011433179E-01  0.56515510089E-01  0.51100000000E-03 0.  1.
</event>
<event>
 8    1  0.1088021E+005  0.1043930E+01  0.7957747E-01            NaN
         13   -1    0    0    0    0  0.00000000000E+00  0.00000000000E+00  0.74505805969E-08  0.10566000000E+00  0.10566000000E+00 0.  1.
     999900   -1    0    0    0    0 -0.00000000000E+00 -0.00000000000E+00 -0.74505805969E-08  0.93827000000E+00  0.93827000000E+00 0.  1.
     999902    2    1    2    0    0  0.16568638142E-01 -0.55250903072E-02 -0.14950090490E-01  0.10209397499E+01  0.10206808617E+01 0.  0.
     999903    2    3    3    0    0 -0.71276560130E-01 -0.10594050114E+00 -0.24821378704E-01  0.13082881531E+00  0.14012147231E-01 0.  0.
         14    1    1    2    0    0 -0.16568638142E-01  0.55250903072E-02  0.14950090490E-01  0.22990250074E-01  0.00000000000E+00 0.  1.
     999901    1    3    3    0    0  0.87845198272E-01  0.10041541083E+00  0.98712882146E-02  0.89011093462E+00  0.88000000000E+00 0. -1.
        -11    1    4    4    0    0 -0.50109168973E-01 -0.64095425206E-01 -0.19213682832E-01  0.83597721719E-01  0.51100000000E-03 0. -1.
         11    1    4    4    0    0 -0.21167391156E-01 -0.41845075929E-01 -0.56076958720E-02  0.47231093592E-01  0.51100000000E-03 0.  1.
</event>
<event>
 8    1  0.1088021E+005  0.1043930E+01  0.7957747E-01            NaN
         13   -1    0    0    0    0  0.00000000000E+00  0.00000000000E+00  0.74505805969E-08  0.10566000000E+00  0.10566000000E+00 0.  1.
     999900   -1    0    0    0    0 -0.00000000000E+00 -0.00000000000E+00 -0.74505805969E-08  0.93827000000E+00  0.93827000000E+00 0. -1.
     999902    2    1    2    0    0  0.11072239342E-01 -0.17996410890E-01 -0.10959734809E-01  0.10201270364E+01  0.10198492974E+01 0.  0.
     999903    2    3    3    0    0 -0.97094668751E-02  0.90888741208E-01 -0.89860443198E-01  0.12967031233E+00  0.19607488944E-01 0.  0.
         14    1    1    2    0    0 -0.11072239342E-01  0.17996410890E-01  0.10959734809E-01  0.23802963598E-01  0.00000000000E+00 0. -1.
     999901    1    3    3    0    0  0.20781706217E-01 -0.10888515210E+00  0.78900708389E-01  0.89045672407E+00  0.88000000000E+00 0.  1.
        -11    1    4    4    0    0 -0.17931590925E-02  0.32689983089E-01 -0.19875410361E-01  0.38303308890E-01  0.51100000000E-03 0. -1.
         11    1    4    4    0    0 -0.79163077826E-02  0.58198758119E-01 -0.69985032836E-01  0.91367003440E-01  0.51100000000E-03 0.  1.
</event>
<event>
 8    1  0.1088021E+005  0.1043930E+01  0.7957747E-01            NaN
         13   -1    0    0    0    0  0.00000000000E+00  0.00000000000E+00  0.74505805969E-08  0.10566000000E+00  0.10566000000E+00 0.  1.
     999900   -1    0    0    0    0 -0.00000000000E+00 -0.00000000000E+00 -0.74505805969E-08  0.93827000000E+00  0.93827000000E+00 0. -1.
     999902    2    1    2    0    0  0.20046964664E-01 -0.75225360415E-02  0.15455780495E-01  0.10175226054E+01  0.10171798769E+01 0.  0.
     999903    2    3    3    0    0 -0.52421350580E-02 -0.10979414832E+00  0.66009360741E-01  0.12979816292E+00  0.20201297110E-01 0.  0.
         14    1    1    2    0    0 -0.20046964664E-01  0.75225360415E-02 -0.15455780495E-01  0.26407394636E-01  0.00000000000E+00 0. -1.
     999901    1    3    3    0    0  0.25289099722E-01  0.10227161228E+00 -0.50553580246E-01  0.88772444245E+00  0.88000000000E+00 0. -1.
        -11    1    4    4    0    0 -0.12409991105E-01 -0.86276529834E-01  0.51886866341E-01  0.10144040368E+00  0.51100000000E-03 0. -1.
         11    1    4    4    0    0  0.71678560468E-02 -0.23517618490E-01  0.14122494399E-01  0.28357759235E-01  0.51100000000E-03 0.  1.
</event>
<event>
 8    1  0.1088021E+005  0.1043930E+01  0.7957747E-01            NaN
         13   -1    0    0    0    0  0.00000000000E+00  0.00000000000E+00  0.74505805969E-08  0.10566000000E+00  0.10566000000E+00 0. -1.
     999900   -1    0    0    0    0 -0.00000000000E+00 -0.00000000000E+00 -0.74505805969E-08  0.93827000000E+00  0.93827000000E+00 0.  1.
     999902    2    1    2    0    0 -0.15874427660E-02 -0.16036708258E-01 -0.18113191240E-01  0.10196857495E+01  0.10193974907E+01 0.  0.
     999903    2    3    3    0    0  0.94833582318E-01 -0.50339158357E-01 -0.74191657743E-01  0.13198170727E+00  0.19680695483E-01 0.  0.
         14    1    1    2    0    0  0.15874427660E-02  0.16036708258E-01  0.18113191240E-01  0.24244250518E-01  0.00000000000E+00 0.  1.
     999901    1    3    3    0    0 -0.96421025084E-01  0.34302450099E-01  0.56078466503E-01  0.88770404222E+00  0.88000000000E+00 0. -1.
        -11    1    4    4    0    0  0.56813394777E-01 -0.23706278463E-01 -0.32648621383E-01  0.69684597035E-01  0.51100000000E-03 0.  1.
         11    1    4    4    0    0  0.38020187541E-01 -0.26632879894E-01 -0.41543036360E-01  0.62297110231E-01  0.51100000000E-03 0. -1.
</event>
<event>
 8    1  0.1088021E+005  0.1043930E+01  0.7957747E-01            NaN
         13   -1    0    0    0    0  0.00000000000E+00  0.00000000000E+00  0.74505805969E-08  0.10566000000E+00  0.10566000000E+00 0. -1.
     999900   -1    0    0    0    0 -0.00000000000E+00 -0.00000000000E+00 -0.74505805969E-08  0.93827000000E+00  0.93827000000E+00 0.  1.
     999902    2    1    2    0    0 -0.33190232805E-02 -0.28301494395E-01 -0.64615496530E-02  0.10147111341E+01  0.10142903645E+01 0.  0.
     999903    2    3    3    0    0 -0.10033551561E+00 -0.55306146194E-01  0.51065461864E-01  0.12710153070E+00  0.20521506037E-01 0.  0.
         14    1    1    2    0    0  0.33190232805E-02  0.28301494395E-01  0.64615496530E-02  0.29218865899E-01  0.00000000000E+00 0. -1.
     999901    1    3    3    0    0  0.97016492330E-01  0.27004651800E-01 -0.57527011517E-01  0.88760960341E+00  0.88000000000E+00 0.  1.
        -11    1    4    4    0    0 -0.24945818282E-01 -0.17623476789E-01  0.23102223348E-01  0.38299538228E-01  0.51100000000E-03 0. -1.
         11    1    4    4    0    0 -0.75389697329E-01 -0.37682669405E-01  0.27963238517E-01  0.88801992467E-01  0.51100000000E-03 0.  1.
</event>
<event>
 8    1  0.1088021E+005  0.1043930E+01  0.7957747E-01            NaN
         13   -1    0    0    0    0  0.00000000000E+00  0.00000000000E+00  0.74505805969E-08  0.10566000000E+00  0.10566000000E+00 0. -1.
     999900   -1    0    0    0    0 -0.00000000000E+00 -0.00000000000E+00 -0.74505805969E-08  0.93827000000E+00  0.93827000000E+00 0.  1.
     999902    2    1    2    0    0  0.17687758643E-01  0.10803881054E-01  0.13844453652E-01  0.10190051219E+01  0.10187002449E+01 0.  0.
     999903    2    3    3    0    0 -0.27409906356E-01  0.38770090647E-01 -0.11673187477E+00  0.12778905056E+00  0.21196413838E-01 0.  0.
         14    1    1    2    0    0 -0.17687758643E-01 -0.10803881054E-01 -0.13844453652E-01  0.24924878105E-01  0.00000000000E+00 0. -1.
     999901    1    3    3    0    0  0.45097664998E-01 -0.27966209593E-01  0.13057632842E+00  0.89121607134E+00  0.88000000000E+00 0. -1.
        -11    1    4    4    0    0 -0.27075458077E-01  0.35977659580E-01 -0.87400959423E-01  0.98319180468E-01  0.51100000000E-03 0.  1.
         11    1    4    4    0    0 -0.33444827945E-03  0.27924310671E-02 -0.29330915348E-01  0.29469870089E-01  0.51100000000E-03 0. -1.
</event>
<event>
 8    1  0.1088021E+005  0.1043930E+01  0.7957747E-01            NaN
         13   -1    0    0    0    0  0.00000000000E+00  0.00000000000E+00  0.74505805969E-08  0.10566000000E+00  0.10566000000E+00 0.  1.
     999900   -1    0    0    0    0 -0.00000000000E+00 -0.00000000000E+00 -0.74505805969E-08  0.93827000000E+00  0.93827000000E+00 0.  1.
     999902    2    1    2    0    0  0.91052461646E-02  0.20678199586E-01  0.61375106780E-02  0.10205171300E+01  0.10202485237E+01 0.  0.
     999903    2    3    3    0    0 -0.23127794161E-01  0.55897220676E-01  0.11639261259E+00  0.13235299208E+00  0.17626119959E-01 0.  0.
         14    1    1    2    0    0 -0.91052461646E-02 -0.20678199586E-01 -0.61375106780E-02  0.23412870033E-01  0.00000000000E+00 0.  1.
     999901    1    3    3    0    0  0.32233040326E-01 -0.35219021090E-01 -0.11025510191E+00  0.88816413789E+00  0.88000000000E+00 0.  1.
        -11    1    4    4    0    0 -0.20037898361E-01  0.25457452206E-01  0.58908247121E-01  0.67231257190E-01  0.51100000000E-03 0. -1.
         11    1    4    4    0    0 -0.30898957999E-02  0.30439768471E-01  0.57484365467E-01  0.65121734888E-01  0.51100000000E-03 0.  1.
</event>
<event>
 8    1  0.1088021E+005  0.1043930E+01  0.7957747E-01            NaN
         13   -1    0    0    0    0  0.00000000000E+00  0.00000000000E+00  0.74505805969E-08  0.10566000000E+00  0.10566000000E+00 0. -1.
     999900   -1    0    0    0    0 -0.00000000000E+00 -0.00000000000E+00 -0.74505805969E-08  0.93827000000E+00  0.93827000000E+00 0.  1.
     999902    2    1    2    0    0  0.30528454163E-01  0.46831104064E-02 -0.75743554843E-02  0.10121292312E+01  0.10116295230E+01 0.  0.
     999903    2    3    3    0    0 -0.58754501729E-01  0.93292563518E-01  0.45286016828E-01  0.12161404301E+00  0.24156950478E-01 0.  0.
         14    1    1    2    0    0 -0.30528454163E-01 -0.46831104064E-02  0.75743554843E-02  0.31800768822E-01  0.00000000000E+00 0.  1.
     999901    1    3    3    0    0  0.89282955892E-01 -0.88609453111E-01 -0.52860372313E-01  0.89051518817E+00  0.88000000000E+00 0.  1.
        -11    1    4    4    0    0 -0.17832256521E-01  0.15395537336E-01  0.17452812191E-01  0.29323603409E-01  0.51100000000E-03 0. -1.
         11    1    4    4    0    0 -0.40922245207E-01  0.77897026181E-01  0.27833204638E-01  0.92290439603E-01  0.51100000000E-03 0.  1.
</event>
<event>
 8    1  0.1088021E+005  0.1043930E+01  0.7957747E-01            NaN
         13   -1    0    0    0    0  0.00000000000E+00  0.00000000000E+00  0.74505805969E-08  0.10566000000E+00  0.10566000000E+00 0.  1.
     999900   -1    0    0    0    0 -0.00000000000E+00 -0.00000000000E+00 -0.74505805969E-08  0.93827000000E+00  0.93827000000E+00 0.  1.
     999902    2    1    2    0    0  0.11203823677E-01  0.10297035652E-01 -0.18526436889E-01  0.10199553577E+01  0.10196735499E+01 0.  0.
     999903    2    3    3    0    0 -0.10716385129E+00  0.26430248199E-01  0.62050190329E-01  0.12823579426E+00  0.20286541474E-01 0.  0.
         14    1    1    2    0    0 -0.11203823677E-01 -0.10297035652E-01  0.18526436889E-01  0.23974642271E-01  0.00000000000E+00 0. -1.
     999901    1    3    3    0    0  0.11836767497E+00 -0.16133212547E-01 -0.80576627218E-01  0.89171956347E+00  0.88000000000E+00 0. -1.
        -11    1    4    4    0    0 -0.42846320935E-01  0.13297561851E-01  0.36331446608E-01  0.57730992564E-01  0.51100000000E-03 0.  1.
         11    1    4    4    0    0 -0.64317530359E-01  0.13132686348E-01  0.25718743721E-01  0.70504801693E-01  0.51100000000E-03 0. -1.
</event>
<event>
 8    1  0.1088021E+005  0.1043930E+01  0.7957747E-01            NaN
         13   -1    0    0    0    0  0.00000000000E+00  0.00000000000E+00  0.74505805969E-08  0.10566000000E+00  0.10566000000E+00 0.  1.
     999900   -1    0    0    0    0 -0.00000000000E+00 -0.00000000000E+00 -0.74505805969E-08  0.93827000000E+00  0.93827000000E+00 0.  1.
     999902    2    1    2    0    0  0.15064178602E-01  0.92278556624E-02  0.16046065370E-01  0.10200645645E+01  0.10197853484E+01 0.  0.
     999903    2    3    3    0    0  0.26989957974E-01  0.98528604864E-01 -0.78650289679E-01  0.13041056004E+00  0.19613829177E-01 0.  0.
         14    1    1    2    0    0 -0.15064178602E-01 -0.92278556624E-02 -0.16046065370E-01  0.23865435486E-01  0.00000000000E+00 0. -1.
     999901    1    3    3    0    0 -0.11925779372E-01 -0.89300749202E-01  0.94696355048E-01  0.88965400448E+00  0.88000000000E+00 0. -1.
        -11    1    4    4    0    0  0.15337050539E-01  0.83914793261E-01 -0.65480097931E-01  0.10753986235E+00  0.51100000000E-03 0.  1.
         11    1    4    4    0    0  0.11652907435E-01  0.14613811603E-01 -0.13170191748E-01  0.22870697692E-01  0.51100000000E-03 0. -1.
</event>
<event>
 8    1  0.1088021E+005  0.1043930E+01  0.7957747E-01            NaN
         13   -1    0    0    0    0  0.00000000000E+00  0.00000000000E+00  0.74505805969E-08  0.10566000000E+00  0.10566000000E+00 0. -1.
     999900   -1    0    0    0    0 -0.00000000000E+00 -0.00000000000E+00 -0.74505805969E-08  0.93827000000E+00  0.93827000000E+00 0. -1.
     999902    2    1    2    0    0  0.17248846472E-01 -0.87258453300E-02  0.27545972856E-02  0.10244043531E+01  0.10242182520E+01 0.  0.
     999903    2    3    3    0    0  0.12333030298E+00 -0.53815796077E-01  0.15356472242E-01  0.13679791646E+00  0.19270318344E-01 0.  0.
         14    1    1    2    0    0 -0.17248846472E-01  0.87258453300E-02 -0.27545972856E-02  0.19525646917E-01  0.00000000000E+00 0.  1.
     999901    1    3    3    0    0 -0.10608145651E+00  0.45089950747E-01 -0.12601874957E-01  0.88760643662E+00  0.88000000000E+00 0.  1.
        -11    1    4    4    0    0  0.52327280471E-01 -0.19730217849E-01  0.15505384987E-01  0.58035367341E-01  0.51100000000E-03 0. -1.
         11    1    4    4    0    0  0.71003022509E-01 -0.34085578228E-01 -0.14891274460E-03  0.78762549124E-01  0.51100000000E-03 0.  1.
</event>
<event>
 8    1  0.1088021E+005  0.1043930E+01  0.7957747E-01            NaN
         13   -1    0    0    0    0  0.00000000000E+00  0.00000000000E+00  0.74505805969E-08  0.10566000000E+00  0.10566000000E+00 0.  1.
     999900   -1    0    0    0    0 -0.00000000000E+00 -0.00000000000E+00 -0.74505805969E-08  0.93827000000E+00  0.93827000000E+00 0. -1.
     999902    2    1    2    0    0  0.58550244637E-02 -0.18240059000E-01 -0.99914756851E-02  0.10223241987E+01  0.10220958647E+01 0.  0.
     999903    2    3    3    0    0 -0.12390276883E+00  0.37454511790E-01 -0.66920123674E-02  0.13106113057E+00  0.19429368001E-01 0.  0.
         14    1    1    2    0    0 -0.58550244637E-02  0.18240059000E-01  0.99914756851E-02  0.21605801308E-01  0.00000000000E+00 0.  1.
     999901    1    3    3    0    0  0.12975779329E+00 -0.55694570790E-01 -0.32994633177E-02  0.89126306812E+00  0.88000000000E+00 0. -1.
        -11    1    4    4    0    0 -0.90422696038E-01  0.36059593681E-01 -0.37900632339E-02  0.97422707597E-01  0.51100000000E-03 0.  1.
         11    1    4    4    0    0 -0.33480072790E-01  0.13949181091E-02 -0.29019491335E-02  0.33638422976E-01  0.51100000000E-03 0. -1.
</event>
<event>
 8    1  0.1088021E+005  0.1043930E+01  0.7957747E-01            NaN
         13   -1    0    0    0    0  0.00000000000E+00  0.00000000000E+00  0.74505805969E-08  0.10566000000E+00  0.10566000000E+00 0. -1.
     999900   -1    0    0    0    0 -0.00000000000E+00 -0.00000000000E+00 -0.74505805969E-08  0.93827000000E+00  0.93827000000E+00 0.  1.
     999902    2    1    2    0    0 -0.14316343366E-01  0.13701990143E-02 -0.18505400331E-01  0.10204931706E+01  0.10202240078E+01 0.  0.
     999903    2    3    3    0    0  0.73106799773E-01 -0.25546450336E-01 -0.10428899680E+00  0.13160277384E+00  0.21115632334E-01 0.  0.
         14    1    1    2    0    0  0.14316343366E-01 -0.13701990143E-02  0.18505400331E-01  0.23436829438E-01  0.00000000000E+00 0. -1.
     999901    1    3    3    0    0 -0.87423143139E-01  0.26916649350E-01  0.85783596473E-01  0.88889039673E+00  0.88000000000E+00 0. -1.
        -11    1    4    4    0    0  0.27673763893E-01  0.80458121045E-03 -0.33718227098E-01  0.43631004098E-01  0.51100000000E-03 0. -1.
         11    1    4    4    0    0  0.45433035880E-01 -0.26351031546E-01 -0.70570769706E-01  0.87971769737E-01  0.51100000000E-03 0.  1.
</event>
<event>
 8    1  0.1088021E+005  0.1043930E+01  0.7957747E-01            NaN
         13   -1    0    0    0    0  0.00000000000E+00  0.00000000000E+00  0.74505805969E-08  0.10566000000E+00  0.10566000000E+00 0. -1.
     999900   -1    0    0    0    0 -0.00000000000E+00 -0.00000000000E+00 -0.74505805969E-08  0.93827000000E+00  0.93827000000E+00 0.  1.
     999902    2    1    2    0    0  0.58149563670E-02  0.17036026714E-01 -0.14107265763E-01  0.10210596071E+01  0.10208034416E+01 0.  0.
     999903    2    3    3    0    0  0.37350572876E-01 -0.38435377818E-01 -0.11938962652E+00  0.13248999964E+00  0.20673014301E-01 0.  0.
         14    1    1    2    0    0 -0.58149563670E-02 -0.17036026714E-01  0.14107265763E-01  0.22870392893E-01  0.00000000000E+00 0. -1.
     999901    1    3    3    0    0 -0.31535616509E-01  0.55471404532E-01  0.10528236076E+00  0.88856960747E+00  0.88000000000E+00 0. -1.
        -11    1    4    4    0    0 -0.14940885019E-02  0.11696265491E-02 -0.42175073124E-02  0.46528287789E-02  0.51100000000E-03 0.  1.
         11    1    4    4    0    0  0.38844661378E-01 -0.39605004367E-01 -0.11517211921E+00  0.12783717086E+00  0.51100000000E-03 0. -1.
</event>
<event>
 8    1  0.1088021E+005  0.1043930E+01  0.7957747E-01            NaN
         13   -1    0    0    0    0  0.00000000000E+00  0.00000000000E+00  0.74505805969E-08  0.10566000000E+00  0.10566000000E+00 0.  1.
     999900   -1    0    0    0    0 -0.00000000000E+00 -0.00000000000E+00 -0.74505805969E-08  0.93827000000E+00  0.93827000000E+00 0. -1.
     999902    2    1    2    0    0  0.10516607287E-01  0.17665823341E-01 -0.33414198897E-02  0.10231010435E+01  0.10228889968E+01 0.  0.
     999903    2    3    3    0    0  0.11081674143E+00 -0.54306040844E-01 -0.46425924480E-01  0.13344024256E+00  0.20528897109E-01 0.  0.
         14    1    1    2    0    0 -0.10516607287E-01 -0.17665823341E-01  0.33414198897E-02  0.20828956527E-01  0.00000000000E+00 0.  1.
     999901    1    3    3    0    0 -0.10030013415E+00  0.71971864185E-01  0.43084504591E-01  0.88966080091E+00  0.88000000000E+00 0.  1.
        -11    1    4    4    0    0  0.84686204605E-02 -0.11079370996E-01 -0.63306910199E-02  0.15323471015E-01  0.51100000000E-03 0.  1.
         11    1    4    4    0    0  0.10234812097E+00 -0.43226669848E-01 -0.40095233460E-01  0.11811677155E+00  0.51100000000E-03 0. -1.
</event>
<event>
 8    1  0.1088021E+005  0.1043930E+01  0.7957747E-01            NaN
         13   -1    0    0    0    0  0.00000000000E+00  0.00000000000E+00  0.74505805969E-08  0.10566000000E+00  0.10566000000E+00 0.  1.
     999900   -1    0    0    0    0 -0.00000000000E+00 -0.00000000000E+00 -0.74505805969E-08  0.93827000000E+00  0.93827000000E+00 0. -1.
     999902    2    1    2    0    0 -0.83634262031E-02 -0.16186516392E-02 -0.21665846133E-01  0.10206496259E+01  0.10203840860E+01 0.  0.
     999903    2    3    3    0    0  0.59328361766E-01  0.10857819426E+00 -0.37983527286E-01  0.13104758579E+00  0.20533938180E-01 0.  0.
         14    1    1    2    0    0  0.83634262031E-02  0.16186516392E-02  0.21665846133E-01  0.23280374130E-01  0.00000000000E+00 0.  1.
     999901    1    3    3    0    0 -0.67691787969E-01 -0.11019684590E+00  0.16317681154E-01  0.88960204008E+00  0.88000000000E+00 0.  1.
        -11    1    4    4    0    0  0.22190254061E-01  0.61943526150E-01 -0.20454838709E-01  0.68906235964E-01  0.51100000000E-03 0. -1.
         11    1    4    4    0    0  0.37138107705E-01  0.46634668107E-01 -0.17528688577E-01  0.62141349821E-01  0.51100000000E-03 0.  1.
</event>
<event>
 8    1  0.1088021E+005  0.1043930E+01  0.7957747E-01            NaN
         13   -1    0    0    0    0  0.00000000000E+00  0.00000000000E+00  0.74505805969E-08  0.10566000000E+00  0.10566000000E+00 0.  1.
     999900   -1    0    0    0    0 -0.00000000000E+00 -0.00000000000E+00 -0.74505805969E-08  0.93827000000E+00  0.93827000000E+00 0.  1.
     999902    2    1    2    0    0 -0.87477586055E-03  0.21581933167E-01  0.99138194464E-02  0.10201638710E+01  0.10198870010E+01 0.  0.
     999903    2    3    3    0    0 -0.47913113058E-01  0.72179007431E-01 -0.96339839134E-01  0.13108428566E+00  0.19906024873E-01 0.  0.
         14    1    1    2    0    0  0.87477586055E-03 -0.21581933167E-01 -0.99138194464E-02  0.23766129008E-01  0.00000000000E+00 0. -1.
     999901    1    3    3    0    0  0.47038337197E-01 -0.50597074264E-01  0.10625365858E+00  0.88907958533E+00  0.88000000000E+00 0. -1.
        -11    1    4    4    0    0 -0.25717089277E-01  0.24827849593E-01 -0.48140852250E-01  0.59963268528E-01  0.51100000000E-03 0. -1.
         11    1    4    4    0    0 -0.22196023781E-01  0.47351157838E-01 -0.48198986884E-01  0.71121017132E-01  0.51100000000E-03 0.  1.
</event>
<event>
 8    1  0.1088021E+005  0.1043930E+01  0.7957747E-01            NaN
         13   -1    0    0    0    0  0.00000000000E+00  0.00000000000E+00  0.74505805969E-08  0.10566000000E+00  0.10566000000E+00 0.  1.
     999900   -1    0    0    0    0 -0.00000000000E+00 -0.00000000000E+00 -0.74505805969E-08  0.93827000000E+00  0.93827000000E+00 0.  1.
     999902    2    1    2    0    0  0.14463741486E-01 -0.12277776362E-01 -0.12398247050E-01  0.10212659284E+01  0.10210144154E+01 0.  0.
     999903    2    3    3    0    0  0.63147951849E-01 -0.53540705967E-01  0.10050859257E+00  0.13176003405E+00  0.20111150513E-01 0.  0.
         14    1    1    2    0    0 -0.14463741486E-01  0.12277776362E-01  0.12398247050E-01  0.22664071569E-01  0.00000000000E+00 0.  1.
     999901    1    3    3    0    0 -0.48684210363E-01  0.41262929605E-01 -0.11290683962E+00  0.88950589438E+00  0.88000000000E+00 0.  1.
        -11    1    4    4    0    0  0.54261896398E-01 -0.37300021411E-01  0.70267042472E-01  0.96298304122E-01  0.51100000000E-03 0. -1.
         11    1    4    4    0    0  0.88860554504E-02 -0.16240684556E-01  0.30241550101E-01  0.35461729932E-01  0.51100000000E-03 0.  1.
</event>
<event>
 8    1  0.1088021E+005  0.1043930E+01  0.7957747E-01            NaN
         13   -1    0    0    0    0  0.00000000000E+00  0.00000000000E+00  0.74505805969E-08  0.10566000000E+00  0.10566000000E+00 0. -1.
     999900   -1    0    0    0    0 -0.00000000000E+00 -0.00000000000E+00 -0.74505805969E-08  0.93827000000E+00  0.93827000000E+00 0.  1.
     999902    2    1    2    0    0  0.21978809170E-01  0.18308036989E-03  0.65986815014E-02  0.10209812709E+01  0.10207233275E+01 0.  0.
     999903    2    3    3    0    0 -0.55915615054E-02 -0.12925746132E+00  0.61766942469E-02  0.13108512118E+00  0.20159379328E-01 0.  0.
         14    1    1    2    0    0 -0.21978809170E-01 -0.18308036989E-03 -0.65986815014E-02  0.22948729126E-01  0.00000000000E+00 0. -1.
     999901    1    3    3    0    0  0.27570370675E-01  0.12944054169E+00  0.42198725456E-03  0.88989614970E+00  0.88000000000E+00 0. -1.
        -11    1    4    4    0    0 -0.41735224876E-02 -0.97025502528E-01 -0.41515975459E-02  0.97205263818E-01  0.51100000000E-03 0. -1.
         11    1    4    4    0    0 -0.14180390179E-02 -0.32231958794E-01  0.10328291793E-01  0.33879857359E-01  0.51100000000E-03 0.  1.
</event>
<event>
 8    1  0.1088021E+005  0.1043930E+01  0.7957747E-01            NaN
         13   -1    0    0    0    0  0.00000000000E+00  0.00000000000E+00  0.74505805969E-08  0.10566000000E+00  0.10566000000E+00 0.  1.
     999900   -1    0    0    0    0 -0.00000000000E+00 -0.00000000000E+00 -0.74505805969E-08  0.93827000000E+00  0.93827000000E+00 0.  1.
     999902    2    1    2    0    0 -0.16802545904E-01  0.14675765289E-01  0.13385834502E-01  0.10179130017E+01  0.10175804611E+01 0.  0.
     999903    2    3    3    0    0  0.11817605112E+00 -0.39559211750E-01  0.22897737896E-02  0.12590191603E+00  0.17763420371E-01 0.  0.
         14    1    1    2    0    0  0.16802545904E-01 -0.14675765289E-01 -0.13385834502E-01  0.26016998308E-01  0.00000000000E+00 0. -1.
     999901    1    3    3    0    0 -0.13497859702E+00  0.54234977039E-01  0.11096060712E-01  0.89201108567E+00  0.88000000000E+00 0. -1.
        -11    1    4    4    0    0  0.83078946145E-02  0.61330730312E-03 -0.28126370358E-02  0.88073439168E-02  0.51100000000E-03 0.  1.
         11    1    4    4    0    0  0.10986815650E+00 -0.40172519053E-01  0.51024108255E-02  0.11709457211E+00  0.51100000000E-03 0. -1.
</event>
<event>
 8    1  0.1088021E+005  0.1043930E+01  0.7957747E-01            NaN
         13   -1    0    0    0    0  0.00000000000E+00  0.00000000000E+00  0.74505805969E-08  0.10566000000E+00  0.10566000000E+00 0.  1.
     999900   -1    0    0    0    0 -0.00000000000E+00 -0.00000000000E+00 -0.74505805969E-08  0.93827000000E+00  0.93827000000E+00 0. -1.
     999902    2    1    2    0    0  0.27421084731E-02 -0.23319080045E-01  0.14109710690E-01  0.10165368879E+01  0.10161677332E+01 0.  0.
     999903    2    3    3    0    0  0.75120077912E-03  0.11477037509E+00  0.45672007822E-01  0.12520707247E+00  0.20446892076E-01 0.  0.
         14    1    1    2    0    0 -0.27421084731E-02  0.23319080045E-01 -0.14109710690E-01  0.27393112068E-01  0.00000000000E+00 0. -1.
     999901    1    3    3    0    0  0.19909076940E-02 -0.13808945514E+00 -0.31562297132E-01  0.89132981546E+00  0.88000000000E+00 0.  1.
        -11    1    4    4    0    0  0.92996297930E-02  0.35220067943E-01  0.11472328526E-01  0.38194394130E-01  0.51100000000E-03 0. -1.
         11    1    4    4    0    0 -0.85484290138E-02  0.79550307152E-01  0.34199679296E-01  0.87012678338E-01  0.51100000000E-03 0.  1.
</event>
<event>
 8    1  0.1088021E+005  0.1043930E+01  0.7957747E-01            NaN
         13   -1    0    0    0    0  0.00000000000E+00  0.00000000000E+00  0.74505805969E-08  0.10566000000E+00  0.10566000000E+00 0.  1.
     999900   -1    0    0    0    0 -0.00000000000E+00 -0.00000000000E+00 -0.74505805969E-08  0.93827000000E+00  0.93827000000E+00 0. -1.
     999902    2    1    2    0    0 -0.14656009358E-02 -0.18493224536E-01  0.15609544006E-01  0.10196853057E+01  0.10193970362E+01 0.  0.
     999903    2    3    3    0    0 -0.30823293813E-01  0.75555564805E-01  0.99490394548E-01  0.13022308274E+00  0.20024830981E-01 0.  0.
         14    1    1    2    0    0  0.14656009358E-02  0.18493224536E-01 -0.15609544006E-01  0.24244694346E-01  0.00000000000E+00 0.  1.
     999901    1    3    3    0    0  0.29357692877E-01 -0.94048789342E-01 -0.83880850542E-01  0.88946222292E+00  0.88000000000E+00 0. -1.
        -11    1    4    4    0    0 -0.13829164555E-01  0.43811648125E-01  0.69733972160E-01  0.83509246780E-01  0.51100000000E-03 0.  1.
         11    1    4    4    0    0 -0.16994129258E-01  0.31743916681E-01  0.29756422389E-01  0.46713835957E-01  0.51100000000E-03 0. -1.
</event>
<event>
 8    1  0.1088021E+005  0.1043930E+01  0.7957747E-01            NaN
         13   -1    0    0    0    0  0.00000000000E+00  0.00000000000E+00  0.74505805969E-08  0.10566000000E+00  0.10566000000E+00 0. -1.
     999900   -1    0    0    0    0 -0.00000000000E+00 -0.00000000000E+00 -0.74505805969E-08  0.93827000000E+00  0.93827000000E+00 0.  1.
     999902    2    1    2    0    0  0.12307744074E-01 -0.91675278772E-02  0.17356841124E-01  0.10207613991E+01  0.10204984321E+01 0.  0.
     999903    2    3    3    0    0 -0.68160307137E-02  0.12623206941E+00 -0.19145356364E-01  0.12945270956E+00  0.20259953635E-01 0.  0.
         14    1    1    2    0    0 -0.12307744074E-01  0.91675278772E-02 -0.17356841124E-01  0.23168600851E-01  0.00000000000E+00 0.  1.
     999901    1    3    3    0    0  0.19123774788E-01 -0.13539959729E+00  0.36502197489E-01  0.89130868958E+00  0.88000000000E+00 0. -1.
        -11    1    4    4    0    0  0.52842498729E-02  0.56148757183E-01 -0.14197641960E-01  0.58158751604E-01  0.51100000000E-03 0. -1.
         11    1    4    4    0    0 -0.12100280587E-01  0.70083312226E-01 -0.49477144045E-02  0.71293957961E-01  0.51100000000E-03 0.  1.
</event>
<event>
 8    1  0.1088021E+005  0.1043930E+01  0.7957747E-01            NaN
         13   -1    0    0    0    0  0.00000000000E+00  0.00000000000E+00  0.74505805969E-08  0.10566000000E+00  0.10566000000E+00 0.  1.
     999900   -1    0    0    0    0 -0.00000000000E+00 -0.00000000000E+00 -0.74505805969E-08  0.93827000000E+00  0.93827000000E+00 0. -1.
     999902    2    1    2    0    0 -0.20609697417E-01  0.50485493870E-02  0.12095378006E-01  0.10195057160E+01  0.10192131079E+01 0.  0.
     999903    2    3    3    0    0  0.65337432446E-01 -0.25530702862E-01 -0.10406230895E+00  0.12719713261E+00  0.20720751282E-01 0.  0.
         14    1    1    2    0    0  0.20609697417E-01 -0.50485493870E-02 -0.12095378006E-01  0.24424283973E-01  0.00000000000E+00 0. -1.
     999901    1    3    3    0    0 -0.85947129863E-01  0.30579252249E-01  0.11615768695E+00  0.89230858342E+00  0.88000000000E+00 0.  1.
        -11    1    4    4    0    0  0.94415423660E-03 -0.17324648825E-02 -0.12983469777E-01  0.13142468195E-01  0.51100000000E-03 0.  1.
         11    1    4    4    0    0  0.64393278210E-01 -0.23798237980E-01 -0.91078839169E-01  0.11405466442E+00  0.51100000000E-03 0. -1.
</event>
<event>
 8    1  0.1088021E+005  0.1043930E+01  0.7957747E-01            NaN
         13   -1    0    0    0    0  0.00000000000E+00  0.00000000000E+00  0.74505805969E-08  0.10566000000E+00  0.10566000000E+00 0. -1.
     999900   -1    0    0    0    0 -0.00000000000E+00 -0.00000000000E+00 -0.74505805969E-08  0.93827000000E+00  0.93827000000E+00 0. -1.
     999902    2    1    2    0    0  0.13863076015E-01 -0.18756951618E-03 -0.19058208934E-01  0.10203623233E+01  0.10200901114E+01 0.  0.
     999903    2    3    3    0    0 -0.45388010688E-01  0.94930479972E-02  0.11678973462E+00  0.12791676784E+00  0.23930480716E-01 0.  0.
         14    1    1    2    0    0 -0.13863076015E-01  0.18756951618E-03  0.19058208934E-01  0.23567676735E-01  0.00000000000E+00 0. -1.
     999901    1    3    3    0    0  0.59251086703E-01 -0.96806175134E-02 -0.13584794355E+00  0.89244555543E+00  0.88000000000E+00 0. -1.
        -11    1    4    4    0    0 -0.18621764257E-01  0.15838354720E-01  0.60793414971E-01  0.65526513787E-01  0.51100000000E-03 0.  1.
         11    1    4    4    0    0 -0.26766246431E-01 -0.63453067230E-02  0.55996319649E-01  0.62390254052E-01  0.51100000000E-03 0. -1.
</event>
<event>
 8    1  0.1088021E+005  0.1043930E+01  0.7957747E-01            NaN
         13   -1    0    0    0    0  0.00000000000E+00  0.00000000000E+00  0.74505805969E-08  0.10566000000E+00  0.10566000000E+00 0.  1.
     999900   -1    0    0    0    0 -0.00000000000E+00 -0.00000000000E+00 -0.74505805969E-08  0.93827000000E+00  0.93827000000E+00 0. -1.
     999902    2    1    2    0    0  0.13506186009E-01  0.19487756394E-01  0.89032970201E-03  0.10202027499E+01  0.10199267957E+01 0.  0.
     999903    2    3    3    0    0 -0.74209089830E-01 -0.64909571966E-01  0.79761155893E-01  0.12832972875E+00  0.19657969016E-01 0.  0.
         14    1    1    2    0    0 -0.13506186009E-01 -0.19487756394E-01 -0.89032970201E-03  0.23727250088E-01  0.00000000000E+00 0. -1.
     999901    1    3    3    0    0  0.87715275839E-01  0.84397328360E-01 -0.78870826191E-01  0.89187302116E+00  0.88000000000E+00 0. -1.
        -11    1    4    4    0    0 -0.28755116759E-01 -0.36025024867E-01  0.43666859088E-01  0.63495786160E-01  0.51100000000E-03 0.  1.
         11    1    4    4    0    0 -0.45453973072E-01 -0.28884547099E-01  0.36094296805E-01  0.64833942591E-01  0.51100000000E-03 0. -1.
</event>
<event>
 8    1  0.1088021E+005  0.1043930E+01  0.7957747E-01            NaN
         13   -1    0    0    0    0  0.00000000000E+00  0.00000000000E+00  0.74505805969E-08  0.10566000000E+00  0.10566000000E+00 0.  1.
     999900   -1    0    0    0    0 -0.00000000000E+00 -0.00000000000E+00 -0.74505805969E-08  0.93827000000E+00  0.93827000000E+00 0. -1.
     999902    2    1    2    0    0 -0.18190439470E-01  0.96154984297E-02  0.54105937112E-02  0.10226550283E+01  0.10224337056E+01 0.  0.
     999903    2    3    3    0    0  0.10281981929E+00  0.79477558136E-01 -0.46871789147E-02  0.13157357569E+00  0.20025950318E-01 0.  0.
         14    1    1    2    0    0  0.18190439470E-01 -0.96154984297E-02 -0.54105937112E-02  0.21274971738E-01  0.00000000000E+00 0. -1.
     999901    1    3    3    0    0 -0.12101025876E+00 -0.69862059707E-01  0.10097772626E-01  0.89108145258E+00  0.88000000000E+00 0.  1.
        -11    1    4    4    0    0  0.37849367489E-01  0.20050365881E-01 -0.74541148294E-02  0.43478922941E-01  0.51100000000E-03 0. -1.
         11    1    4    4    0    0  0.64970451803E-01  0.59427192255E-01  0.27669359147E-02  0.88094652745E-01  0.51100000000E-03 0.  1.
</event>
<event>
 8    1  0.1088021E+005  0.1043930E+01  0.7957747E-01            NaN
         13   -1    0    0    0    0  0.00000000000E+00  0.00000000000E+00  0.74505805969E-08  0.10566000000E+00  0.10566000000E+00 0.  1.
     999900   -1    0    0    0    0 -0.00000000000E+00 -0.00000000000E+00 -0.74505805969E-08  0.93827000000E+00  0.93827000000E+00 0. -1.
     999902    2    1    2    0    0  0.80468047178E-02 -0.10802205683E-01 -0.20669138421E-01  0.10192591265E+01  0.10189605071E+01 0.  0.
     999903    2    3    3    0    0 -0.11135559711E+00  0.34300558178E-01 -0.52512866739E-01  0.12948094301E+00  0.20763336187E-01 0.  0.
         14    1    1    2    0    0 -0.80468047178E-02  0.10802205683E-01  0.20669138421E-01  0.24670873451E-01  0.00000000000E+00 0.  1.
     999901    1    3    3    0    0  0.11940240183E+00 -0.45102763860E-01  0.31843728318E-01  0.88977818354E+00  0.88000000000E+00 0.  1.
        -11    1    4    4    0    0 -0.58443372602E-01  0.20172202892E-01 -0.16705523709E-01  0.64045930504E-01  0.51100000000E-03 0. -1.
         11    1    4    4    0    0 -0.52912224511E-01  0.14128355286E-01 -0.35807343029E-01  0.65435012505E-01  0.51100000000E-03 0.  1.
</event>
<event>
 8    1  0.1088021E+005  0.1043930E+01  0.7957747E-01            NaN
         13   -1    0    0    0    0  0.00000000000E+00  0.00000000000E+00  0.74505805969E-08  0.10566000000E+00  0.10566000000E+00 0. -1.
     999900   -1    0    0    0    0 -0.00000000000E+00 -0.00000000000E+00 -0.74505805969E-08  0.93827000000E+00  0.93827000000E+00 0.  1.
     999902    2    1    2    0    0  0.80855717115E-02 -0.29033891143E-02  0.23408138727E-01  0.10189951429E+01  0.10186900187E+01 0.  0.
     999903    2    3    3    0    0 -0.49222561404E-01  0.40754735262E-01  0.11305465004E+00  0.13151176228E+00  0.20740798582E-01 0.  0.
         14    1    1    2    0    0 -0.80855717115E-02  0.29033891143E-02 -0.23408138727E-01  0.24934857066E-01  0.00000000000E+00 0.  1.
     999901    1    3    3    0    0  0.57308133115E-01 -0.43658124377E-01 -0.89646511309E-01  0.88748338065E+00  0.88000000000E+00 0.  1.
        -11    1    4    4    0    0 -0.67211227426E-02  0.14774294290E-01  0.39160310018E-01  0.42393917776E-01  0.51100000000E-03 0.  1.
         11    1    4    4    0    0 -0.42501438661E-01  0.25980440972E-01  0.73894340019E-01  0.89117844505E-01  0.51100000000E-03 0. -1.
</event>
<event>
 8    1  0.1088021E+005  0.1043930E+01  0.7957747E-01            NaN
         13   -1    0    0    0    0  0.00000000000E+00  0.00000000000E+00  0.74505805969E-08  0.10566000000E+00  0.10566000000E+00 0.  1.
     999900   -1    0    0    0    0 -0.00000000000E+00 -0.00000000000E+00 -0.74505805969E-08  0.93827000000E+00  0.93827000000E+00 0.  1.
     999902    2    1    2    0    0  0.64475806688E-02 -0.17264327415E-01 -0.18476595224E-01  0.10178337767E+01  0.10174991814E+01 0.  0.
     999903    2    3    3    0    0 -0.45921858950E-01 -0.73143205474E-01  0.91968830688E-01  0.12762975556E+00  0.19296192598E-01 0.  0.
         14    1    1    2    0    0 -0.64475806688E-02  0.17264327415E-01  0.18476595224E-01  0.26096223264E-01  0.00000000000E+00 0.  1.
     999901    1    3    3    0    0  0.52369439618E-01  0.55878878059E-01 -0.11044542591E+00  0.89020402118E+00  0.88000000000E+00 0.  1.
        -11    1    4    4    0    0 -0.46096793138E-01 -0.65560321620E-01  0.78628687124E-01  0.11227556131E+00  0.51100000000E-03 0.  1.
         11    1    4    4    0    0  0.17493418828E-03 -0.75828838538E-02  0.13340143565E-01  0.15354194243E-01  0.51100000000E-03 0. -1.
</event>
<event>
 8    1  0.1088021E+005  0.1043930E+01  0.7957747E-01            NaN
         13   -1    0    0    0    0  0.00000000000E+00  0.00000000000E+00  0.74505805969E-08  0.10566000000E+00  0.10566000000E+00 0. -1.
     999900   -1    0    0    0    0 -0.00000000000E+00 -0.00000000000E+00 -0.74505805969E-08  0.93827000000E+00  0.93827000000E+00 0. -1.
     999902    2    1    2    0    0  0.17480459806E-01  0.28869706996E-02  0.15486302094E-01  0.10203986034E+01  0.10201272387E+01 0.  0.
     999903    2    3    3    0    0  0.10615360972E+00 -0.73643749962E-01 -0.16262816231E-01  0.13206990000E+00  0.22045147511E-01 0.  0.
         14    1    1    2    0    0 -0.17480459806E-01 -0.28869706996E-02 -0.15486302094E-01  0.23531396631E-01  0.00000000000E+00 0.  1.
     999901    1    3    3    0    0 -0.88673149912E-01  0.76530720662E-01  0.31749118325E-01  0.88832870337E+00  0.88000000000E+00 0.  1.
        -11    1    4    4    0    0  0.50012961531E-01 -0.27584219171E-01 -0.16490146735E-01  0.59450580559E-01  0.51100000000E-03 0.  1.
         11    1    4    4    0    0  0.56140648186E-01 -0.46059530791E-01  0.22733050462E-03  0.72619319438E-01  0.51100000000E-03 0. -1.
</event>
<event>
 8    1  0.1088021E+005  0.1043930E+01  0.7957747E-01            NaN
         13   -1    0    0    0    0  0.00000000000E+00  0.00000000000E+00  0.74505805969E-08  0.10566000000E+00  0.10566000000E+00 0. -1.
     999900   -1    0    0    0    0 -0.00000000000E+00 -0.00000000000E+00 -0.74505805969E-08  0.93827000000E+00  0.93827000000E+00 0. -1.
     999902    2    1    2    0    0  0.12970756237E-01  0.26904948321E-01  0.60988457355E-02  0.10134453698E+01  0.10129867743E+01 0.  0.
     999903    2    3    3    0    0 -0.89749959570E-01 -0.38670615441E-01  0.71232224324E-01  0.12266253594E+00  0.20532807902E-01 0.  0.
         14    1    1    2    0    0 -0.12970756237E-01 -0.26904948321E-01 -0.60988457355E-02  0.30484630239E-01  0.00000000000E+00 0. -1.
     999901    1    3    3    0    0  0.10272071581E+00  0.65575563762E-01 -0.65133378589E-01  0.89078283382E+00  0.88000000000E+00 0. -1.
        -11    1    4    4    0    0 -0.57924413113E-01 -0.33131779623E-01  0.55155298580E-01  0.86575519276E-01  0.51100000000E-03 0. -1.
         11    1    4    4    0    0 -0.31825546457E-01 -0.55388358181E-02  0.16076925744E-01  0.36087016667E-01  0.51100000000E-03 0.  1.
</event>
<event>
 8    1  0.1088021E+005  0.1043930E+01  0.7957747E-01            NaN
         13   -1    0    0    0    0  0.00000000000E+00  0.00000000000E+00  0.74505805969E-08  0.10566000000E+00  0.10566000000E+00 0. -1.
     999900   -1    0    0    0    0 -0.00000000000E+00 -0.00000000000E+00 -0.74505805969E-08  0.93827000000E+00  0.93827000000E+00 0. -1.
     999902    2    1    2    0    0 -0.12340038140E-01  0.18752458833E-01  0.79588852966E-02  0.10201124622E+01  0.10198343789E+01 0.  0.
     999903    2    3    3    0    0 -0.45980522455E-01  0.83339352415E-01 -0.89037791440E-01  0.13179297892E+00  0.19544945168E-01 0.  0.
         14    1    1    2    0    0  0.12340038140E-01 -0.18752458833E-01 -0.79588852966E-02  0.23817537840E-01  0.00000000000E+00 0. -1.
     999901    1    3    3    0    0  0.33640484315E-01 -0.64586893582E-01  0.96996676736E-01  0.88831948324E+00  0.88000000000E+00 0.  1.
        -11    1    4    4    0    0 -0.16714562301E-01  0.42812052353E-01 -0.53070412616E-01  0.70206682273E-01  0.51100000000E-03 0. -1.
         11    1    4    4    0    0 -0.29265960154E-01  0.40527300062E-01 -0.35967378824E-01  0.61586296646E-01  0.51100000000E-03 0.  1.
</event>
<event>
 8    1  0.1088021E+005  0.1043930E+01  0.7957747E-01            NaN
         13   -1    0    0    0    0  0.00000000000E+00  0.00000000000E+00  0.74505805969E-08  0.10566000000E+00  0.10566000000E+00 0. -1.
     999900   -1    0    0    0    0 -0.00000000000E+00 -0.00000000000E+00 -0.74505805969E-08  0.93827000000E+00  0.93827000000E+00 0. -1.
     999902    2    1    2    0    0  0.31783774538E-01 -0.40799549905E-02  0.11865768419E-01  0.10097590940E+01  0.10091807455E+01 0.  0.
     999903    2    3    3    0    0  0.11643398803E+00  0.10911404085E-01 -0.37206257392E-01  0.12420928557E+00  0.19175732736E-01 0.  0.
         14    1    1    2    0    0 -0.31783774538E-01  0.40799549905E-02 -0.11865768419E-01  0.34170905999E-01  0.00000000000E+00 0. -1.
     999901    1    3    3    0    0 -0.84650213491E-01 -0.14991359076E-01  0.49072025811E-01  0.88554980843E+00  0.88000000000E+00 0. -1.
        -11    1    4    4    0    0  0.60419950914E-01  0.15145953431E-01 -0.21136846682E-01  0.65779919295E-01  0.51100000000E-03 0.  1.
         11    1    4    4    0    0  0.56014037114E-01 -0.42345493461E-02 -0.16069410710E-01  0.58429366277E-01  0.51100000000E-03 0. -1.
</event>
<event>
 8    1  0.1088021E+005  0.1043930E+01  0.7957747E-01            NaN
         13   -1    0    0    0    0  0.00000000000E+00  0.00000000000E+00  0.74505805969E-08  0.10566000000E+00  0.10566000000E+00 0. -1.
     999900   -1    0    0    0    0 -0.00000000000E+00 -0.00000000000E+00 -0.74505805969E-08  0.93827000000E+00  0.93827000000E+00 0.  1.
     999902    2    1    2    0    0  0.91179031173E-02  0.21506550321E-01  0.59017939466E-02  0.10198364524E+01  0.10195518087E+01 0.  0.
     999903    2    3    3    0    0  0.92401191047E-01  0.87510300323E-01 -0.31766397688E-01  0.13264341043E+00  0.19726569375E-01 0.  0.
         14    1    1    2    0    0 -0.91179031173E-02 -0.21506550321E-01 -0.59017939466E-02  0.24093547596E-01  0.00000000000E+00 0. -1.
     999901    1    3    3    0    0 -0.83283287930E-01 -0.66003750001E-01  0.37668191635E-01  0.88719304197E+00  0.88000000000E+00 0.  1.
        -11    1    4    4    0    0  0.60452130248E-01  0.64591082359E-01 -0.29490757947E-01  0.93254672254E-01  0.51100000000E-03 0.  1.
         11    1    4    4    0    0  0.31949060799E-01  0.22919217964E-01 -0.22756397406E-02  0.39388738178E-01  0.51100000000E-03 0. -1.
</event>
<event>
 7    1  0.1088021E+005  0.1043930E+01  0.7957747E-01            NaN
         13   -1    0    0    0    0  0.00000000000E+00  0.00000000000E+00  0.74505805969E-08  0.10566000000E+00  0.10566000000E+00 0.  1.
     999900   -1    0    0    0    0 -0.00000000000E+00 -0.00000000000E+00 -0.74505805969E-08  0.93827000000E+00  0.93827000000E+00 0. -1.
     999903    2    1    2    0    0 -0.57687175824E-02  0.89734703405E-01  0.55816290567E-01  0.10896005593E+00  0.25908307499E-01 0.  0.
         14    1    1    2    0    0  0.58722656910E-02  0.29981547029E-01  0.29886490602E-01  0.42738495377E-01  0.00000000000E+00 0. -1.
     999901    1    1    2    0    0 -0.10354810855E-03 -0.11971625043E+00 -0.85702781169E-01  0.89223144869E+00  0.88000000000E+00 0. -1.
        -11    1    3    3    0    0 -0.13946749698E-01  0.28193719999E-01  0.20186613113E-01  0.37378578685E-01  0.51100000000E-03 0. -1.
         11    1    3    3    0    0  0.81780321155E-02  0.61540983406E-01  0.35629677453E-01  0.71581477243E-01  0.51100000000E-03 0.  1.
</event>
<event>
 8    1  0.1088021E+005  0.1043930E+01  0.7957747E-01            NaN
         13   -1    0    0    0    0  0.00000000000E+00  0.00000000000E+00  0.74505805969E-08  0.10566000000E+00  0.10566000000E+00 0.  1.
     999900   -1    0    0    0    0 -0.00000000000E+00 -0.00000000000E+00 -0.74505805969E-08  0.93827000000E+00  0.93827000000E+00 0.  1.
     999902    2    1    2    0    0 -0.14132440633E-01  0.27735170988E-02  0.19390146349E-01  0.10197764071E+01  0.10194903258E+01 0.  0.
     999903    2    3    3    0    0 -0.71221083286E-01  0.10667151145E+00  0.22985932630E-01  0.13181985633E+00  0.19921530184E-01 0.  0.
         14    1    1    2    0    0  0.14132440633E-01 -0.27735170988E-02 -0.19390146349E-01  0.24153592917E-01  0.00000000000E+00 0.  1.
     999901    1    3    3    0    0  0.57088642653E-01 -0.10389799435E+00 -0.35957862802E-02  0.88795655075E+00  0.88000000000E+00 0.  1.
        -11    1    4    4    0    0 -0.20685964059E-01  0.25216161492E-01 -0.22417908942E-02  0.32696340114E-01  0.51100000000E-03 0.  1.
         11    1    4    4    0    0 -0.50535119228E-01  0.81455349954E-01  0.25227723524E-01  0.99123516215E-01  0.51100000000E-03 0. -1.
</event>
<event>
 8    1  0.1088021E+005  0.1043930E+01  0.7957747E-01            NaN
         13   -1    0    0    0    0  0.00000000000E+00  0.00000000000E+00  0.74505805969E-08  0.10566000000E+00  0.10566000000E+00 0.  1.
     999900   -1    0    0    0    0 -0.00000000000E+00 -0.00000000000E+00 -0.74505805969E-08  0.93827000000E+00  0.93827000000E+00 0. -1.
     999902    2    1    2    0    0  0.14976507456E-01 -0.13878605977E-01  0.11173956601E-01  0.10206540728E+01  0.10203886356E+01 0.  0.
     999903    2    3    3    0    0 -0.12275391012E+00 -0.14910056738E-01 -0.29525217638E-01  0.12901112041E+00  0.21938515696E-01 0.  0.
         14    1    1    2    0    0 -0.14976507456E-01  0.13878605977E-01 -0.11173956601E-01  0.23275927168E-01  0.00000000000E+00 0.  1.
     999901    1    3    3    0    0  0.13773041758E+00  0.10314507614E-02  0.40699174239E-01  0.89164295242E+00  0.88000000000E+00 0.  1.
        -11    1    4    4    0    0 -0.22272238065E-02  0.24724930145E-02 -0.27026438715E-02  0.43173084772E-02  0.51100000000E-03 0.  1.
         11    1    4    4    0    0 -0.12052668632E+00 -0.17382549752E-01 -0.26822573767E-01  0.12469381193E+00  0.51100000000E-03 0. -1.
</event>
<event>
 8    1  0.1088021E+005  0.1043930E+01  0.7957747E-01            NaN
         13   -1    0    0    0    0  0.00000000000E+00  0.00000000000E+00  0.74505805969E-08  0.10566000000E+00  0.10566000000E+00 0. -1.
     999900   -1    0    0    0    0 -0.00000000000E+00 -0.00000000000E+00 -0.74505805969E-08  0.93827000000E+00  0.93827000000E+00 0. -1.
     999902    2    1    2    0    0  0.18139119934E-01 -0.13041905302E-01  0.63895370903E-02  0.10206932801E+01  0.10204287466E+01 0.  0.
     999903    2    3    3    0    0  0.33510624476E-01  0.81997080396E-01 -0.93305204162E-01  0.12984664160E+00  0.17544402662E-01 0.  0.
         14    1    1    2    0    0 -0.18139119934E-01  0.13041905302E-01 -0.63895370903E-02  0.23236719866E-01  0.00000000000E+00 0. -1.
     999901    1    3    3    0    0 -0.15371504541E-01 -0.95038985699E-01  0.99694741252E-01  0.89084663853E+00  0.88000000000E+00 0. -1.
        -11    1    4    4    0    0  0.18132268276E-01  0.35088670479E-01 -0.30182397527E-01  0.49711489520E-01  0.51100000000E-03 0. -1.
         11    1    4    4    0    0  0.15378356200E-01  0.46908409917E-01 -0.63122806635E-01  0.80135152080E-01  0.51100000000E-03 0.  1.
</event>
<event>
 8    1  0.1088021E+005  0.1043930E+01  0.7957747E-01            NaN
         13   -1    0    0    0    0  0.00000000000E+00  0.00000000000E+00  0.74505805969E-08  0.10566000000E+00  0.10566000000E+00 0. -1.
     999900   -1    0    0    0    0 -0.00000000000E+00 -0.00000000000E+00 -0.74505805969E-08  0.93827000000E+00  0.93827000000E+00 0. -1.
     999902    2    1    2    0    0  0.13358723883E-01 -0.22294639942E-01  0.13053936424E-01  0.10148454383E+01  0.10144285839E+01 0.  0.
     999903    2    3    3    0    0 -0.24892973912E-01 -0.98923578260E-01 -0.72886159471E-01  0.12652067411E+00  0.17016293604E-01 0.  0.
         14    1    1    2    0    0 -0.13358723883E-01  0.22294639942E-01 -0.13053936424E-01  0.29084561713E-01  0.00000000000E+00 0. -1.
     999901    1    3    3    0    0  0.38251697794E-01  0.76628938319E-01  0.85940095895E-01  0.88832476418E+00  0.88000000000E+00 0.  1.
        -11    1    4    4    0    0 -0.12034089434E-01 -0.19509435547E-01 -0.17621416768E-01  0.28917344861E-01  0.51100000000E-03 0. -1.
         11    1    4    4    0    0 -0.12858884477E-01 -0.79414142714E-01 -0.55264742703E-01  0.97603329246E-01  0.51100000000E-03 0.  1.
</event>
<event>
 8    1  0.1088021E+005  0.1043930E+01  0.7957747E-01            NaN
         13   -1    0    0    0    0  0.00000000000E+00  0.00000000000E+00  0.74505805969E-08  0.10566000000E+00  0.10566000000E+00 0.  1.
     999900   -1    0    0    0    0 -0.00000000000E+00 -0.00000000000E+00 -0.74505805969E-08  0.93827000000E+00  0.93827000000E+00 0. -1.
     999902    2    1    2    0    0 -0.91141810437E-02 -0.37718350088E-02  0.21031610057E-01  0.10207001989E+01  0.10204358248E+01 0.  0.
     999903    2    3    3    0    0 -0.22636865505E-01 -0.12645245021E+00  0.25377465963E-01  0.13207638495E+00  0.17248357549E-01 0.  0.
         14    1    1    2    0    0  0.91141810437E-02  0.37718350088E-02 -0.21031610057E-01  0.23229801054E-01  0.00000000000E+00 0. -1.
     999901    1    3    3    0    0  0.13522684462E-01  0.12268061520E+00 -0.43458559060E-02  0.88862381400E+00  0.88000000000E+00 0. -1.
        -11    1    4    4    0    0 -0.82584351471E-02 -0.81340977064E-01  0.10432565840E-01  0.82423636487E-01  0.51100000000E-03 0.  1.
         11    1    4    4    0    0 -0.14378430358E-01 -0.45111473146E-01  0.14944900123E-01  0.49652748460E-01  0.51100000000E-03 0. -1.
</event>
<event>
 8    1  0.1088021E+005  0.1043930E+01  0.7957747E-01            NaN
         13   -1    0    0    0    0  0.00000000000E+00  0.00000000000E+00  0.74505805969E-08  0.10566000000E+00  0.10566000000E+00 0. -1.
     999900   -1    0    0    0    0 -0.00000000000E+00 -0.00000000000E+00 -0.74505805969E-08  0.93827000000E+00  0.93827000000E+00 0. -1.
     999902    2    1    2    0    0  0.24144192043E-02  0.13997319506E-01  0.19187962674E-01  0.10200567454E+01  0.10197773441E+01 0.  0.
     999903    2    3    3    0    0  0.46290490408E-01 -0.11723019748E+00  0.20454794949E-01  0.12924398410E+00  0.19997001920E-01 0.  0.
         14    1    1    2    0    0 -0.24144192043E-02 -0.13997319506E-01 -0.19187962674E-01  0.23873254597E-01  0.00000000000E+00 0.  1.
     999901    1    3    3    0    0 -0.43876071204E-01  0.13122751699E+00 -0.12668322751E-02  0.89081276130E+00  0.88000000000E+00 0.  1.
        -11    1    4    4    0    0  0.36385611434E-01 -0.78356823987E-01  0.21802000824E-01  0.89102710092E-01  0.51100000000E-03 0.  1.
         11    1    4    4    0    0  0.99048789749E-02 -0.38873373493E-01 -0.13472058751E-02  0.40141274007E-01  0.51100000000E-03 0. -1.
</event>
<event>
 8    1  0.1088021E+005  0.1043930E+01  0.7957747E-01            NaN
         13   -1    0    0    0    0  0.00000000000E+00  0.00000000000E+00  0.74505805969E-08  0.10566000000E+00  0.10566000000E+00 0. -1.
     999900   -1    0    0    0    0 -0.00000000000E+00 -0.00000000000E+00 -0.74505805969E-08  0.93827000000E+00  0.93827000000E+00 0.  1.
     999902    2    1    2    0    0 -0.20535356869E-01 -0.69314483101E-02 -0.54522436708E-02  0.10215811115E+01  0.10213366215E+01 0.  0.
     999903    2    3    3    0    0 -0.23025738998E-01 -0.12484733557E+00 -0.35187450693E-01  0.13321489138E+00  0.19773940997E-01 0.  0.
         14    1    1    2    0    0  0.20535356869E-01  0.69314483101E-02  0.54522436708E-02  0.22348888529E-01  0.00000000000E+00 0. -1.
     999901    1    3    3    0    0  0.24903821284E-02  0.11791588726E+00  0.29735207023E-01  0.88836622010E+00  0.88000000000E+00 0.  1.
        -11    1    4    4    0    0 -0.18141413137E-01 -0.10211597381E+00 -0.36424293010E-01  0.10992621716E+00  0.51100000000E-03 0. -1.
         11    1    4    4    0    0 -0.48843258612E-02 -0.22731361764E-01  0.12368423170E-02  0.23288674214E-01  0.51100000000E-03 0.  1.
</event>
<event>
 8    1  0.1088021E+005  0.1043930E+01  0.7957747E-01            NaN
         13   -1    0    0    0    0  0.00000000000E+00  0.00000000000E+00  0.74505805969E-08  0.10566000000E+00  0.10566000000E+00 0. -1.
     999900   -1    0    0    0    0 -0.00000000000E+00 -0.00000000000E+00 -0.74505805969E-08  0.93827000000E+00  0.93827000000E+00 0. -1.
     999902    2    1    2    0    0 -0.10351752838E-01  0.14793783352E-01  0.14221691106E-01  0.10209458465E+01  0.10206870971E+01 0.  0.
     999903    2    3    3    0    0  0.78439822630E-01 -0.95557471805E-01  0.32390237556E-01  0.12943508414E+00  0.20500666440E-01 0.  0.
         14    1    1    2    0    0  0.10351752838E-01 -0.14793783352E-01 -0.14221691106E-01  0.22984153467E-01  0.00000000000E+00 0.  1.
     999901    1    3    3    0    0 -0.88791575469E-01  0.11035125516E+00 -0.18168546451E-01  0.89151076240E+00  0.88000000000E+00 0.  1.
        -11    1    4    4    0    0  0.14382156328E-01 -0.31452584828E-01  0.11296193046E-01  0.36386489407E-01  0.51100000000E-03 0. -1.
         11    1    4    4    0    0  0.64057666302E-01 -0.64104886977E-01  0.21094044510E-01  0.93048594730E-01  0.51100000000E-03 0.  1.
</event>
<event>
 8    1  0.1088021E+005  0.1043930E+01  0.7957747E-01            NaN
         13   -1    0    0    0    0  0.00000000000E+00  0.00000000000E+00  0.74505805969E-08  0.10566000000E+00  0.10566000000E+00 0. -1.
     999900   -1    0    0    0    0 -0.00000000000E+00 -0.00000000000E+00 -0.74505805969E-08  0.93827000000E+00  0.93827000000E+00 0.  1.
     999902    2    1    2    0    0 -0.22304125134E-02 -0.60208433058E-02 -0.22593819396E-01  0.10204415780E+01  0.10201712151E+01 0.  0.
     999903    2    3    3    0    0 -0.21491511738E-01  0.12041655065E+00 -0.42017990722E-01  0.13098404501E+00  0.20719019160E-01 0.  0.
         14    1    1    2    0    0  0.22304125134E-02  0.60208433058E-02  0.22593819396E-01  0.23488422020E-01  0.00000000000E+00 0. -1.
     999901    1    3    3    0    0  0.19261099225E-01 -0.12643739395E+00  0.19424171327E-01  0.88945753297E+00  0.88000000000E+00 0.  1.
        -11    1    4    4    0    0 -0.12534519305E-01  0.56411477096E-01 -0.92637843855E-02  0.58527324768E-01  0.51100000000E-03 0.  1.
         11    1    4    4    0    0 -0.89569924330E-02  0.64005073552E-01 -0.32754206337E-01  0.72456720238E-01  0.51100000000E-03 0. -1.
</event>
<event>
 8    1  0.1088021E+005  0.1043930E+01  0.7957747E-01            NaN
         13   -1    0    0    0    0  0.00000000000E+00  0.00000000000E+00  0.74505805969E-08  0.10566000000E+00  0.10566000000E+00 0.  1.
     999900   -1    0    0    0    0 -0.00000000000E+00 -0.00000000000E+00 -0.74505805969E-08  0.93827000000E+00  0.93827000000E+00 0.  1.
     999902    2    1    2    0    0 -0.25691162795E-01 -0.12824136175E-01 -0.40746832642E-02  0.10149283215E+01  0.10145138739E+01 0.  0.
     999903    2    3    3    0    0 -0.20966775862E-01  0.12069288455E+00 -0.13333717156E-01  0.12479639620E+00  0.19747770000E-01 0.  0.
         14    1    1    2    0    0  0.25691162795E-01  0.12824136175E-01  0.40746832642E-02  0.29001678539E-01  0.00000000000E+00 0.  1.
     999901    1    3    3    0    0 -0.47243869325E-02 -0.13351702073E+00  0.92590338922E-02  0.89013192526E+00  0.88000000000E+00 0. -1.
        -11    1    4    4    0    0 -0.14537140530E-01  0.39381857512E-01  0.92743170896E-03  0.41992623239E-01  0.51100000000E-03 0.  1.
         11    1    4    4    0    0 -0.64296353321E-02  0.81311027041E-01 -0.14261148865E-01  0.82803772963E-01  0.51100000000E-03 0. -1.
</event>
<event>
 8    1  0.1088021E+005  0.1043930E+01  0.7957747E-01            NaN
         13   -1    0    0    0    0  0.00000000000E+00  0.00000000000E+00  0.74505805969E-08  0.10566000000E+00  0.10566000000E+00 0.  1.
     999900   -1    0    0    0    0 -0.00000000000E+00 -0.00000000000E+00 -0.74505805969E-08  0.93827000000E+00  0.93827000000E+00 0. -1.
     999902    2    1    2    0    0 -0.16383764401E-01 -0.22501640110E-02  0.15290213219E-01  0.10214070873E+01  0.10211587323E+01 0.  0.
     999903    2    3    3    0    0  0.33026691568E-01 -0.10508513099E+00 -0.66463905853E-01  0.13028411066E+00  0.20563355730E-01 0.  0.
         14    1    1    2    0    0  0.16383764401E-01  0.22501640110E-02 -0.15290213219E-01  0.22522912652E-01  0.00000000000E+00 0. -1.
     999901    1    3    3    0    0 -0.49410455969E-01  0.10283496698E+00  0.81754119072E-01  0.89112297669E+00  0.88000000000E+00 0.  1.
        -11    1    4    4    0    0  0.15380120891E-01 -0.79050688642E-01 -0.49782010448E-01  0.94678768363E-01  0.51100000000E-03 0.  1.
         11    1    4    4    0    0  0.17646570677E-01 -0.26034442347E-01 -0.16681895404E-01  0.35605342299E-01  0.51100000000E-03 0. -1.
</event>
<event>
 8    1  0.1088021E+005  0.1043930E+01  0.7957747E-01            NaN
         13   -1    0    0    0    0  0.00000000000E+00  0.00000000000E+00  0.74505805969E-08  0.10566000000E+00  0.10566000000E+00 0.  1.
     999900   -1    0    0    0    0 -0.00000000000E+00 -0.00000000000E+00 -0.74505805969E-08  0.93827000000E+00  0.93827000000E+00 0.  1.
     999902    2    1    2    0    0 -0.55803923456E-02  0.24906344805E-01  0.57236509288E-02  0.10177722675E+01  0.10174360724E+01 0.  0.
     999903    2    3    3    0    0 -0.11276682852E+00  0.32058880253E-01  0.52514227156E-01  0.13000571659E+00  0.19990319531E-01 0.  0.
         14    1    1    2    0    0  0.55803923456E-02 -0.24906344805E-01 -0.57236509288E-02  0.26157732513E-01  0.00000000000E+00 0.  1.
     999901    1    3    3    0    0  0.10718643618E+00 -0.71525354488E-02 -0.46790576227E-01  0.88776655089E+00  0.88000000000E+00 0.  1.
        -11    1    4    4    0    0 -0.23826116962E-01  0.50827589827E-02  0.20049930653E-01  0.31555968192E-01  0.51100000000E-03 0.  1.
         11    1    4    4    0    0 -0.88940711560E-01  0.26976121271E-01  0.32464296503E-01  0.98449748400E-01  0.51100000000E-03 0. -1.
</event>
<event>
 8    1  0.1088021E+005  0.1043930E+01  0.7957747E-01            NaN
         13   -1    0    0    0    0  0.00000000000E+00  0.00000000000E+00  0.74505805969E-08  0.10566000000E+00  0.10566000000E+00 0. -1.
     999900   -1    0    0    0    0 -0.00000000000E+00 -0.00000000000E+00 -0.74505805969E-08  0.93827000000E+00  0.93827000000E+00 0.  1.
     999902    2    1    2    0    0 -0.11399328617E-01 -0.18448904828E-01 -0.98314918362E-02  0.10201189728E+01  0.10198410434E+01 0.  0.
     999903    2    3    3    0    0 -0.25289992614E-01 -0.39998073971E-01  0.11957416591E+00  0.13028576292E+00  0.20903808701E-01 0.  0.
         14    1    1    2    0    0  0.11399328617E-01  0.18448904828E-01  0.98314918362E-02  0.23811027151E-01  0.00000000000E+00 0. -1.
     999901    1    3    3    0    0  0.13890663997E-01  0.21549169143E-01 -0.12940565775E+00  0.88983320993E+00  0.88000000000E+00 0.  1.
        -11    1    4    4    0    0 -0.14309005458E-01 -0.70942484582E-02  0.26357669905E-01  0.30823106304E-01  0.51100000000E-03 0. -1.
         11    1    4    4    0    0 -0.10980987156E-01 -0.32903825513E-01  0.93216496006E-01  0.99462656615E-01  0.51100000000E-03 0.  1.
</event>
<event>
 8    1  0.1088021E+005  0.1043930E+01  0.7957747E-01            NaN
         13   -1    0    0    0    0  0.00000000000E+00  0.00000000000E+00  0.74505805969E-08  0.10566000000E+00  0.10566000000E+00 0. -1.
     999900   -1    0    0    0    0 -0.00000000000E+00 -0.00000000000E+00 -0.74505805969E-08  0.93827000000E+00  0.93827000000E+00 0.  1.
     999902    2    1    2    0    0 -0.10555659280E-01  0.12429347193E-01 -0.17548844324E-01  0.10199743628E+01  0.10196930069E+01 0.  0.
     999903    2    3    3    0    0 -0.11624840419E+00 -0.49625926372E-01  0.25158268690E-01  0.13045443007E+00  0.20223644502E-01 0.  0.
         14    1    1    2    0    0  0.10555659280E-01 -0.12429347193E-01  0.17548844324E-01  0.23955637157E-01  0.00000000000E+00 0. -1.
     999901    1    3    3    0    0  0.10569274491E+00  0.62055273565E-01 -0.42707113014E-01  0.88951993278E+00  0.88000000000E+00 0.  1.
        -11    1    4    4    0    0 -0.61565303990E-01 -0.36289178568E-01  0.18120241530E-01  0.73727846914E-01  0.51100000000E-03 0. -1.
         11    1    4    4    0    0 -0.54683100195E-01 -0.13336747803E-01  0.70380271603E-02  0.56726583153E-01  0.51100000000E-03 0.  1.
</event>
<event>
 8    1  0.1088021E+005  0.1043930E+01  0.7957747E-01            NaN
         13   -1    0    0    0    0  0.00000000000E+00  0.00000000000E+00  0.74505805969E-08  0.10566000000E+00  0.10566000000E+00 0. -1.
     999900   -1    0    0    0    0 -0.00000000000E+00 -0.00000000000E+00 -0.74505805969E-08  0.93827000000E+00  0.93827000000E+00 0. -1.
     999902    2    1    2    0    0  0.22555637842E-01  0.42392707512E-02  0.87207259042E-03  0.10209628773E+01  0.10207045156E+01 0.  0.
     999903    2    3    3    0    0 -0.37953351993E-01 -0.76803671282E-01 -0.95723045262E-01  0.12991859495E+00  0.19408221680E-01 0.  0.
         14    1    1    2    0    0 -0.22555637842E-01 -0.42392707512E-02 -0.87207259042E-03  0.22967122710E-01  0.00000000000E+00 0.  1.
     999901    1    3    3    0    0  0.60508989835E-01  0.81042942033E-01  0.96595117853E-01  0.89104428234E+00  0.88000000000E+00 0. -1.
        -11    1    4    4    0    0 -0.18798870072E-01 -0.26369972424E-01 -0.47903644511E-01  0.57825541416E-01  0.51100000000E-03 0.  1.
         11    1    4    4    0    0 -0.19154481921E-01 -0.50433698858E-01 -0.47819400751E-01  0.72093053530E-01  0.51100000000E-03 0. -1.
</event>
<event>
 8    1  0.1088021E+005  0.1043930E+01  0.7957747E-01            NaN
         13   -1    0    0    0    0  0.00000000000E+00  0.00000000000E+00  0.74505805969E-08  0.10566000000E+00  0.10566000000E+00 0.  1.
     999900   -1    0    0    0    0 -0.00000000000E+00 -0.00000000000E+00 -0.74505805969E-08  0.93827000000E+00  0.93827000000E+00 0.  1.
     999902    2    1    2    0    0  0.16632099412E-01  0.15010762790E-01  0.78785035866E-02  0.10201808832E+01  0.10199044141E+01 0.  0.
     999903    2    3    3    0    0  0.12729798301E+00 -0.70604732209E-03  0.31751267577E-01  0.13278927585E+00  0.20483500838E-01 0.  0.
         14    1    1    2    0    0 -0.16632099412E-01 -0.15010762790E-01 -0.78785035866E-02  0.23749116808E-01  0.00000000000E+00 0.  1.
     999901    1    3    3    0    0 -0.11066588360E+00  0.15716810112E-01 -0.23872763990E-01  0.88739160734E+00  0.88000000000E+00 0.  1.
        -11    1    4    4    0    0  0.28344142072E-01 -0.68952025414E-02  0.12735203391E-01  0.31833641549E-01  0.51100000000E-03 0.  1.
         11    1    4    4    0    0  0.98953840943E-01  0.61891552193E-02  0.19016064186E-01  0.10095563430E+00  0.51100000000E-03 0. -1.
</event>
<event>
 8    1  0.1088021E+005  0.1043930E+01  0.7957747E-01            NaN
         13   -1    0    0    0    0  0.00000000000E+00  0.00000000000E+00  0.74505805969E-08  0.10566000000E+00  0.10566000000E+00 0. -1.
     999900   -1    0    0    0    0 -0.00000000000E+00 -0.00000000000E+00 -0.74505805969E-08  0.93827000000E+00  0.93827000000E+00 0. -1.
     999902    2    1    2    0    0  0.90502414568E-02 -0.20983912271E-01 -0.58367402928E-02  0.10203440088E+01  0.10200713687E+01 0.  0.
     999903    2    3    3    0    0 -0.26385602102E-01 -0.12496787649E+00 -0.31595400900E-01  0.13313948195E+00  0.20363745853E-01 0.  0.
         14    1    1    2    0    0 -0.90502414568E-02  0.20983912271E-01  0.58367402928E-02  0.23585991221E-01  0.00000000000E+00 0. -1.
     999901    1    3    3    0    0  0.35435843559E-01  0.10398396422E+00  0.25758660608E-01  0.88720452683E+00  0.88000000000E+00 0. -1.
        -11    1    4    4    0    0 -0.10406763632E-01 -0.83728949729E-01 -0.27397180346E-01  0.88711354199E-01  0.51100000000E-03 0. -1.
         11    1    4    4    0    0 -0.15978838470E-01 -0.41238926757E-01 -0.41982205547E-02  0.44428127754E-01  0.51100000000E-03 0.  1.
</event>
<event>
 8    1  0.1088021E+005  0.1043930E+01  0.7957747E-01            NaN
         13   -1    0    0    0    0  0.00000000000E+00  0.00000000000E+00  0.74505805969E-08  0.10566000000E+00  0.10566000000E+00 0. -1.
     999900   -1    0    0    0    0 -0.00000000000E+00 -0.00000000000E+00 -0.74505805969E-08  0.93827000000E+00  0.93827000000E+00 0. -1.
     999902    2    1    2    0    0 -0.11502806123E-01  0.14405119818E-01 -0.14154016541E-01  0.10206886960E+01  0.10204240570E+01 0.  0.
     999903    2    3    3    0    0 -0.57795628360E-01 -0.39034784203E-01  0.10726869491E+00  0.12954206187E+00  0.20261388157E-01 0.  0.
         14    1    1    2    0    0  0.11502806123E-01 -0.14405119818E-01  0.14154016541E-01  0.23241303963E-01  0.00000000000E+00 0. -1.
     999901    1    3    3    0    0  0.46292822238E-01  0.53439904021E-01 -0.12142271145E+00  0.89114663417E+00  0.88000000000E+00 0. -1.
        -11    1    4    4    0    0 -0.23925874061E-01 -0.72074049090E-02  0.48999184341E-01  0.55005229953E-01  0.51100000000E-03 0. -1.
         11    1    4    4    0    0 -0.33869754299E-01 -0.31827379294E-01  0.58269510569E-01  0.74536831915E-01  0.51100000000E-03 0.  1.
</event>
<event>
 8    1  0.1088021E+005  0.1043930E+01  0.7957747E-01            NaN
         13   -1    0    0    0    0  0.00000000000E+00  0.00000000000E+00  0.74505805969E-08  0.10566000000E+00  0.10566000000E+00 0. -1.
     999900   -1    0    0    0    0 -0.00000000000E+00 -0.00000000000E+00 -0.74505805969E-08  0.93827000000E+00  0.93827000000E+00 0. -1.
     999902    2    1    2    0    0  0.86945955143E-02  0.96673646530E-02 -0.21490207953E-01  0.10188126162E+01  0.10185029524E+01 0.  0.
     999903    2    3    3    0    0  0.68118689043E-01  0.72726730124E-01 -0.84463638661E-01  0.13231763064E+00  0.21083549305E-01 0.  0.
         14    1    1    2    0    0 -0.86945955143E-02 -0.96673646530E-02  0.21490207953E-01  0.25117383788E-01  0.00000000000E+00 0. -1.
     999901    1    3    3    0    0 -0.59424093529E-01 -0.63059365471E-01  0.62973430708E-01  0.88649498557E+00  0.88000000000E+00 0.  1.
        -11    1    4    4    0    0  0.49410265562E-01  0.37956951936E-01 -0.49538110671E-01  0.79601445170E-01  0.51100000000E-03 0.  1.
         11    1    4    4    0    0  0.18708423481E-01  0.34769778188E-01 -0.34925527990E-01  0.52716185472E-01  0.51100000000E-03 0. -1.
</event>
<event>
 8    1  0.1088021E+005  0.1043930E+01  0.7957747E-01            NaN
         13   -1    0    0    0    0  0.00000000000E+00  0.00000000000E+00  0.74505805969E-08  0.10566000000E+00  0.10566000000E+00 0.  1.
     999900   -1    0    0    0    0 -0.00000000000E+00 -0.00000000000E+00 -0.74505805969E-08  0.93827000000E+00  0.93827000000E+00 0. -1.
     999902    2    1    2    0    0  0.16725395622E-01  0.34066654127E-02 -0.15088855801E-01  0.10211480379E+01  0.10208938718E+01 0.  0.
     999903    2    3    3    0    0 -0.12196220990E+00  0.21626022243E-01  0.30626890589E-01  0.12892826320E+00  0.18493921779E-01 0.  0.
         14    1    1    2    0    0 -0.16725395622E-01 -0.34066654127E-02  0.15088855801E-01  0.22781962104E-01  0.00000000000E+00 0.  1.
     999901    1    3    3    0    0  0.13868760552E+00 -0.18219356830E-01 -0.45715746390E-01  0.89221977470E+00  0.88000000000E+00 0.  1.
        -11    1    4    4    0    0 -0.66671877312E-01  0.86901855559E-02  0.76554096961E-02  0.67672187551E-01  0.51100000000E-03 0.  1.
         11    1    4    4    0    0 -0.55290332589E-01  0.12935836687E-01  0.22971480893E-01  0.61256075649E-01  0.51100000000E-03 0. -1.
</event>
<event>
 8    1  0.1088021E+005  0.1043930E+01  0.7957747E-01            NaN
         13   -1    0    0    0    0  0.00000000000E+00  0.00000000000E+00  0.74505805969E-08  0.10566000000E+00  0.10566000000E+00 0.  1.
     999900   -1    0    0    0    0 -0.00000000000E+00 -0.00000000000E+00 -0.74505805969E-08  0.93827000000E+00  0.93827000000E+00 0. -1.
     999902    2    1    2    0    0 -0.95774594742E-02  0.49871089690E-02  0.24356214025E-01  0.10172874748E+01  0.10169385342E+01 0.  0.
     999903    2    3    3    0    0 -0.48571192534E-01  0.60915834775E-01 -0.97483240625E-01  0.12628052407E+00  0.19336206628E-01 0.  0.
         14    1    1    2    0    0  0.95774594742E-02 -0.49871089690E-02 -0.24356214025E-01  0.26642525170E-01  0.00000000000E+00 0. -1.
     999901    1    3    3    0    0  0.38993733060E-01 -0.55928725806E-01  0.12183945465E+00  0.89100695076E+00  0.88000000000E+00 0.  1.
        -11    1    4    4    0    0 -0.59173787497E-02  0.13272681193E-01 -0.29838290043E-01  0.33192832223E-01  0.51100000000E-03 0.  1.
         11    1    4    4    0    0 -0.42653813784E-01  0.47643153582E-01 -0.67644950582E-01  0.93087691849E-01  0.51100000000E-03 0. -1.
</event>
<event>
 8    1  0.1088021E+005  0.1043930E+01  0.7957747E-01            NaN
         13   -1    0    0    0    0  0.00000000000E+00  0.00000000000E+00  0.74505805969E-08  0.10566000000E+00  0.10566000000E+00 0. -1.
     999900   -1    0    0    0    0 -0.00000000000E+00 -0.00000000000E+00 -0.74505805969E-08  0.93827000000E+00  0.93827000000E+00 0.  1.
     999902    2    1    2    0    0  0.42657164301E-02  0.21554129834E-01 -0.88663033516E-02  0.10202363683E+01  0.10199612046E+01 0.  0.
     999903    2    3    3    0    0  0.64930163511E-01  0.96123973234E-01 -0.62845174858E-01  0.13335725855E+00  0.19465303521E-01 0.  0.
         14    1    1    2    0    0 -0.42657164301E-02 -0.21554129834E-01  0.88663033516E-02  0.23693631733E-01  0.00000000000E+00 0.  1.
     999901    1    3    3    0    0 -0.60664447081E-01 -0.74569843400E-01  0.53978871506E-01  0.88687910972E+00  0.88000000000E+00 0. -1.
        -11    1    4    4    0    0  0.13612665219E-01  0.16104489985E-01 -0.20065148465E-01  0.29112378054E-01  0.51100000000E-03 0. -1.
         11    1    4    4    0    0  0.51317498293E-01  0.80019483249E-01 -0.42780026393E-01  0.10424488050E+00  0.51100000000E-03 0.  1.
</event>
<event>
 8    1  0.1088021E+005  0.1043930E+01  0.7957747E-01            NaN
         13   -1    0    0    0    0  0.00000000000E+00  0.00000000000E+00  0.74505805969E-08  0.10566000000E+00  0.10566000000E+00 0.  1.
     999900   -1    0    0    0    0 -0.00000000000E+00 -0.00000000000E+00 -0.74505805969E-08  0.93827000000E+00  0.93827000000E+00 0. -1.
     999902    2    1    2    0    0  0.11195444599E-01  0.20400896893E-01 -0.11958179855E-02  0.10206284002E+01  0.10203623703E+01 0.  0.
     999903    2    3    3    0    0  0.11126047278E+00  0.62498927294E-01 -0.32780199279E-01  0.13339515735E+00  0.20849887854E-01 0.  0.
         14    1    1    2    0    0 -0.11195444599E-01 -0.20400896893E-01  0.11958179855E-02  0.23301599827E-01  0.00000000000E+00 0. -1.
     999901    1    3    3    0    0 -0.10006502818E+00 -0.42098030401E-01  0.31584381293E-01  0.88723324282E+00  0.88000000000E+00 0.  1.
        -11    1    4    4    0    0  0.43261960081E-01  0.33552629993E-01 -0.73733085357E-02  0.55244936142E-01  0.51100000000E-03 0.  1.
         11    1    4    4    0    0  0.67998512699E-01  0.28946297301E-01 -0.25406890743E-01  0.78150221209E-01  0.51100000000E-03 0. -1.
</event>
<event>
 8    1  0.1088021E+005  0.1043930E+01  0.7957747E-01            NaN
         13   -1    0    0    0    0  0.00000000000E+00  0.00000000000E+00  0.74505805969E-08  0.10566000000E+00  0.10566000000E+00 0.  1.
     999900   -1    0    0    0    0 -0.00000000000E+00 -0.00000000000E+00 -0.74505805969E-08  0.93827000000E+00  0.93827000000E+00 0. -1.
     999902    2    1    2    0    0 -0.23587960276E-01 -0.20006414374E-02 -0.31914094278E-02  0.10200431934E+01  0.10197634710E+01 0.  0.
     999903    2    3    3    0    0 -0.55300078586E-01 -0.11785607460E+00  0.58418225029E-02  0.13183728307E+00  0.19969709657E-01 0.  0.
         14    1    1    2    0    0  0.23587960276E-01  0.20006414374E-02  0.31914094278E-02  0.23886806615E-01  0.00000000000E+00 0.  1.
     999901    1    3    3    0    0  0.31712118310E-01  0.11585543317E+00 -0.90332319307E-02  0.88820591032E+00  0.88000000000E+00 0.  1.
        -11    1    4    4    0    0 -0.10667152578E-01 -0.11422911072E-01  0.50095390028E-02  0.16420342369E-01  0.51100000000E-03 0.  1.
         11    1    4    4    0    0 -0.44632926008E-01 -0.10643316353E+00  0.83228350010E-03  0.11541694070E+00  0.51100000000E-03 0. -1.
</event>
<event>
 8    1  0.1088021E+005  0.1043930E+01  0.7957747E-01            NaN
         13   -1    0    0    0    0  0.00000000000E+00  0.00000000000E+00  0.74505805969E-08  0.10566000000E+00  0.10566000000E+00 0. -1.
     999900   -1    0    0    0    0 -0.00000000000E+00 -0.00000000000E+00 -0.74505805969E-08  0.93827000000E+00  0.93827000000E+00 0. -1.
     999902    2    1    2    0    0  0.14146808352E-01  0.16827215220E-01  0.97951145897E-02  0.10198627686E+01  0.10195787538E+01 0.  0.
     999903    2    3    3    0    0  0.88165536301E-02 -0.20421035233E-02  0.12999923798E+00  0.13147462475E+00  0.17431961246E-01 0.  0.
         14    1    1    2    0    0 -0.14146808352E-01 -0.16827215220E-01 -0.97951145897E-02  0.24067231424E-01  0.00000000000E+00 0.  1.
     999901    1    3    3    0    0  0.53302547222E-02  0.18869318743E-01 -0.12020412339E+00  0.88838814382E+00  0.88000000000E+00 0. -1.
        -11    1    4    4    0    0 -0.38373904970E-02 -0.25427277984E-02  0.13185227122E-01  0.13975062281E-01  0.51100000000E-03 0.  1.
         11    1    4    4    0    0  0.12653944127E-01  0.50062427510E-03  0.11681401086E+00  0.11749956247E+00  0.51100000000E-03 0. -1.
</event>
<event>
 8    1  0.1088021E+005  0.1043930E+01  0.7957747E-01            NaN
         13   -1    0    0    0    0  0.00000000000E+00  0.00000000000E+00  0.74505805969E-08  0.10566000000E+00  0.10566000000E+00 0. -1.
     999900   -1    0    0    0    0 -0.00000000000E+00 -0.00000000000E+00 -0.74505805969E-08  0.93827000000E+00  0.93827000000E+00 0.  1.
     999902    2    1    2    0    0  0.24863539399E-01  0.61895704302E-02 -0.11817230784E-02  0.10182803832E+01  0.10179572859E+01 0.  0.
     999903    2    3    3    0    0 -0.50876119396E-03 -0.84667758734E-01 -0.94344915952E-01  0.12834881929E+00  0.20089002978E-01 0.  0.
         14    1    1    2    0    0 -0.24863539399E-01 -0.61895704302E-02  0.11817230784E-02  0.25649616819E-01  0.00000000000E+00 0. -1.
     999901    1    3    3    0    0  0.25372300592E-01  0.90857329164E-01  0.93163192873E-01  0.88993156389E+00  0.88000000000E+00 0. -1.
        -11    1    4    4    0    0  0.76165138561E-02 -0.19212726310E-01 -0.27893671021E-01  0.34719708230E-01  0.51100000000E-03 0.  1.
         11    1    4    4    0    0 -0.81252750501E-02 -0.65455032424E-01 -0.66451244931E-01  0.93629111061E-01  0.51100000000E-03 0. -1.
</event>
<event>
 8    1  0.1088021E+005  0.1043930E+01  0.7957747E-01            NaN
         13   -1    0    0    0    0  0.00000000000E+00  0.00000000000E+00  0.74505805969E-08  0.10566000000E+00  0.10566000000E+00 0.  1.
     999900   -1    0    0    0    0 -0.00000000000E+00 -0.00000000000E+00 -0.74505805969E-08  0.93827000000E+00  0.93827000000E+00 0. -1.
     999902    2    1    2    0    0  0.21052410421E-01  0.63384623103E-02  0.99399495896E-02  0.10198015378E+01  0.10195160587E+01 0.  0.
     999903    2    3    3    0    0 -0.88279871289E-01  0.54654860914E-01 -0.72444856615E-01  0.12790732970E+00  0.18208191688E-01 0.  0.
         14    1    1    2    0    0 -0.21052410421E-01 -0.63384623103E-02 -0.99399495896E-02  0.24128462173E-01  0.00000000000E+00 0. -1.
     999901    1    3    3    0    0  0.10933228171E+00 -0.48316398604E-01  0.82384806205E-01  0.89189420813E+00  0.88000000000E+00 0.  1.
        -11    1    4    4    0    0 -0.52374159064E-01  0.41573250044E-01 -0.41206345052E-01  0.78546875497E-01  0.51100000000E-03 0. -1.
         11    1    4    4    0    0 -0.35905712225E-01  0.13081610870E-01 -0.31238511563E-01  0.49360454202E-01  0.51100000000E-03 0.  1.
</event>
<event>
 8    1  0.1088021E+005  0.1043930E+01  0.7957747E-01            NaN
         13   -1    0    0    0    0  0.00000000000E+00  0.00000000000E+00  0.74505805969E-08  0.10566000000E+00  0.10566000000E+00 0. -1.
     999900   -1    0    0    0    0 -0.00000000000E+00 -0.00000000000E+00 -0.74505805969E-08  0.93827000000E+00  0.93827000000E+00 0. -1.
     999902    2    1    2    0    0  0.18547923607E-01  0.19515094114E-02 -0.14799209961E-01  0.10201213781E+01  0.10198435055E+01 0.  0.
     999903    2    3    3    0    0  0.87675789323E-01  0.96951944992E-01 -0.30374650082E-02  0.13223507730E+00  0.19752615136E-01 0.  0.
         14    1    1    2    0    0 -0.18547923607E-01 -0.19515094114E-02  0.14799209961E-01  0.23808621854E-01  0.00000000000E+00 0.  1.
     999901    1    3    3    0    0 -0.69127865715E-01 -0.95000435581E-01 -0.11761744953E-01  0.88788630084E+00  0.88000000000E+00 0. -1.
        -11    1    4    4    0    0  0.13692138017E-01  0.14419378439E-01  0.66487037980E-02  0.20972827688E-01  0.51100000000E-03 0. -1.
         11    1    4    4    0    0  0.73983651306E-01  0.82532566553E-01 -0.96861688062E-02  0.11126224962E+00  0.51100000000E-03 0.  1.
</event>
<event>
 8    1  0.1088021E+005  0.1043930E+01  0.7957747E-01            NaN
         13   -1    0    0    0    0  0.00000000000E+00  0.00000000000E+00  0.74505805969E-08  0.10566000000E+00  0.10566000000E+00 0.  1.
     999900   -1    0    0    0    0 -0.00000000000E+00 -0.00000000000E+00 -0.74505805969E-08  0.93827000000E+00  0.93827000000E+00 0. -1.
     999902    2    1    2    0    0 -0.82888329501E-02  0.22751637303E-01  0.43225044292E-02  0.10193327279E+01  0.10190359092E+01 0.  0.
     999903    2    3    3    0    0  0.40897426818E-03  0.83906746685E-01  0.99729703822E-01  0.13202323680E+00  0.21062094642E-01 0.  0.
         14    1    1    2    0    0  0.82888329501E-02 -0.22751637303E-01 -0.43225044292E-02  0.24597272129E-01  0.00000000000E+00 0. -1.
     999901    1    3    3    0    0 -0.86978072182E-02 -0.61155109382E-01 -0.95407199393E-01  0.88730949107E+00  0.88000000000E+00 0. -1.
        -11    1    4    4    0    0  0.27186467042E-02  0.22616665095E-01  0.14463831671E-01  0.26988296122E-01  0.51100000000E-03 0.  1.
         11    1    4    4    0    0 -0.23096724360E-02  0.61290081590E-01  0.85265872151E-01  0.10503494068E+00  0.51100000000E-03 0. -1.
</event>
<event>
 8    1  0.1088021E+005  0.1043930E+01  0.7957747E-01            NaN
         13   -1    0    0    0    0  0.00000000000E+00  0.00000000000E+00  0.74505805969E-08  0.10566000000E+00  0.10566000000E+00 0. -1.
     999900   -1    0    0    0    0 -0.00000000000E+00 -0.00000000000E+00 -0.74505805969E-08  0.93827000000E+00  0.93827000000E+00 0.  1.
     999902    2    1    2    0    0 -0.15463830013E-02  0.89695439280E-02  0.23753099184E-01  0.10184927490E+01  0.10181750468E+01 0.  0.
     999903    2    3    3    0    0  0.12550421861E+00  0.12416767498E-01 -0.13683863777E-01  0.12857406454E+00  0.20941751093E-01 0.  0.
         14    1    1    2    0    0  0.15463830013E-02 -0.89695439280E-02 -0.23753099184E-01  0.25437251021E-01  0.00000000000E+00 0.  1.
     999901    1    3    3    0    0 -0.12705060162E+00 -0.34472235705E-02  0.37436962961E-01  0.88991868444E+00  0.88000000000E+00 0. -1.
        -11    1    4    4    0    0  0.35556648994E-01 -0.58846692510E-02 -0.45012986706E-02  0.36323923668E-01  0.51100000000E-03 0.  1.
         11    1    4    4    0    0  0.89947569620E-01  0.18301436749E-01 -0.91825651065E-02  0.92250140870E-01  0.51100000000E-03 0. -1.
</event>
<event>
 8    1  0.1088021E+005  0.1043930E+01  0.7957747E-01            NaN
         13   -1    0    0    0    0  0.00000000000E+00  0.00000000000E+00  0.74505805969E-08  0.10566000000E+00  0.10566000000E+00 0. -1.
     999900   -1    0    0    0    0 -0.00000000000E+00 -0.00000000000E+00 -0.74505805969E-08  0.93827000000E+00  0.93827000000E+00 0. -1.
     999902    2    1    2    0    0 -0.18267132326E-01  0.36677223418E-02  0.13772960826E-01  0.10207603051E+01  0.10204973130E+01 0.  0.
     999903    2    3    3    0    0  0.81427647722E-01 -0.94119592920E-01 -0.26151804079E-01  0.12885481964E+00  0.20753026333E-01 0.  0.
         14    1    1    2    0    0  0.18267132326E-01 -0.36677223418E-02 -0.13772960826E-01  0.23169694873E-01  0.00000000000E+00 0. -1.
     999901    1    3    3    0    0 -0.99694780048E-01  0.97787315262E-01  0.39924764905E-01  0.89190548549E+00  0.88000000000E+00 0. -1.
        -11    1    4    4    0    0  0.11985538276E-01 -0.56629892954E-02  0.52037316378E-03  0.13276086952E-01  0.51100000000E-03 0. -1.
         11    1    4    4    0    0  0.69442109446E-01 -0.88456603625E-01 -0.26672177243E-01  0.11557873268E+00  0.51100000000E-03 0.  1.
</event>
<event>
 8    1  0.1088021E+005  0.1043930E+01  0.7957747E-01            NaN
         13   -1    0    0    0    0  0.00000000000E+00  0.00000000000E+00  0.74505805969E-08  0.10566000000E+00  0.10566000000E+00 0.  1.
     999900   -1    0    0    0    0 -0.00000000000E+00 -0.00000000000E+00 -0.74505805969E-08  0.93827000000E+00  0.93827000000E+00 0.  1.
     999902    2    1    2    0    0  0.32725744227E-01 -0.11123103760E-01  0.11792538940E-02  0.10093454888E+01  0.10087528079E+01 0.  0.
     999903    2    3    3    0    0 -0.31193389478E-01  0.11207570816E+00  0.12649632897E-01  0.11839365372E+00  0.17973650719E-01 0.  0.
         14    1    1    2    0    0 -0.32725744227E-01  0.11123103760E-01 -0.11792538940E-02  0.34584511161E-01  0.00000000000E+00 0. -1.
     999901    1    3    3    0    0  0.63919133705E-01 -0.12319881193E+00 -0.11470379003E-01  0.89095183512E+00  0.88000000000E+00 0.  1.
        -11    1    4    4    0    0 -0.19925629940E-01  0.55702660390E-01  0.14354524375E-01  0.60877997618E-01  0.51100000000E-03 0. -1.
         11    1    4    4    0    0 -0.11267759538E-01  0.56373047775E-01 -0.17048914779E-02  0.57515656098E-01  0.51100000000E-03 0.  1.
</event>
<event>
 8    1  0.1088021E+005  0.1043930E+01  0.7957747E-01            NaN
         13   -1    0    0    0    0  0.00000000000E+00  0.00000000000E+00  0.74505805969E-08  0.10566000000E+00  0.10566000000E+00 0. -1.
     999900   -1    0    0    0    0 -0.00000000000E+00 -0.00000000000E+00 -0.74505805969E-08  0.93827000000E+00  0.93827000000E+00 0.  1.
     999902    2    1    2    0    0  0.92307380717E-02  0.14753082777E-01  0.15880401913E-01  0.10203705615E+01  0.10200985421E+01 0.  0.
     999903    2    3    3    0    0 -0.11140437320E+00  0.46825178089E-01  0.46636498716E-01  0.13102957693E+00  0.19754881584E-01 0.  0.
         14    1    1    2    0    0 -0.92307380717E-02 -0.14753082777E-01 -0.15880401913E-01  0.23559438484E-01  0.00000000000E+00 0.  1.
     999901    1    3    3    0    0  0.12063511128E+00 -0.32072095313E-01 -0.30756096803E-01  0.88934098458E+00  0.88000000000E+00 0.  1.
        -11    1    4    4    0    0 -0.64976295333E-01  0.27765587758E-01  0.16769042209E-01  0.72624436083E-01  0.51100000000E-03 0. -1.
         11    1    4    4    0    0 -0.46428077871E-01  0.19059590331E-01  0.29867456507E-01  0.58405140849E-01  0.51100000000E-03 0.  1.
</event>
<event>
 8    1  0.1088021E+005  0.1043930E+01  0.7957747E-01            NaN
         13   -1    0    0    0    0  0.00000000000E+00  0.00000000000E+00  0.74505805969E-08  0.10566000000E+00  0.10566000000E+00 0. -1.
     999900   -1    0    0    0    0 -0.00000000000E+00 -0.00000000000E+00 -0.74505805969E-08  0.93827000000E+00  0.93827000000E+00 0. -1.
     999902    2    1    2    0    0 -0.14911138694E-01 -0.12419931526E-01  0.15077302818E-01  0.10193551792E+01  0.10190589088E+01 0.  0.
     999903    2    3    3    0    0 -0.59807006256E-02 -0.79337740407E-01  0.10375331172E+00  0.13232576571E+00  0.20374315822E-01 0.  0.
         14    1    1    2    0    0  0.14911138694E-01  0.12419931526E-01 -0.15077302818E-01  0.24574820783E-01  0.00000000000E+00 0.  1.
     999901    1    3    3    0    0 -0.89304380688E-02  0.66917808881E-01 -0.88676008903E-01  0.88702941351E+00  0.88000000000E+00 0. -1.
        -11    1    4    4    0    0  0.37834562071E-02 -0.82368142965E-02  0.20417184275E-01  0.22344623187E-01  0.51100000000E-03 0. -1.
         11    1    4    4    0    0 -0.97641568327E-02 -0.71100926110E-01  0.83336127445E-01  0.10998114252E+00  0.51100000000E-03 0.  1.
</event>
<event>
 8    1  0.1088021E+005  0.1043930E+01  0.7957747E-01            NaN
         13   -1    0    0    0    0  0.00000000000E+00  0.00000000000E+00  0.74505805969E-08  0.10566000000E+00  0.10566000000E+00 0.  1.
     999900   -1    0    0    0    0 -0.00000000000E+00 -0.00000000000E+00 -0.74505805969E-08  0.93827000000E+00  0.93827000000E+00 0.  1.
     999902    2    1    2    0    0 -0.55406965243E-02 -0.17774938451E-01 -0.14138353080E-01  0.10205517883E+01  0.10202839859E+01 0.  0.
     999903    2    3    3    0    0 -0.30216775562E-01 -0.58878588815E-02 -0.12759646348E+00  0.13284521833E+00  0.20476184555E-01 0.  0.
         14    1    1    2    0    0  0.55406965243E-02  0.17774938451E-01  0.14138353080E-01  0.23378211709E-01  0.00000000000E+00 0.  1.
     999901    1    3    3    0    0  0.24676079038E-01 -0.11887079570E-01  0.11345811040E+00  0.88770656996E+00  0.88000000000E+00 0. -1.
        -11    1    4    4    0    0  0.14700738136E-02 -0.22733694266E-02 -0.30927689304E-01  0.31050159617E-01  0.51100000000E-03 0.  1.
         11    1    4    4    0    0 -0.31686849376E-01 -0.36144894550E-02 -0.96668774172E-01  0.10179505871E+00  0.51100000000E-03 0. -1.
</event>
<event>
 8    1  0.1088021E+005  0.1043930E+01  0.7957747E-01            NaN
         13   -1    0    0    0    0  0.00000000000E+00  0.00000000000E+00  0.74505805969E-08  0.10566000000E+00  0.10566000000E+00 0. -1.
     999900   -1    0    0    0    0 -0.00000000000E+00 -0.00000000000E+00 -0.74505805969E-08  0.93827000000E+00  0.93827000000E+00 0.  1.
     999902    2    1    2    0    0  0.14389790551E-02 -0.95354230744E-02 -0.21390233042E-01  0.10204664746E+01  0.10201966912E+01 0.  0.
     999903    2    3    3    0    0 -0.61720731719E-02  0.35194035954E-02  0.12621410598E+00  0.12804538706E+00  0.20374982438E-01 0.  0.
         14    1    1    2    0    0 -0.14389790551E-02  0.95354230744E-02  0.21390233042E-01  0.23463525386E-01  0.00000000000E+00 0. -1.
     999901    1    3    3    0    0  0.76110522270E-02 -0.13054826670E-01 -0.14760433902E+00  0.89242108756E+00  0.88000000000E+00 0.  1.
        -11    1    4    4    0    0  0.32734128062E-02 -0.67932323686E-02  0.47323821236E-01  0.47923568469E-01  0.51100000000E-03 0.  1.
         11    1    4    4    0    0 -0.94454859781E-02  0.10312635964E-01  0.78890284746E-01  0.80121818590E-01  0.51100000000E-03 0. -1.
</event>
<event>
 8    1  0.1088021E+005  0.1043930E+01  0.7957747E-01            NaN
         13   -1    0    0    0    0  0.00000000000E+00  0.00000000000E+00  0.74505805969E-08  0.10566000000E+00  0.10566000000E+00 0.  1.
     999900   -1    0    0    0    0 -0.00000000000E+00 -0.00000000000E+00 -0.74505805969E-08  0.93827000000E+00  0.93827000000E+00 0.  1.
     999902    2    1    2    0    0 -0.29750458723E-02  0.23146659927E-01  0.45561119189E-02  0.10201523441E+01  0.10198752023E+01 0.  0.
     999903    2    3    3    0    0 -0.84289257352E-01  0.94545140634E-01  0.35488820016E-01  0.13298461675E+00  0.19544549739E-01 0.  0.
         14    1    1    2    0    0  0.29750458723E-02 -0.23146659927E-01 -0.45561119189E-02  0.23777655888E-01  0.00000000000E+00 0. -1.
     999901    1    3    3    0    0  0.81314211479E-01 -0.71398480707E-01 -0.30932708097E-01  0.88716772736E+00  0.88000000000E+00 0. -1.
        -11    1    4    4    0    0 -0.68705082708E-01  0.64379057426E-01  0.27689113158E-01  0.98142750794E-01  0.51100000000E-03 0.  1.
         11    1    4    4    0    0 -0.15584174644E-01  0.30166083208E-01  0.77997068581E-02  0.34841865959E-01  0.51100000000E-03 0. -1.
</event>
<event>
 8    1  0.1088021E+005  0.1043930E+01  0.7957747E-01            NaN
         13   -1    0    0    0    0  0.00000000000E+00  0.00000000000E+00  0.74505805969E-08  0.10566000000E+00  0.10566000000E+00 0.  1.
     999900   -1    0    0    0    0 -0.00000000000E+00 -0.00000000000E+00 -0.74505805969E-08  0.93827000000E+00  0.93827000000E+00 0.  1.
     999902    2    1    2    0    0  0.91249410601E-02 -0.20680688526E-01 -0.67021881386E-02  0.10203530037E+01  0.10200805740E+01 0.  0.
     999903    2    3    3    0    0  0.72806358705E-01 -0.14600718071E-02 -0.10808367027E+00  0.13203832977E+00  0.21192995788E-01 0.  0.
         14    1    1    2    0    0 -0.91249410601E-02  0.20680688526E-01  0.67021881386E-02  0.23576996270E-01  0.00000000000E+00 0. -1.
     999901    1    3    3    0    0 -0.63681417645E-01 -0.19220616719E-01  0.10138148213E+00  0.88831467396E+00  0.88000000000E+00 0. -1.
        -11    1    4    4    0    0  0.25700476381E-01 -0.61657060920E-02 -0.54254862190E-01  0.60352146690E-01  0.51100000000E-03 0.  1.
         11    1    4    4    0    0  0.47105882324E-01  0.47056342849E-02 -0.53828808082E-01  0.71686183076E-01  0.51100000000E-03 0. -1.
</event>
<event>
 7    1  0.1088021E+005  0.1043930E+01  0.7957747E-01            NaN
         13   -1    0    0    0    0  0.00000000000E+00  0.00000000000E+00  0.74505805969E-08  0.10566000000E+00  0.10566000000E+00 0.  1.
     999900   -1    0    0    0    0 -0.00000000000E+00 -0.00000000000E+00 -0.74505805969E-08  0.93827000000E+00  0.93827000000E+00 0. -1.
     999903    2    1    2    0    0  0.68009680383E-01  0.33615108405E-01  0.14788888845E-01  0.79857853728E-01  0.20081669001E-01 0.  0.
         14    1    1    2    0    0 -0.46714052858E-01 -0.10023887797E-01 -0.66612226241E-01  0.81974811654E-01  0.00000000000E+00 0. -1.
     999901    1    1    2    0    0 -0.21295627525E-01 -0.23591220608E-01  0.51823337396E-01  0.88209733462E+00  0.88000000000E+00 0.  1.
        -11    1    3    3    0    0  0.48787087389E-01  0.22887734373E-01  0.19553350090E-01  0.57329075532E-01  0.51100000000E-03 0.  1.
         11    1    3    3    0    0  0.19222592994E-01  0.10727374032E-01 -0.47644612450E-02  0.22528778195E-01  0.51100000000E-03 0. -1.
</event>
<event>
 8    1  0.1088021E+005  0.1043930E+01  0.7957747E-01            NaN
         13   -1    0    0    0    0  0.00000000000E+00  0.00000000000E+00  0.74505805969E-08  0.10566000000E+00  0.10566000000E+00 0. -1.
     999900   -1    0    0    0    0 -0.00000000000E+00 -0.00000000000E+00 -0.74505805969E-08  0.93827000000E+00  0.93827000000E+00 0.  1.
     999902    2    1    2    0    0 -0.13124839800E-02  0.10299078710E-01 -0.22059511328E-01  0.10195493586E+01  0.10192578079E+01 0.  0.
     999903    2    3    3    0    0  0.91515136292E-01  0.87290126767E-01 -0.29295975328E-01  0.13129435297E+00  0.19630755194E-01 0.  0.
         14    1    1    2    0    0  0.13124839800E-02 -0.10299078710E-01  0.22059511328E-01  0.24380641429E-01  0.00000000000E+00 0. -1.
     999901    1    3    3    0    0 -0.92827620272E-01 -0.76991048057E-01  0.72364639995E-02  0.88825500560E+00  0.88000000000E+00 0. -1.
        -11    1    4    4    0    0  0.91645956683E-02  0.94772113174E-02  0.29018566254E-02  0.13508857872E-01  0.51100000000E-03 0.  1.
         11    1    4    4    0    0  0.82350540624E-01  0.77812915449E-01 -0.32197831953E-01  0.11778549510E+00  0.51100000000E-03 0. -1.
</event>
<event>
 8    1  0.1088021E+005  0.1043930E+01  0.7957747E-01            NaN
         13   -1    0    0    0    0  0.00000000000E+00  0.00000000000E+00  0.74505805969E-08  0.10566000000E+00  0.10566000000E+00 0.  1.
     999900   -1    0    0    0    0 -0.00000000000E+00 -0.00000000000E+00 -0.74505805969E-08  0.93827000000E+00  0.93827000000E+00 0.  1.
     999902    2    1    2    0    0 -0.35304731262E-02 -0.16376116743E-01  0.15663601031E-01  0.10209955317E+01  0.10207379124E+01 0.  0.
     999903    2    3    3    0    0  0.11869522504E+00 -0.50308522120E-01  0.19655207961E-01  0.13189122826E+00  0.19734868807E-01 0.  0.
         14    1    1    2    0    0  0.35304731262E-02  0.16376116743E-01 -0.15663601031E-01  0.22934468324E-01  0.00000000000E+00 0. -1.
     999901    1    3    3    0    0 -0.12222569817E+00  0.33932405377E-01 -0.39916069308E-02  0.88910430342E+00  0.88000000000E+00 0.  1.
        -11    1    4    4    0    0  0.10004399858E+00 -0.39847075971E-01  0.23330294248E-01  0.11018690878E+00  0.51100000000E-03 0. -1.
         11    1    4    4    0    0  0.18651226456E-01 -0.10461446148E-01 -0.36750862861E-02  0.21704319479E-01  0.51100000000E-03 0.  1.
</event>
<event>
 8    1  0.1088021E+005  0.1043930E+01  0.7957747E-01            NaN
         13   -1    0    0    0    0  0.00000000000E+00  0.00000000000E+00  0.74505805969E-08  0.10566000000E+00  0.10566000000E+00 0.  1.
     999900   -1    0    0    0    0 -0.00000000000E+00 -0.00000000000E+00 -0.74505805969E-08  0.93827000000E+00  0.93827000000E+00 0.  1.
     999902    2    1    2    0    0 -0.21101811085E-01  0.72889622615E-02 -0.58429030571E-02  0.10208528486E+01  0.10205919770E+01 0.  0.
     999903    2    3    3    0    0 -0.57033739380E-01 -0.86492989275E-01 -0.79420837924E-01  0.13208973592E+00  0.20153020083E-01 0.  0.
         14    1    1    2    0    0  0.21101811085E-01 -0.72889622615E-02  0.58429030571E-02  0.23077151428E-01  0.00000000000E+00 0.  1.
     999901    1    3    3    0    0  0.35931928295E-01  0.93781951537E-01  0.73577934867E-01  0.88876311265E+00  0.88000000000E+00 0.  1.
        -11    1    4    4    0    0 -0.35883236184E-01 -0.68138978349E-01 -0.52221263584E-01  0.93047560424E-01  0.51100000000E-03 0.  1.
         11    1    4    4    0    0 -0.21150503196E-01 -0.18354010926E-01 -0.27199574340E-01  0.39042175500E-01  0.51100000000E-03 0. -1.
</event>
<event>
 8    1  0.1088021E+005  0.1043930E+01  0.7957747E-01            NaN
         13   -1    0    0    0    0  0.00000000000E+00  0.00000000000E+00  0.74505805969E-08  0.10566000000E+00  0.10566000000E+00 0.  1.
     999900   -1    0    0    0    0 -0.00000000000E+00 -0.00000000000E+00 -0.74505805969E-08  0.93827000000E+00  0.93827000000E+00 0. -1.
     999902    2    1    2    0    0  0.11871983568E-01  0.23901967423E-01 -0.23438687779E-02  0.10171392971E+01  0.10167864122E+01 0.  0.
     999903    2    3    3    0    0 -0.11945633487E+00 -0.23428520283E-01 -0.24649944986E-01  0.12585659037E+00  0.20335930026E-01 0.  0.
         14    1    1    2    0    0 -0.11871983568E-01 -0.23901967423E-01  0.23438687779E-02  0.26790702891E-01  0.00000000000E+00 0. -1.
     999901    1    3    3    0    0  0.13132831844E+00  0.47330487706E-01  0.22306076208E-01  0.89128270674E+00  0.88000000000E+00 0.  1.
        -11    1    4    4    0    0 -0.46724774763E-01 -0.83380899291E-02 -0.19756978330E-01  0.51413302112E-01  0.51100000000E-03 0.  1.
         11    1    4    4    0    0 -0.72731560105E-01 -0.15090430354E-01 -0.48929666558E-02  0.74443288262E-01  0.51100000000E-03 0. -1.
</event>
<event>
 8    1  0.1088021E+005  0.1043930E+01  0.7957747E-01            NaN
         13   -1    0    0    0    0  0.00000000000E+00  0.00000000000E+00  0.74505805969E-08  0.10566000000E+00  0.10566000000E+00 0. -1.
     999900   -1    0    0    0    0 -0.00000000000E+00 -0.00000000000E+00 -0.74505805969E-08  0.93827000000E+00  0.93827000000E+00 0.  1.
     999902    2    1    2    0    0  0.89529091049E-03  0.24403446833E-01  0.24258321145E-02  0.10193899424E+01  0.10190945198E+01 0.  0.
     999903    2    3    3    0    0  0.67498854085E-01 -0.98069467996E-01  0.42214719551E-01  0.12752739415E+00  0.17533905910E-01 0.  0.
         14    1    1    2    0    0 -0.89529091049E-03 -0.24403446833E-01 -0.24258321145E-02  0.24540057550E-01  0.00000000000E+00 0.  1.
     999901    1    3    3    0    0 -0.66603563174E-01  0.12247291483E+00 -0.39788887437E-01  0.89186254830E+00  0.88000000000E+00 0. -1.
        -11    1    4    4    0    0  0.87203986001E-02 -0.22407635310E-01  0.13117468857E-01  0.27394827653E-01  0.51100000000E-03 0. -1.
         11    1    4    4    0    0  0.58778455485E-01 -0.75661832686E-01  0.29097250695E-01  0.10013256650E+00  0.51100000000E-03 0.  1.
</event>
<event>
 8    1  0.1088021E+005  0.1043930E+01  0.7957747E-01            NaN
         13   -1    0    0    0    0  0.00000000000E+00  0.00000000000E+00  0.74505805969E-08  0.10566000000E+00  0.10566000000E+00 0. -1.
     999900   -1    0    0    0    0 -0.00000000000E+00 -0.00000000000E+00 -0.74505805969E-08  0.93827000000E+00  0.93827000000E+00 0. -1.
     999902    2    1    2    0    0 -0.96222957278E-02  0.41102693048E-03 -0.23487066528E-01  0.10185449687E+01  0.10182285861E+01 0.  0.
     999903    2    3    3    0    0  0.15936331005E-01  0.11198034169E+00  0.55617887883E-01  0.12761368676E+00  0.19958457451E-01 0.  0.
         14    1    1    2    0    0  0.96222957278E-02 -0.41102693048E-03  0.23487066528E-01  0.25385031264E-01  0.00000000000E+00 0. -1.
     999901    1    3    3    0    0 -0.25558626733E-01 -0.11156931476E+00 -0.79104954411E-01  0.89093128198E+00  0.88000000000E+00 0.  1.
        -11    1    4    4    0    0 -0.24558600613E-02  0.50833531344E-01  0.27391892482E-01  0.57798408735E-01  0.51100000000E-03 0.  1.
         11    1    4    4    0    0  0.18392191066E-01  0.61146810347E-01  0.28225995401E-01  0.69815278022E-01  0.51100000000E-03 0. -1.
</event>
<event>
 8    1  0.1088021E+005  0.1043930E+01  0.7957747E-01            NaN
         13   -1    0    0    0    0  0.00000000000E+00  0.00000000000E+00  0.74505805969E-08  0.10566000000E+00  0.10566000000E+00 0. -1.
     999900   -1    0    0    0    0 -0.00000000000E+00 -0.00000000000E+00 -0.74505805969E-08  0.93827000000E+00  0.93827000000E+00 0. -1.
     999902    2    1    2    0    0  0.21101431587E-01  0.21049729143E-02  0.12100462853E-01  0.10195143794E+01  0.10192219814E+01 0.  0.
     999903    2    3    3    0    0  0.68069003305E-01 -0.50519355327E-01  0.99739327097E-01  0.13235270126E+00  0.19588509040E-01 0.  0.
         14    1    1    2    0    0 -0.21101431587E-01 -0.21049729143E-02 -0.12100462853E-01  0.24415620558E-01  0.00000000000E+00 0.  1.
     999901    1    3    3    0    0 -0.46967571718E-01  0.52624328242E-01 -0.87638864244E-01  0.88716167819E+00  0.88000000000E+00 0. -1.
        -11    1    4    4    0    0  0.25279403506E-01 -0.18524556680E-01  0.23145917231E-01  0.38964112299E-01  0.51100000000E-03 0. -1.
         11    1    4    4    0    0  0.42789599799E-01 -0.31994798648E-01  0.76593409867E-01  0.93388588957E-01  0.51100000000E-03 0.  1.
</event>
<event>
 8    1  0.1088021E+005  0.1043930E+01  0.7957747E-01            NaN
         13   -1    0    0    0    0  0.00000000000E+00  0.00000000000E+00  0.74505805969E-08  0.10566000000E+00  0.10566000000E+00 0.  1.
     999900   -1    0    0    0    0 -0.00000000000E+00 -0.00000000000E+00 -0.74505805969E-08  0.93827000000E+00  0.93827000000E+00 0. -1.
     999902    2    1    2    0    0 -0.17705406854E-01  0.88925409307E-02  0.40609859830E-02  0.10237050075E+01  0.10235051988E+01 0.  0.
     999903    2    3    3    0    0 -0.96571126985E-01  0.92162154325E-01  0.17585437190E-01  0.13615977419E+00  0.20258115620E-01 0.  0.
         14    1    1    2    0    0  0.17705406854E-01 -0.88925409307E-02 -0.40609859830E-02  0.20224992539E-01  0.00000000000E+00 0. -1.
     999901    1    3    3    0    0  0.78865720131E-01 -0.83269613394E-01 -0.13524451207E-01  0.88754523327E+00  0.88000000000E+00 0.  1.
        -11    1    4    4    0    0 -0.61319446195E-01  0.62329088210E-01  0.21459571916E-02  0.87463455066E-01  0.51100000000E-03 0.  1.
         11    1    4    4    0    0 -0.35251680790E-01  0.29833066115E-01  0.15439479998E-01  0.48696319121E-01  0.51100000000E-03 0. -1.
</event>
<event>
 8    1  0.1088021E+005  0.1043930E+01  0.7957747E-01            NaN
         13   -1    0    0    0    0  0.00000000000E+00  0.00000000000E+00  0.74505805969E-08  0.10566000000E+00  0.10566000000E+00 0.  1.
     999900   -1    0    0    0    0 -0.00000000000E+00 -0.00000000000E+00 -0.74505805969E-08  0.93827000000E+00  0.93827000000E+00 0. -1.
     999902    2    1    2    0    0  0.19179091222E-01  0.11984929139E-01 -0.63119950376E-02  0.10204498520E+01  0.10201796818E+01 0.  0.
     999903    2    3    3    0    0 -0.10360650199E+00  0.28172144664E-01  0.68141237373E-01  0.12866422104E+00  0.19577450201E-01 0.  0.
         14    1    1    2    0    0 -0.19179091222E-01 -0.11984929139E-01  0.63119950376E-02  0.23480147954E-01  0.00000000000E+00 0.  1.
     999901    1    3    3    0    0  0.12278559321E+00 -0.16187215525E-01 -0.74453232410E-01  0.89178563100E+00  0.88000000000E+00 0. -1.
        -11    1    4    4    0    0 -0.71731773167E-01  0.28557744934E-01  0.49957029782E-01  0.91961720422E-01  0.51100000000E-03 0.  1.
         11    1    4    4    0    0 -0.31874728824E-01 -0.38560027038E-03  0.18184207591E-01  0.36702500621E-01  0.51100000000E-03 0. -1.
</event>
<event>
 8    1  0.1088021E+005  0.1043930E+01  0.7957747E-01            NaN
         13   -1    0    0    0    0  0.00000000000E+00  0.00000000000E+00  0.74505805969E-08  0.10566000000E+00  0.10566000000E+00 0. -1.
     999900   -1    0    0    0    0 -0.00000000000E+00 -0.00000000000E+00 -0.74505805969E-08  0.93827000000E+00  0.93827000000E+00 0.  1.
     999902    2    1    2    0    0  0.18276316957E-01 -0.23666806003E-02 -0.14136886357E-01  0.10207033667E+01  0.10204390655E+01 0.  0.
     999903    2    3    3    0    0 -0.34446305455E-02  0.98743319177E-01 -0.85068293143E-01  0.13181288071E+00  0.19388462062E-01 0.  0.
         14    1    1    2    0    0 -0.18276316957E-01  0.23666806003E-02  0.14136886357E-01  0.23226633300E-01  0.00000000000E+00 0.  1.
     999901    1    3    3    0    0  0.21720947502E-01 -0.10110999978E+00  0.70931406786E-01  0.88889048599E+00  0.88000000000E+00 0. -1.
        -11    1    4    4    0    0  0.12417177049E-02  0.26799177259E-01 -0.34694301559E-01  0.43859929848E-01  0.51100000000E-03 0. -1.
         11    1    4    4    0    0 -0.46863482504E-02  0.71944141917E-01 -0.50373991585E-01  0.87952950862E-01  0.51100000000E-03 0.  1.
</event>
<event>
 8    1  0.1088021E+005  0.1043930E+01  0.7957747E-01            NaN
         13   -1    0    0    0    0  0.00000000000E+00  0.00000000000E+00  0.74505805969E-08  0.10566000000E+00  0.10566000000E+00 0.  1.
     999900   -1    0    0    0    0 -0.00000000000E+00 -0.00000000000E+00 -0.74505805969E-08  0.93827000000E+00  0.93827000000E+00 0.  1.
     999902    2    1    2    0    0 -0.13114568434E-01 -0.19521180683E-01 -0.55162447782E-02  0.10197743101E+01  0.10194881785E+01 0.  0.
     999903    2    3    3    0    0 -0.11217097910E+00  0.52966351145E-01  0.34399588400E-01  0.13035883430E+00  0.20550695687E-01 0.  0.
         14    1    1    2    0    0  0.13114568434E-01  0.19521180683E-01  0.55162447782E-02  0.24155689949E-01  0.00000000000E+00 0.  1.
     999901    1    3    3    0    0  0.99056410663E-01 -0.72487531828E-01 -0.39915833178E-01  0.88941547575E+00  0.88000000000E+00 0. -1.
        -11    1    4    4    0    0 -0.77545515944E-01  0.41330565153E-01  0.32788035641E-01  0.93791465822E-01  0.51100000000E-03 0.  1.
         11    1    4    4    0    0 -0.34625463153E-01  0.11635785991E-01  0.16115527587E-02  0.36567368479E-01  0.51100000000E-03 0. -1.
</event>
<event>
 8    1  0.1088021E+005  0.1043930E+01  0.7957747E-01            NaN
         13   -1    0    0    0    0  0.00000000000E+00  0.00000000000E+00  0.74505805969E-08  0.10566000000E+00  0.10566000000E+00 0.  1.
     999900   -1    0    0    0    0 -0.00000000000E+00 -0.00000000000E+00 -0.74505805969E-08  0.93827000000E+00  0.93827000000E+00 0. -1.
     999902    2    1    2    0    0 -0.51749871027E-02  0.97799256527E-02 -0.21327654245E-01  0.10199030095E+01  0.10196199549E+01 0.  0.
     999903    2    3    3    0    0  0.20879459471E-01 -0.17988219481E-01  0.12257611656E+00  0.12740191743E+00  0.21138030806E-01 0.  0.
         14    1    1    2    0    0  0.51749871027E-02 -0.97799256527E-02  0.21327654245E-01  0.24026990508E-01  0.00000000000E+00 0.  1.
     999901    1    3    3    0    0 -0.26054446574E-01  0.27768145133E-01 -0.14390377081E+00  0.89250109206E+00  0.88000000000E+00 0. -1.
        -11    1    4    4    0    0  0.91875666954E-02 -0.19785651381E-01  0.93394033287E-01  0.95909279827E-01  0.51100000000E-03 0.  1.
         11    1    4    4    0    0  0.11691892776E-01  0.17974319008E-02  0.29182083276E-01  0.31492637607E-01  0.51100000000E-03 0. -1.
</event>
<event>
 8    1  0.1088021E+005  0.1043930E+01  0.7957747E-01            NaN
         13   -1    0    0    0    0  0.00000000000E+00  0.00000000000E+00  0.74505805969E-08  0.10566000000E+00  0.10566000000E+00 0. -1.
     999900   -1    0    0    0    0 -0.00000000000E+00 -0.00000000000E+00 -0.74505805969E-08  0.93827000000E+00  0.93827000000E+00 0.  1.
     999902    2    1    2    0    0  0.19277291708E-01 -0.12487760317E-01 -0.19431744036E-02  0.10208793154E+01  0.10206190487E+01 0.  0.
     999903    2    3    3    0    0  0.11374004707E+00  0.64848507893E-01  0.26772276685E-02  0.13243941387E+00  0.19771280037E-01 0.  0.
         14    1    1    2    0    0 -0.19277291708E-01  0.12487760317E-01  0.19431744036E-02  0.23050684590E-01  0.00000000000E+00 0. -1.
     999901    1    3    3    0    0 -0.94462755365E-01 -0.77336268210E-01 -0.46204020722E-02  0.88843990154E+00  0.88000000000E+00 0.  1.
        -11    1    4    4    0    0  0.31433654838E-01  0.13182551634E-01 -0.69249534971E-02  0.34786066549E-01  0.51100000000E-03 0.  1.
         11    1    4    4    0    0  0.82306392235E-01  0.51665956259E-01  0.96021811656E-02  0.97653347321E-01  0.51100000000E-03 0. -1.
</event>
<event>
 8    1  0.1088021E+005  0.1043930E+01  0.7957747E-01            NaN
         13   -1    0    0    0    0  0.00000000000E+00  0.00000000000E+00  0.74505805969E-08  0.10566000000E+00  0.10566000000E+00 0. -1.
     999900   -1    0    0    0    0 -0.00000000000E+00 -0.00000000000E+00 -0.74505805969E-08  0.93827000000E+00  0.93827000000E+00 0. -1.
     999902    2    1    2    0    0  0.32792391792E-02 -0.57647042904E-02 -0.22294627751E-01  0.10206698269E+01  0.10204047530E+01 0.  0.
     999903    2    3    3    0    0  0.93550409003E-01  0.67739258860E-01  0.55397169558E-01  0.12960993439E+00  0.19738350558E-01 0.  0.
         14    1    1    2    0    0 -0.32792391792E-02  0.57647042904E-02  0.22294627751E-01  0.23260173080E-01  0.00000000000E+00 0. -1.
     999901    1    3    3    0    0 -0.90271169824E-01 -0.73503963151E-01 -0.77691797309E-01  0.89105989253E+00  0.88000000000E+00 0. -1.
        -11    1    4    4    0    0  0.42755756991E-01  0.23808755526E-01  0.32086235806E-01  0.58520929972E-01  0.51100000000E-03 0.  1.
         11    1    4    4    0    0  0.50794652013E-01  0.43930503334E-01  0.23310933752E-01  0.71089004422E-01  0.51100000000E-03 0. -1.
</event>
<event>
 8    1  0.1088021E+005  0.1043930E+01  0.7957747E-01            NaN
         13   -1    0    0    0    0  0.00000000000E+00  0.00000000000E+00  0.74505805969E-08  0.10566000000E+00  0.10566000000E+00 0.  1.
     999900   -1    0    0    0    0 -0.00000000000E+00 -0.00000000000E+00 -0.74505805969E-08  0.93827000000E+00  0.93827000000E+00 0.  1.
     999902    2    1    2    0    0  0.22637445837E-01 -0.69470420517E-02 -0.16322398608E-02  0.10201943822E+01  0.10199182310E+01 0.  0.
     999903    2    3    3    0    0  0.13040522209E+00 -0.20285181972E-01 -0.49418611772E-02  0.13351363174E+00  0.19607583047E-01 0.  0.
         14    1    1    2    0    0 -0.22637445837E-01  0.69470420517E-02  0.16322398608E-02  0.23735617841E-01  0.00000000000E+00 0. -1.
     999901    1    3    3    0    0 -0.10776777625E+00  0.13338139920E-01  0.33096213164E-02  0.88668075042E+00  0.88000000000E+00 0. -1.
        -11    1    4    4    0    0  0.42075580896E-01 -0.77155974308E-02 -0.10729330661E-01  0.44105153994E-01  0.51100000000E-03 0.  1.
         11    1    4    4    0    0  0.88329641191E-01 -0.12569584541E-01  0.57874694840E-02  0.89408477744E-01  0.51100000000E-03 0. -1.
</event>
<event>
 8    1  0.1088021E+005  0.1043930E+01  0.7957747E-01            NaN
         13   -1    0    0    0    0  0.00000000000E+00  0.00000000000E+00  0.74505805969E-08  0.10566000000E+00  0.10566000000E+00 0.  1.
     999900   -1    0    0    0    0 -0.00000000000E+00 -0.00000000000E+00 -0.74505805969E-08  0.93827000000E+00  0.93827000000E+00 0.  1.
     999902    2    1    2    0    0  0.94584236301E-02  0.20001778447E-01  0.94423458061E-02  0.10198740067E+01  0.10195902602E+01 0.  0.
     999903    2    3    3    0    0  0.82042696217E-01 -0.58774988737E-01 -0.77452102971E-01  0.12912999135E+00  0.22140982561E-01 0.  0.
         14    1    1    2    0    0 -0.94584236301E-02 -0.20001778447E-01 -0.94423458061E-02  0.24055993285E-01  0.00000000000E+00 0. -1.
     999901    1    3    3    0    0 -0.72584272586E-01  0.78776767184E-01  0.86894448777E-01  0.89074401536E+00  0.88000000000E+00 0. -1.
        -11    1    4    4    0    0  0.45447924171E-01 -0.20780203277E-01 -0.44595209289E-01  0.66980030399E-01  0.51100000000E-03 0. -1.
         11    1    4    4    0    0  0.36594772045E-01 -0.37994785461E-01 -0.32856893682E-01  0.62149960955E-01  0.51100000000E-03 0.  1.
</event>
<event>
 8    1  0.1088021E+005  0.1043930E+01  0.7957747E-01            NaN
         13   -1    0    0    0    0  0.00000000000E+00  0.00000000000E+00  0.74505805969E-08  0.10566000000E+00  0.10566000000E+00 0. -1.
     999900   -1    0    0    0    0 -0.00000000000E+00 -0.00000000000E+00 -0.74505805969E-08  0.93827000000E+00  0.93827000000E+00 0. -1.
     999902    2    1    2    0    0 -0.10746434544E-01  0.18503210171E-01  0.99808424093E-02  0.10203191581E+01  0.10200459364E+01 0.  0.
     999903    2    3    3    0    0 -0.44007978178E-01  0.12114125278E+00 -0.26396997152E-01  0.13298368301E+00  0.19389513133E-01 0.  0.
         14    1    1    2    0    0  0.10746434544E-01 -0.18503210171E-01 -0.99808424093E-02  0.23610841942E-01  0.00000000000E+00 0.  1.
     999901    1    3    3    0    0  0.33261543634E-01 -0.10263804261E+00  0.36377839562E-01  0.88733547505E+00  0.88000000000E+00 0. -1.
        -11    1    4    4    0    0 -0.19842361538E-01  0.69271824867E-01 -0.23069672253E-01  0.75662249046E-01  0.51100000000E-03 0. -1.
         11    1    4    4    0    0 -0.24165616640E-01  0.51869427909E-01 -0.33273248995E-02  0.57321433960E-01  0.51100000000E-03 0.  1.
</event>
<event>
 8    1  0.1088021E+005  0.1043930E+01  0.7957747E-01            NaN
         13   -1    0    0    0    0  0.00000000000E+00  0.00000000000E+00  0.74505805969E-08  0.10566000000E+00  0.10566000000E+00 0. -1.
     999900   -1    0    0    0    0 -0.00000000000E+00 -0.00000000000E+00 -0.74505805969E-08  0.93827000000E+00  0.93827000000E+00 0.  1.
     999902    2    1    2    0    0  0.12408144346E-01 -0.11097895965E-01  0.15441933258E-01  0.10212236431E+01  0.10209711801E+01 0.  0.
     999903    2    3    3    0    0  0.61465981242E-01 -0.76893019340E-01  0.89307413012E-01  0.13432354798E+00  0.19400985806E-01 0.  0.
         14    1    1    2    0    0 -0.12408144346E-01  0.11097895965E-01 -0.15441933258E-01  0.22706356900E-01  0.00000000000E+00 0.  1.
     999901    1    3    3    0    0 -0.49057836896E-01  0.65795123375E-01 -0.73865479754E-01  0.88690009512E+00  0.88000000000E+00 0.  1.
        -11    1    4    4    0    0  0.31018648175E-01 -0.24381700152E-01  0.39090466616E-01  0.55542322046E-01  0.51100000000E-03 0.  1.
         11    1    4    4    0    0  0.30447333066E-01 -0.52511319187E-01  0.50216946396E-01  0.78781225936E-01  0.51100000000E-03 0. -1.
</event>
<event>
 8    1  0.1088021E+005  0.1043930E+01  0.7957747E-01            NaN
         13   -1    0    0    0    0  0.00000000000E+00  0.00000000000E+00  0.74505805969E-08  0.10566000000E+00  0.10566000000E+00 0. -1.
     999900   -1    0    0    0    0 -0.00000000000E+00 -0.00000000000E+00 -0.74505805969E-08  0.93827000000E+00  0.93827000000E+00 0.  1.
     999902    2    1    2    0    0  0.79643290202E-02 -0.63589109365E-02 -0.20402012409E-01  0.10211241149E+01  0.10208694087E+01 0.  0.
     999903    2    3    3    0    0 -0.55552734602E-01 -0.97044709345E-01 -0.69111720746E-01  0.13284996403E+00  0.19206797377E-01 0.  0.
         14    1    1    2    0    0 -0.79643290202E-02  0.63589109365E-02  0.20402012409E-01  0.22805885104E-01  0.00000000000E+00 0. -1.
     999901    1    3    3    0    0  0.63517063622E-01  0.90685798409E-01  0.48709708337E-01  0.88827415086E+00  0.88000000000E+00 0. -1.
        -11    1    4    4    0    0 -0.44268924663E-01 -0.58945687133E-01 -0.44899397920E-01  0.86316561429E-01  0.51100000000E-03 0. -1.
         11    1    4    4    0    0 -0.11283809939E-01 -0.38099022212E-01 -0.24212322826E-01  0.46533402604E-01  0.51100000000E-03 0.  1.
</event>
<event>
 8    1  0.1088021E+005  0.1043930E+01  0.7957747E-01            NaN
         13   -1    0    0    0    0  0.00000000000E+00  0.00000000000E+00  0.74505805969E-08  0.10566000000E+00  0.10566000000E+00 0. -1.
     999900   -1    0    0    0    0 -0.00000000000E+00 -0.00000000000E+00 -0.74505805969E-08  0.93827000000E+00  0.93827000000E+00 0.  1.
     999902    2    1    2    0    0  0.84246693594E-02  0.33022055116E-02 -0.23673343466E-01  0.10185862275E+01  0.10182708854E+01 0.  0.
     999903    2    3    3    0    0 -0.51753251471E-01 -0.58122706808E-01 -0.10329757812E+00  0.13081687637E+00  0.19647325875E-01 0.  0.
         14    1    1    2    0    0 -0.84246693594E-02 -0.33022055116E-02  0.23673343466E-01  0.25343772527E-01  0.00000000000E+00 0. -1.
     999901    1    3    3    0    0  0.60177920830E-01  0.61424912319E-01  0.79624234653E-01  0.88776935110E+00  0.88000000000E+00 0. -1.
        -11    1    4    4    0    0 -0.23329950373E-01 -0.13917049882E-01 -0.42597164774E-01  0.50524750663E-01  0.51100000000E-03 0. -1.
         11    1    4    4    0    0 -0.28423301098E-01 -0.44205656926E-01 -0.60700413345E-01  0.80292125709E-01  0.51100000000E-03 0.  1.
</event>
<event>
 8    1  0.1088021E+005  0.1043930E+01  0.7957747E-01            NaN
         13   -1    0    0    0    0  0.00000000000E+00  0.00000000000E+00  0.74505805969E-08  0.10566000000E+00  0.10566000000E+00 0. -1.
     999900   -1    0    0    0    0 -0.00000000000E+00 -0.00000000000E+00 -0.74505805969E-08  0.93827000000E+00  0.93827000000E+00 0. -1.
     999902    2    1    2    0    0  0.49233926051E-02 -0.31812447571E-01 -0.77327584556E-02  0.10108230949E+01  0.10102807837E+01 0.  0.
     999903    2    3    3    0    0  0.50706049096E-01 -0.60969573436E-01  0.92644241076E-01  0.12345522770E+00  0.19231368673E-01 0.  0.
         14    1    1    2    0    0 -0.49233926051E-02  0.31812447571E-01  0.77327584556E-02  0.33106905149E-01  0.00000000000E+00 0. -1.
     999901    1    3    3    0    0 -0.45782656491E-01  0.29157125865E-01 -0.10037699953E+00  0.88736786715E+00  0.88000000000E+00 0. -1.
        -11    1    4    4    0    0  0.47508167719E-01 -0.45670706371E-01  0.73003913518E-01  0.98349742909E-01  0.51100000000E-03 0.  1.
         11    1    4    4    0    0  0.31978813773E-02 -0.15298867066E-01  0.19640327558E-01  0.25105484787E-01  0.51100000000E-03 0. -1.
</event>
<event>
 8    1  0.1088021E+005  0.1043930E+01  0.7957747E-01            NaN
         13   -1    0    0    0    0  0.00000000000E+00  0.00000000000E+00  0.74505805969E-08  0.10566000000E+00  0.10566000000E+00 0. -1.
     999900   -1    0    0    0    0 -0.00000000000E+00 -0.00000000000E+00 -0.74505805969E-08  0.93827000000E+00  0.93827000000E+00 0.  1.
     999902    2    1    2    0    0  0.20847892150E-01  0.95980931674E-02 -0.16639166874E-02  0.10209185546E+01  0.10206591834E+01 0.  0.
     999903    2    3    3    0    0 -0.33206715588E-01 -0.12359803549E+00  0.35743838115E-02  0.12924005365E+00  0.17636748894E-01 0.  0.
         14    1    1    2    0    0 -0.20847892150E-01 -0.95980931674E-02  0.16639166874E-02  0.23011445376E-01  0.00000000000E+00 0. -1.
     999901    1    3    3    0    0  0.54054607737E-01  0.13319612865E+00 -0.52383004989E-02  0.89167850097E+00  0.88000000000E+00 0.  1.
        -11    1    4    4    0    0 -0.25987170647E-01 -0.11478621656E+00  0.18463757780E-02  0.11770674906E+00  0.51100000000E-03 0.  1.
         11    1    4    4    0    0 -0.72195449413E-02 -0.88118189290E-02  0.17280080334E-02  0.11533304590E-01  0.51100000000E-03 0. -1.
</event>
<event>
 8    1  0.1088021E+005  0.1043930E+01  0.7957747E-01            NaN
         13   -1    0    0    0    0  0.00000000000E+00  0.00000000000E+00  0.74505805969E-08  0.10566000000E+00  0.10566000000E+00 0.  1.
     999900   -1    0    0    0    0 -0.00000000000E+00 -0.00000000000E+00 -0.74505805969E-08  0.93827000000E+00  0.93827000000E+00 0.  1.
     999902    2    1    2    0    0  0.89863580603E-02 -0.14507198620E-01  0.14685957633E-01  0.10214157646E+01  0.10211676030E+01 0.  0.
     999903    2    3    3    0    0 -0.98028162920E-01  0.71927034551E-01  0.41642827544E-01  0.13032112476E+00  0.21597487052E-01 0.  0.
         14    1    1    2    0    0 -0.89863580603E-02  0.14507198620E-01 -0.14685957633E-01  0.22514235377E-01  0.00000000000E+00 0. -1.
     999901    1    3    3    0    0  0.10701452098E+00 -0.86434233171E-01 -0.26956869911E-01  0.89109463987E+00  0.88000000000E+00 0.  1.
        -11    1    4    4    0    0 -0.23403006823E-01  0.27823601161E-01  0.73317732939E-02  0.37092715330E-01  0.51100000000E-03 0.  1.
         11    1    4    4    0    0 -0.74625156097E-01  0.44103433391E-01  0.34311054250E-01  0.93228409426E-01  0.51100000000E-03 0. -1.
</event>
<event>
 8    1  0.1088021E+005  0.1043930E+01  0.7957747E-01            NaN
         13   -1    0    0    0    0  0.00000000000E+00  0.00000000000E+00  0.74505805969E-08  0.10566000000E+00  0.10566000000E+00 0. -1.
     999900   -1    0    0    0    0 -0.00000000000E+00 -0.00000000000E+00 -0.74505805969E-08  0.93827000000E+00  0.93827000000E+00 0. -1.
     999902    2    1    2    0    0 -0.14279469930E-01 -0.12261638123E-01 -0.14451366794E-01  0.10202004186E+01  0.10199244095E+01 0.  0.
     999903    2    3    3    0    0  0.52566251687E-01  0.11529180213E+00  0.24741114507E-02  0.12833456410E+00  0.20204669280E-01 0.  0.
         14    1    1    2    0    0  0.14279469930E-01  0.12261638123E-01  0.14451366794E-01  0.23729581394E-01  0.00000000000E+00 0. -1.
     999901    1    3    3    0    0 -0.66845721617E-01 -0.12755344025E+00 -0.16925478245E-01  0.89186585451E+00  0.88000000000E+00 0. -1.
        -11    1    4    4    0    0  0.95025627315E-02  0.42515871385E-01 -0.23664321629E-02  0.43632088425E-01  0.51100000000E-03 0.  1.
         11    1    4    4    0    0  0.43063688956E-01  0.72775930744E-01  0.48405436136E-02  0.84702475676E-01  0.51100000000E-03 0. -1.
</event>
<event>
 8    1  0.1088021E+005  0.1043930E+01  0.7957747E-01            NaN
         13   -1    0    0    0    0  0.00000000000E+00  0.00000000000E+00  0.74505805969E-08  0.10566000000E+00  0.10566000000E+00 0.  1.
     999900   -1    0    0    0    0 -0.00000000000E+00 -0.00000000000E+00 -0.74505805969E-08  0.93827000000E+00  0.93827000000E+00 0. -1.
     999902    2    1    2    0    0  0.16977273995E-01 -0.13353806129E-01 -0.11512823338E-01  0.10194535405E+01  0.10191596656E+01 0.  0.
     999903    2    3    3    0    0  0.10786984798E+00 -0.33701752064E-01  0.63846530970E-01  0.13133500603E+00  0.20019792658E-01 0.  0.
         14    1    1    2    0    0 -0.16977273995E-01  0.13353806129E-01  0.11512823338E-01  0.24476459541E-01  0.00000000000E+00 0.  1.
     999901    1    3    3    0    0 -0.90892573982E-01  0.20347945935E-01 -0.75359354308E-01  0.88811853443E+00  0.88000000000E+00 0. -1.
        -11    1    4    4    0    0  0.38790481784E-01 -0.18285615983E-01  0.33052079584E-01  0.54145787600E-01  0.51100000000E-03 0. -1.
         11    1    4    4    0    0  0.69079366193E-01 -0.15416136081E-01  0.30794451386E-01  0.77189218434E-01  0.51100000000E-03 0.  1.
</event>
<event>
 8    1  0.1088021E+005  0.1043930E+01  0.7957747E-01            NaN
         13   -1    0    0    0    0  0.00000000000E+00  0.00000000000E+00  0.74505805969E-08  0.10566000000E+00  0.10566000000E+00 0.  1.
     999900   -1    0    0    0    0 -0.00000000000E+00 -0.00000000000E+00 -0.74505805969E-08  0.93827000000E+00  0.93827000000E+00 0. -1.
     999902    2    1    2    0    0 -0.89446289468E-02 -0.17644588909E-01  0.13147695884E-01  0.10201771094E+01  0.10199005514E+01 0.  0.
     999903    2    3    3    0    0 -0.23417690425E-01 -0.12445060738E+00  0.36544519079E-01  0.13329244586E+00  0.19875420622E-01 0.  0.
         14    1    1    2    0    0  0.89446289468E-02  0.17644588909E-01 -0.13147695884E-01  0.23752890599E-01  0.00000000000E+00 0. -1.
     999901    1    3    3    0    0  0.14473061478E-01  0.10680601848E+00 -0.23396823194E-01  0.88688466354E+00  0.88000000000E+00 0. -1.
        -11    1    4    4    0    0 -0.12353364217E-01 -0.99750007062E-01  0.23407619072E-01  0.10320294215E+00  0.51100000000E-03 0. -1.
         11    1    4    4    0    0 -0.11064326208E-01 -0.24700600323E-01  0.13136900007E-01  0.30089503711E-01  0.51100000000E-03 0.  1.
</event>
<event>
 8    1  0.1088021E+005  0.1043930E+01  0.7957747E-01            NaN
         13   -1    0    0    0    0  0.00000000000E+00  0.00000000000E+00  0.74505805969E-08  0.10566000000E+00  0.10566000000E+00 0. -1.
     999900   -1    0    0    0    0 -0.00000000000E+00 -0.00000000000E+00 -0.74505805969E-08  0.93827000000E+00  0.93827000000E+00 0. -1.
     999902    2    1    2    0    0 -0.22135784543E-01 -0.30314330717E-02  0.93690522236E-02  0.10197027079E+01  0.10194148571E+01 0.  0.
     999903    2    3    3    0    0  0.37975442107E-02  0.12788784931E+00  0.14218838484E-02  0.12960408777E+00  0.20627032506E-01 0.  0.
         14    1    1    2    0    0  0.22135784543E-01  0.30314330717E-02 -0.93690522236E-02  0.24227292118E-01  0.00000000000E+00 0.  1.
     999901    1    3    3    0    0 -0.25933328754E-01 -0.13091928238E+00  0.79471683752E-02  0.89009862011E+00  0.88000000000E+00 0. -1.
        -11    1    4    4    0    0 -0.20968343111E-03  0.96153999846E-01  0.94597708892E-02  0.96619791139E-01  0.51100000000E-03 0. -1.
         11    1    4    4    0    0  0.40072276418E-02  0.31733849464E-01 -0.80378870408E-02  0.32984296631E-01  0.51100000000E-03 0.  1.
</event>
<event>
 8    1  0.1088021E+005  0.1043930E+01  0.7957747E-01            NaN
         13   -1    0    0    0    0  0.00000000000E+00  0.00000000000E+00  0.74505805969E-08  0.10566000000E+00  0.10566000000E+00 0. -1.
     999900   -1    0    0    0    0 -0.00000000000E+00 -0.00000000000E+00 -0.74505805969E-08  0.93827000000E+00  0.93827000000E+00 0. -1.
     999902    2    1    2    0    0 -0.68598684254E-03  0.22809561528E-01 -0.26716004557E-02  0.10209542710E+01  0.10206957134E+01 0.  0.
     999903    2    3    3    0    0 -0.47736802685E-01 -0.10061391736E+00 -0.62361609685E-01  0.12909664130E+00  0.19365168120E-01 0.  0.
         14    1    1    2    0    0  0.68598684254E-03 -0.22809561528E-01  0.26716004557E-02  0.22975729021E-01  0.00000000000E+00 0. -1.
     999901    1    3    3    0    0  0.47050815842E-01  0.12342347889E+00  0.59690009229E-01  0.89185762968E+00  0.88000000000E+00 0. -1.
        -11    1    4    4    0    0 -0.28048462891E-01 -0.67683440636E-01 -0.31062494317E-01  0.79579545620E-01  0.51100000000E-03 0.  1.
         11    1    4    4    0    0 -0.19688339793E-01 -0.32930476721E-01 -0.31299115368E-01  0.49517095681E-01  0.51100000000E-03 0. -1.
</event>
<event>
 8    1  0.1088021E+005  0.1043930E+01  0.7957747E-01            NaN
         13   -1    0    0    0    0  0.00000000000E+00  0.00000000000E+00  0.74505805969E-08  0.10566000000E+00  0.10566000000E+00 0.  1.
     999900   -1    0    0    0    0 -0.00000000000E+00 -0.00000000000E+00 -0.74505805969E-08  0.93827000000E+00  0.93827000000E+00 0. -1.
     999902    2    1    2    0    0  0.24995342800E-01  0.66959744835E-02 -0.13401315284E-02  0.10180186282E+01  0.10176888170E+01 0.  0.
     999903    2    3    3    0    0 -0.61197338292E-01  0.32891487484E-02 -0.10952007739E+00  0.12720793820E+00  0.20767269339E-01 0.  0.
         14    1    1    2    0    0 -0.24995342800E-01 -0.66959744835E-02  0.13401315284E-02  0.25911371799E-01  0.00000000000E+00 0. -1.
     999901    1    3    3    0    0  0.86192681092E-01  0.34068257350E-02  0.10817994586E+00  0.89081069000E+00  0.88000000000E+00 0.  1.
        -11    1    4    4    0    0 -0.30035737824E-01 -0.38189974925E-02 -0.36021682150E-01  0.47059037330E-01  0.51100000000E-03 0. -1.
         11    1    4    4    0    0 -0.31161600468E-01  0.71081462409E-02 -0.73498395240E-01  0.80148900869E-01  0.51100000000E-03 0.  1.
</event>
<event>
 8    1  0.1088021E+005  0.1043930E+01  0.7957747E-01            NaN
         13   -1    0    0    0    0  0.00000000000E+00  0.00000000000E+00  0.74505805969E-08  0.10566000000E+00  0.10566000000E+00 0.  1.
     999900   -1    0    0    0    0 -0.00000000000E+00 -0.00000000000E+00 -0.74505805969E-08  0.93827000000E+00  0.93827000000E+00 0. -1.
     999902    2    1    2    0    0 -0.42800554734E-02 -0.12393819338E-01  0.18335855180E-01  0.10213882783E+01  0.10211395036E+01 0.  0.
     999903    2    3    3    0    0  0.20013061017E-01 -0.12506159658E+00  0.35662769761E-01  0.13370342120E+00  0.23745444647E-01 0.  0.
         14    1    1    2    0    0  0.42800554734E-02  0.12393819338E-01 -0.18335855180E-01  0.22541721714E-01  0.00000000000E+00 0. -1.
     999901    1    3    3    0    0 -0.24293116491E-01  0.11266777724E+00 -0.17326914581E-01  0.88768485709E+00  0.88000000000E+00 0. -1.
        -11    1    4    4    0    0  0.19575389253E-01 -0.10989818165E+00  0.38845612742E-01  0.11819496159E+00  0.51100000000E-03 0. -1.
         11    1    4    4    0    0  0.43767176445E-03 -0.15163414929E-01 -0.31828429814E-02  0.15508459605E-01  0.51100000000E-03 0.  1.
</event>
<event>
 8    1  0.1088021E+005  0.1043930E+01  0.7957747E-01            NaN
         13   -1    0    0    0    0  0.00000000000E+00  0.00000000000E+00  0.74505805969E-08  0.10566000000E+00  0.10566000000E+00 0.  1.
     999900   -1    0    0    0    0 -0.00000000000E+00 -0.00000000000E+00 -0.74505805969E-08  0.93827000000E+00  0.93827000000E+00 0. -1.
     999902    2    1    2    0    0  0.29231535566E-02 -0.22681062896E-01 -0.73392089108E-02  0.10199125183E+01  0.10196296904E+01 0.  0.
     999903    2    3    3    0    0 -0.51858902408E-01  0.50949351099E-02 -0.11730773238E+00  0.13094364600E+00  0.25881078604E-01 0.  0.
         14    1    1    2    0    0 -0.29231535566E-02  0.22681062896E-01  0.73392089108E-02  0.24017481722E-01  0.00000000000E+00 0. -1.
     999901    1    3    3    0    0  0.54782055965E-01 -0.27775998006E-01  0.10996852347E+00  0.88896887228E+00  0.88000000000E+00 0.  1.
        -11    1    4    4    0    0 -0.24127320022E-01 -0.99339567365E-02 -0.62057491118E-01  0.67321648767E-01  0.51100000000E-03 0.  1.
         11    1    4    4    0    0 -0.27731582386E-01  0.15028891846E-01 -0.55250241262E-01  0.63621997236E-01  0.51100000000E-03 0. -1.
</event>
<event>
 8    1  0.1088021E+005  0.1043930E+01  0.7957747E-01            NaN
         13   -1    0    0    0    0  0.00000000000E+00  0.00000000000E+00  0.74505805969E-08  0.10566000000E+00  0.10566000000E+00 0. -1.
     999900   -1    0    0    0    0 -0.00000000000E+00 -0.00000000000E+00 -0.74505805969E-08  0.93827000000E+00  0.93827000000E+00 0. -1.
     999902    2    1    2    0    0  0.65933420746E-02  0.12386191707E-01 -0.18272831515E-01  0.10208912006E+01  0.10206312053E+01 0.  0.
     999903    2    3    3    0    0 -0.30180143738E-01  0.11857276901E+00 -0.48644099818E-01  0.13322555840E+00  0.20309070328E-01 0.  0.
         14    1    1    2    0    0 -0.65933420746E-02 -0.12386191707E-01  0.18272831515E-01  0.23038799367E-01  0.00000000000E+00 0. -1.
     999901    1    3    3    0    0  0.36773485813E-01 -0.10618657730E+00  0.30371268303E-01  0.88766564223E+00  0.88000000000E+00 0. -1.
        -11    1    4    4    0    0 -0.29173869327E-01  0.80449780204E-01 -0.29252407424E-01  0.90439185354E-01  0.51100000000E-03 0. -1.
         11    1    4    4    0    0 -0.10062744113E-02  0.38122988806E-01 -0.19391692394E-01  0.42786373048E-01  0.51100000000E-03 0.  1.
</event>
<event>
 8    1  0.1088021E+005  0.1043930E+01  0.7957747E-01            NaN
         13   -1    0    0    0    0  0.00000000000E+00  0.00000000000E+00  0.74505805969E-08  0.10566000000E+00  0.10566000000E+00 0. -1.
     999900   -1    0    0    0    0 -0.00000000000E+00 -0.00000000000E+00 -0.74505805969E-08  0.93827000000E+00  0.93827000000E+00 0. -1.
     999902    2    1    2    0    0  0.10963534808E-02  0.21964335778E-01  0.10620741023E-01  0.10195079981E+01  0.10192154453E+01 0.  0.
     999903    2    3    3    0    0 -0.28310585252E-01  0.29865522638E-01 -0.12097745235E+00  0.12920171299E+00  0.19081404074E-01 0.  0.
         14    1    1    2    0    0 -0.10963534808E-02 -0.21964335778E-01 -0.10620741023E-01  0.24422001904E-01  0.00000000000E+00 0.  1.
     999901    1    3    3    0    0  0.29406938733E-01 -0.79011868599E-02  0.13159819338E+00  0.89030628511E+00  0.88000000000E+00 0.  1.
        -11    1    4    4    0    0 -0.84498846996E-02 -0.11319643491E-02 -0.22357607776E-01  0.23933358335E-01  0.51100000000E-03 0. -1.
         11    1    4    4    0    0 -0.19860700552E-01  0.30997486987E-01 -0.98619844578E-01  0.10526835465E+00  0.51100000000E-03 0.  1.
</event>
<event>
 8    1  0.1088021E+005  0.1043930E+01  0.7957747E-01            NaN
         13   -1    0    0    0    0  0.00000000000E+00  0.00000000000E+00  0.74505805969E-08  0.10566000000E+00  0.10566000000E+00 0. -1.
     999900   -1    0    0    0    0 -0.00000000000E+00 -0.00000000000E+00 -0.74505805969E-08  0.93827000000E+00  0.93827000000E+00 0. -1.
     999902    2    1    2    0    0  0.73168336363E-02 -0.11776249725E-01 -0.18776762009E-01  0.10205894151E+01  0.10203224840E+01 0.  0.
     999903    2    3    3    0    0  0.54726834043E-01  0.10207701641E+00 -0.58071709495E-01  0.13112082810E+00  0.20139624503E-01 0.  0.
         14    1    1    2    0    0 -0.73168336363E-02  0.11776249725E-01  0.18776762009E-01  0.23340584902E-01  0.00000000000E+00 0. -1.
     999901    1    3    3    0    0 -0.47410000407E-01 -0.11385326614E+00  0.39294947486E-01  0.88946858699E+00  0.88000000000E+00 0.  1.
        -11    1    4    4    0    0  0.36628929829E-01  0.77664951842E-01 -0.34027796770E-01  0.92367068369E-01  0.51100000000E-03 0.  1.
         11    1    4    4    0    0  0.18097904214E-01  0.24412064571E-01 -0.24043912725E-01  0.38753759736E-01  0.51100000000E-03 0. -1.
</event>
<event>
 8    1  0.1088021E+005  0.1043930E+01  0.7957747E-01            NaN
         13   -1    0    0    0    0  0.00000000000E+00  0.00000000000E+00  0.74505805969E-08  0.10566000000E+00  0.10566000000E+00 0. -1.
     999900   -1    0    0    0    0 -0.00000000000E+00 -0.00000000000E+00 -0.74505805969E-08  0.93827000000E+00  0.93827000000E+00 0.  1.
     999902    2    1    2    0    0 -0.17481265682E-01  0.70446407952E-02  0.15627368462E-01  0.10194466126E+01  0.10191525694E+01 0.  0.
     999903    2    3    3    0    0  0.16492429153E-01  0.96997412609E-01  0.84862507952E-01  0.13150561363E+00  0.20287505735E-01 0.  0.
         14    1    1    2    0    0  0.17481265682E-01 -0.70446407952E-02 -0.15627368462E-01  0.24483387405E-01  0.00000000000E+00 0. -1.
     999901    1    3    3    0    0 -0.33973694834E-01 -0.89952771814E-01 -0.69235139490E-01  0.88794099896E+00  0.88000000000E+00 0. -1.
        -11    1    4    4    0    0  0.16864376408E-01  0.47230393619E-01  0.49367373420E-01  0.70374114221E-01  0.51100000000E-03 0.  1.
         11    1    4    4    0    0 -0.37194725535E-03  0.49767018990E-01  0.35495134532E-01  0.61131499412E-01  0.51100000000E-03 0. -1.
</event>
<event>
 8    1  0.1088021E+005  0.1043930E+01  0.7957747E-01            NaN
         13   -1    0    0    0    0  0.00000000000E+00  0.00000000000E+00  0.74505805969E-08  0.10566000000E+00  0.10566000000E+00 0.  1.
     999900   -1    0    0    0    0 -0.00000000000E+00 -0.00000000000E+00 -0.74505805969E-08  0.93827000000E+00  0.93827000000E+00 0. -1.
     999902    2    1    2    0    0 -0.96468424961E-02 -0.21078887638E-01  0.60497539787E-02  0.10199721078E+01  0.10196906983E+01 0.  0.
     999903    2    3    3    0    0 -0.34861114717E-01 -0.93144302634E-01 -0.84696571321E-01  0.13201710946E+00  0.19074841155E-01 0.  0.
         14    1    1    2    0    0  0.96468424961E-02  0.21078887638E-01 -0.60497539787E-02  0.23957892174E-01  0.00000000000E+00 0.  1.
     999901    1    3    3    0    0  0.25214272221E-01  0.72065414995E-01  0.90746325300E-01  0.88795499836E+00  0.88000000000E+00 0.  1.
        -11    1    4    4    0    0 -0.10581758900E-01 -0.31223258291E-01 -0.40203209551E-01  0.51994467580E-01  0.51100000000E-03 0. -1.
         11    1    4    4    0    0 -0.24279355817E-01 -0.61921044343E-01 -0.44493361770E-01  0.80022641883E-01  0.51100000000E-03 0.  1.
</event>
<event>
 8    1  0.1088021E+005  0.1043930E+01  0.7957747E-01            NaN
         13   -1    0    0    0    0  0.00000000000E+00  0.00000000000E+00  0.74505805969E-08  0.10566000000E+00  0.10566000000E+00 0. -1.
     999900   -1    0    0    0    0 -0.00000000000E+00 -0.00000000000E+00 -0.74505805969E-08  0.93827000000E+00  0.93827000000E+00 0.  1.
     999902    2    1    2    0    0 -0.20654866509E-01  0.14932832352E-01  0.60479720029E-02  0.10177347531E+01  0.10173975805E+01 0.  0.
     999903    2    3    3    0    0 -0.26762069045E-01 -0.95052031846E-01 -0.76849099904E-01  0.12700140763E+00  0.21736519654E-01 0.  0.
         14    1    1    2    0    0  0.20654866509E-01 -0.14932832352E-01 -0.60479720029E-02  0.26195246857E-01  0.00000000000E+00 0. -1.
     999901    1    3    3    0    0  0.61072025354E-02  0.10998486420E+00  0.82897071907E-01  0.89073334551E+00  0.88000000000E+00 0. -1.
        -11    1    4    4    0    0 -0.44269061749E-02 -0.45641558359E-01 -0.26282065088E-01  0.52856006413E-01  0.51100000000E-03 0. -1.
         11    1    4    4    0    0 -0.22335162870E-01 -0.49410473487E-01 -0.50567034816E-01  0.74145401218E-01  0.51100000000E-03 0.  1.
</event>
<event>
 8    1  0.1088021E+005  0.1043930E+01  0.7957747E-01            NaN
         13   -1    0    0    0    0  0.00000000000E+00  0.00000000000E+00  0.74505805969E-08  0.10566000000E+00  0.10566000000E+00 0.  1.
     999900   -1    0    0    0    0 -0.00000000000E+00 -0.00000000000E+00 -0.74505805969E-08  0.93827000000E+00  0.93827000000E+00 0. -1.
     999902    2    1    2    0    0  0.16175671745E-01  0.22302976609E-02  0.16738960972E-01  0.10205458302E+01  0.10202778896E+01 0.  0.
     999903    2    3    3    0    0 -0.15371631642E-02  0.12951993277E+00  0.34963325221E-02  0.13111243585E+00  0.20011762519E-01 0.  0.
         14    1    1    2    0    0 -0.16175671745E-01 -0.22302976609E-02 -0.16738960972E-01  0.23384169827E-01  0.00000000000E+00 0.  1.
     999901    1    3    3    0    0  0.17712834909E-01 -0.12728963511E+00  0.13242628450E-01  0.88943339432E+00  0.88000000000E+00 0.  1.
        -11    1    4    4    0    0  0.60980697222E-02  0.83660698692E-01  0.86751224723E-02  0.84331594500E-01  0.51100000000E-03 0. -1.
         11    1    4    4    0    0 -0.76352328864E-02  0.45859234076E-01 -0.51787899502E-02  0.46780841352E-01  0.51100000000E-03 0.  1.
</event>
<event>
 8    1  0.1088021E+005  0.1043930E+01  0.7957747E-01            NaN
         13   -1    0    0    0    0  0.00000000000E+00  0.00000000000E+00  0.74505805969E-08  0.10566000000E+00  0.10566000000E+00 0.  1.
     999900   -1    0    0    0    0 -0.00000000000E+00 -0.00000000000E+00 -0.74505805969E-08  0.93827000000E+00  0.93827000000E+00 0.  1.
     999902    2    1    2    0    0  0.11450606909E-01  0.19135608849E-01  0.88954095792E-02  0.10199213300E+01  0.10196387120E+01 0.  0.
     999903    2    3    3    0    0 -0.52350496707E-01  0.11829003157E+00  0.17299061985E-01  0.13201773063E+00  0.19907726647E-01 0.  0.
         14    1    1    2    0    0 -0.11450606909E-01 -0.19135608849E-01 -0.88954095792E-02  0.24008670021E-01  0.00000000000E+00 0. -1.
     999901    1    3    3    0    0  0.63801103617E-01 -0.99154422721E-01 -0.84036524062E-02  0.88790359935E+00  0.88000000000E+00 0. -1.
        -11    1    4    4    0    0 -0.26668104999E-01  0.37128953332E-01  0.74737959360E-02  0.46323490223E-01  0.51100000000E-03 0. -1.
         11    1    4    4    0    0 -0.25682391708E-01  0.81161078237E-01  0.98252660493E-02  0.85694240404E-01  0.51100000000E-03 0.  1.
</event>
<event>
 8    1  0.1088021E+005  0.1043930E+01  0.7957747E-01            NaN
         13   -1    0    0    0    0  0.00000000000E+00  0.00000000000E+00  0.74505805969E-08  0.10566000000E+00  0.10566000000E+00 0.  1.
     999900   -1    0    0    0    0 -0.00000000000E+00 -0.00000000000E+00 -0.74505805969E-08  0.93827000000E+00  0.93827000000E+00 0.  1.
     999902    2    1    2    0    0 -0.51571534909E-03  0.13029041120E-02 -0.23220118739E-01  0.10206676391E+01  0.10204025147E+01 0.  0.
     999903    2    3    3    0    0  0.18980242004E-02  0.17825997599E-02  0.12650212216E+00  0.12801832066E+00  0.19471090310E-01 0.  0.
         14    1    1    2    0    0  0.51571534909E-03 -0.13029041120E-02  0.23220118739E-01  0.23262360923E-01  0.00000000000E+00 0.  1.
     999901    1    3    3    0    0 -0.24137395495E-02 -0.47969564792E-03 -0.14972224089E+00  0.89264931841E+00  0.88000000000E+00 0.  1.
        -11    1    4    4    0    0  0.87163462134E-02 -0.44979741101E-02  0.79812688746E-01  0.80414755289E-01  0.51100000000E-03 0.  1.
         11    1    4    4    0    0 -0.68183220130E-02  0.62805738700E-02  0.46689433409E-01  0.47603565374E-01  0.51100000000E-03 0. -1.
</event>
<event>
 8    1  0.1088021E+005  0.1043930E+01  0.7957747E-01            NaN
         13   -1    0    0    0    0  0.00000000000E+00  0.00000000000E+00  0.74505805969E-08  0.10566000000E+00  0.10566000000E+00 0.  1.
     999900   -1    0    0    0    0 -0.00000000000E+00 -0.00000000000E+00 -0.74505805969E-08  0.93827000000E+00  0.93827000000E+00 0.  1.
     999902    2    1    2    0    0  0.91154024286E-02  0.21585118306E-01  0.38508256125E-02  0.10201847531E+01  0.10199083751E+01 0.  0.
     999903    2    3    3    0    0 -0.12229536114E+00  0.22440306847E-01  0.31990072256E-01  0.12998177772E+00  0.20302095683E-01 0.  0.
         14    1    1    2    0    0 -0.91154024286E-02 -0.21585118306E-01 -0.38508256125E-02  0.23745246927E-01  0.00000000000E+00 0.  1.
     999901    1    3    3    0    0  0.13141076356E+00 -0.85518854071E-03 -0.28139246644E-01  0.89020297535E+00  0.88000000000E+00 0.  1.
        -11    1    4    4    0    0 -0.73238659406E-01  0.17613880415E-01  0.99503474667E-02  0.75983028043E-01  0.51100000000E-03 0.  1.
         11    1    4    4    0    0 -0.49056701730E-01  0.48264264322E-02  0.22039724790E-01  0.53998749676E-01  0.51100000000E-03 0. -1.
</event>
<event>
 8    1  0.1088021E+005  0.1043930E+01  0.7957747E-01            NaN
         13   -1    0    0    0    0  0.00000000000E+00  0.00000000000E+00  0.74505805969E-08  0.10566000000E+00  0.10566000000E+00 0.  1.
     999900   -1    0    0    0    0 -0.00000000000E+00 -0.00000000000E+00 -0.74505805969E-08  0.93827000000E+00  0.93827000000E+00 0.  1.
     999902    2    1    2    0    0  0.15200954672E-01 -0.39759646334E-02  0.16047436835E-01  0.10214712034E+01  0.10212242759E+01 0.  0.
     999903    2    3    3    0    0 -0.11216870330E+00 -0.44387951463E-01  0.46938598438E-01  0.13084758907E+00  0.19124625679E-01 0.  0.
         14    1    1    2    0    0 -0.15200954672E-01  0.39759646334E-02 -0.16047436835E-01  0.22458796644E-01  0.00000000000E+00 0.  1.
     999901    1    3    3    0    0  0.12736965798E+00  0.40411986829E-01 -0.30891161602E-01  0.89062361428E+00  0.88000000000E+00 0.  1.
        -11    1    4    4    0    0 -0.96658842391E-01 -0.32280268454E-01  0.34620438898E-01  0.10762798639E+00  0.51100000000E-03 0.  1.
         11    1    4    4    0    0 -0.15509860912E-01 -0.12107683009E-01  0.12318159539E-01  0.23219602684E-01  0.51100000000E-03 0. -1.
</event>
<event>
 8    1  0.1088021E+005  0.1043930E+01  0.7957747E-01            NaN
         13   -1    0    0    0    0  0.00000000000E+00  0.00000000000E+00  0.74505805969E-08  0.10566000000E+00  0.10566000000E+00 0.  1.
     999900   -1    0    0    0    0 -0.00000000000E+00 -0.00000000000E+00 -0.74505805969E-08  0.93827000000E+00  0.93827000000E+00 0. -1.
     999902    2    1    2    0    0  0.11655998854E-01  0.18266222788E-01 -0.10559895661E-01  0.10198254651E+01  0.10195405587E+01 0.  0.
     999903    2    3    3    0    0  0.37336055426E-01 -0.12049926555E+00  0.10201829942E-01  0.12833997715E+00  0.21284228125E-01 0.  0.
         14    1    1    2    0    0 -0.11655998854E-01 -0.18266222788E-01  0.10559895661E-01  0.24104534856E-01  0.00000000000E+00 0.  1.
     999901    1    3    3    0    0 -0.25680056572E-01  0.13876548834E+00 -0.20761725602E-01  0.89148548800E+00  0.88000000000E+00 0. -1.
        -11    1    4    4    0    0  0.36836315619E-01 -0.96750810520E-01  0.32246032683E-02  0.10357747184E+00  0.51100000000E-03 0. -1.
         11    1    4    4    0    0  0.49973980656E-03 -0.23748455032E-01  0.69772266733E-02  0.24762505312E-01  0.51100000000E-03 0.  1.
</event>
<event>
 8    1  0.1088021E+005  0.1043930E+01  0.7957747E-01            NaN
         13   -1    0    0    0    0  0.00000000000E+00  0.00000000000E+00  0.74505805969E-08  0.10566000000E+00  0.10566000000E+00 0.  1.
     999900   -1    0    0    0    0 -0.00000000000E+00 -0.00000000000E+00 -0.74505805969E-08  0.93827000000E+00  0.93827000000E+00 0. -1.
     999902    2    1    2    0    0 -0.20261702905E-01  0.94135442151E-02  0.91796133504E-02  0.10197759792E+01  0.10194898877E+01 0.  0.
     999903    2    3    3    0    0 -0.26739969777E-02  0.11094507970E+00 -0.65706853964E-01  0.13060447545E+00  0.20595567017E-01 0.  0.
         14    1    1    2    0    0  0.20261702905E-01 -0.94135442151E-02 -0.91796133504E-02  0.24154020795E-01  0.00000000000E+00 0.  1.
     999901    1    3    3    0    0 -0.17587705928E-01 -0.10153153549E+00  0.74886467314E-01  0.88917150375E+00  0.88000000000E+00 0. -1.
        -11    1    4    4    0    0  0.10235526366E-02  0.79595094041E-01 -0.56833856928E-01  0.97809892494E-01  0.51100000000E-03 0. -1.
         11    1    4    4    0    0 -0.36975496143E-02  0.31349985660E-01 -0.88729970358E-02  0.32794582959E-01  0.51100000000E-03 0.  1.
</event>
<event>
 8    1  0.1088021E+005  0.1043930E+01  0.7957747E-01            NaN
         13   -1    0    0    0    0  0.00000000000E+00  0.00000000000E+00  0.74505805969E-08  0.10566000000E+00  0.10566000000E+00 0.  1.
     999900   -1    0    0    0    0 -0.00000000000E+00 -0.00000000000E+00 -0.74505805969E-08  0.93827000000E+00  0.93827000000E+00 0. -1.
     999902    2    1    2    0    0 -0.18287628441E-01  0.81024281719E-02  0.13884706822E-01  0.10195810415E+01  0.10192902572E+01 0.  0.
     999903    2    3    3    0    0 -0.65367146513E-01 -0.99370882601E-01 -0.47067353322E-01  0.12970343914E+00  0.21452510910E-01 0.  0.
         14    1    1    2    0    0  0.18287628441E-01 -0.81024281719E-02 -0.13884706822E-01  0.24348958496E-01  0.00000000000E+00 0. -1.
     999901    1    3    3    0    0  0.47079518072E-01  0.10747331077E+00  0.60952060144E-01  0.88987760236E+00  0.88000000000E+00 0.  1.
        -11    1    4    4    0    0 -0.26330344009E-01 -0.29941200657E-01 -0.24946935975E-01  0.47035871927E-01  0.51100000000E-03 0. -1.
         11    1    4    4    0    0 -0.39036802504E-01 -0.69429681944E-01 -0.22120417347E-01  0.82667567215E-01  0.51100000000E-03 0.  1.
</event>
<event>
 8    1  0.1088021E+005  0.1043930E+01  0.7957747E-01            NaN
         13   -1    0    0    0    0  0.00000000000E+00  0.00000000000E+00  0.74505805969E-08  0.10566000000E+00  0.10566000000E+00 0.  1.
     999900   -1    0    0    0    0 -0.00000000000E+00 -0.00000000000E+00 -0.74505805969E-08  0.93827000000E+00  0.93827000000E+00 0.  1.
     999902    2    1    2    0    0  0.83775842566E-02 -0.61416794154E-02 -0.21790397166E-01  0.10197902910E+01  0.10195045424E+01 0.  0.
     999903    2    3    3    0    0  0.95185697351E-01 -0.23807312342E-01 -0.86606191256E-01  0.13297079960E+00  0.23526497440E-01 0.  0.
         14    1    1    2    0    0 -0.83775842566E-02  0.61416794154E-02  0.21790397166E-01  0.24139709042E-01  0.00000000000E+00 0.  1.
     999901    1    3    3    0    0 -0.86808113094E-01  0.17665632926E-01  0.64815794090E-01  0.88681949136E+00  0.88000000000E+00 0. -1.
        -11    1    4    4    0    0  0.56533194315E-01 -0.14606611965E-01 -0.35881530187E-01  0.68535395980E-01  0.51100000000E-03 0.  1.
         11    1    4    4    0    0  0.38652503035E-01 -0.92007003767E-02 -0.50724661069E-01  0.64435403622E-01  0.51100000000E-03 0. -1.
</event>
<event>
 8    1  0.1088021E+005  0.1043930E+01  0.7957747E-01            NaN
         13   -1    0    0    0    0  0.00000000000E+00  0.00000000000E+00  0.74505805969E-08  0.10566000000E+00  0.10566000000E+00 0. -1.
     999900   -1    0    0    0    0 -0.00000000000E+00 -0.00000000000E+00 -0.74505805969E-08  0.93827000000E+00  0.93827000000E+00 0. -1.
     999902    2    1    2    0    0 -0.17441434104E-01 -0.84485829307E-02 -0.13381336355E-01  0.10203791542E+01  0.10201073355E+01 0.  0.
     999903    2    3    3    0    0 -0.79695017245E-01  0.33569240837E-02  0.10192052547E+00  0.13059862057E+00  0.17482604769E-01 0.  0.
         14    1    1    2    0    0  0.17441434104E-01  0.84485829307E-02  0.13381336355E-01  0.23550845840E-01  0.00000000000E+00 0. -1.
     999901    1    3    3    0    0  0.62253583141E-01 -0.11805507014E-01 -0.11530186183E+00  0.88978053359E+00  0.88000000000E+00 0. -1.
        -11    1    4    4    0    0 -0.52986664282E-02  0.48364251837E-02  0.76895200033E-02  0.10528851474E-01  0.51100000000E-03 0.  1.
         11    1    4    4    0    0 -0.74396350817E-01 -0.14795011000E-02  0.94231005470E-01  0.12006976910E+00  0.51100000000E-03 0. -1.
</event>
<event>
 8    1  0.1088021E+005  0.1043930E+01  0.7957747E-01            NaN
         13   -1    0    0    0    0  0.00000000000E+00  0.00000000000E+00  0.74505805969E-08  0.10566000000E+00  0.10566000000E+00 0.  1.
     999900   -1    0    0    0    0 -0.00000000000E+00 -0.00000000000E+00 -0.74505805969E-08  0.93827000000E+00  0.93827000000E+00 0. -1.
     999902    2    1    2    0    0 -0.91298112833E-02  0.14119573461E-01  0.15806816667E-01  0.10208524945E+01  0.10205916148E+01 0.  0.
     999903    2    3    3    0    0 -0.11431818108E-01 -0.12284090932E+00  0.35879759663E-01  0.13002905734E+00  0.19990576081E-01 0.  0.
         14    1    1    2    0    0  0.91298112833E-02 -0.14119573461E-01 -0.15806816667E-01  0.23077505539E-01  0.00000000000E+00 0. -1.
     999901    1    3    3    0    0  0.23020068246E-02  0.13696048278E+00 -0.20072942997E-01  0.89082343712E+00  0.88000000000E+00 0. -1.
        -11    1    4    4    0    0 -0.92848806676E-02 -0.98476739457E-01  0.36824097439E-01  0.10554692083E+00  0.51100000000E-03 0. -1.
         11    1    4    4    0    0 -0.21469374403E-02 -0.24364169862E-01 -0.94433777530E-03  0.24482136514E-01  0.51100000000E-03 0.  1.
</event>
<event>
 8    1  0.1088021E+005  0.1043930E+01  0.7957747E-01            NaN
         13   -1    0    0    0    0  0.00000000000E+00  0.00000000000E+00  0.74505805969E-08  0.10566000000E+00  0.10566000000E+00 0.  1.
     999900   -1    0    0    0    0 -0.00000000000E+00 -0.00000000000E+00 -0.74505805969E-08  0.93827000000E+00  0.93827000000E+00 0. -1.
     999902    2    1    2    0    0  0.95588239684E-02 -0.16645435825E-01 -0.12778998826E-01  0.10208704150E+01  0.10206099450E+01 0.  0.
     999903    2    3    3    0    0 -0.41793129983E-01  0.19940534193E-01 -0.12181983198E+00  0.13190165308E+00  0.20339223254E-01 0.  0.
         14    1    1    2    0    0 -0.95588239684E-02  0.16645435825E-01  0.12778998826E-01  0.23059585002E-01  0.00000000000E+00 0.  1.
     999901    1    3    3    0    0  0.51351953952E-01 -0.36585970018E-01  0.10904083316E+00  0.88896876192E+00  0.88000000000E+00 0.  1.
        -11    1    4    4    0    0 -0.48515141514E-02 -0.33129101723E-02 -0.75688483172E-02  0.95948501406E-02  0.51100000000E-03 0.  1.
         11    1    4    4    0    0 -0.36941615832E-01  0.23253444365E-01 -0.11425098366E+00  0.12230680294E+00  0.51100000000E-03 0. -1.
</event>
<event>
 8    1  0.1088021E+005  0.1043930E+01  0.7957747E-01            NaN
         13   -1    0    0    0    0  0.00000000000E+00  0.00000000000E+00  0.74505805969E-08  0.10566000000E+00  0.10566000000E+00 0.  1.
     999900   -1    0    0    0    0 -0.00000000000E+00 -0.00000000000E+00 -0.74505805969E-08  0.93827000000E+00  0.93827000000E+00 0.  1.
     999902    2    1    2    0    0  0.91804848969E-03 -0.22837935000E-01  0.24623535431E-02  0.10209413664E+01  0.10206825150E+01 0.  0.
     999903    2    3    3    0    0 -0.10520224223E+00 -0.37239676361E-01  0.67627605806E-01  0.13205698905E+00  0.20279300391E-01 0.  0.
         14    1    1    2    0    0 -0.91804848969E-03  0.22837935000E-01 -0.24623535431E-02  0.22988633563E-01  0.00000000000E+00 0. -1.
     999901    1    3    3    0    0  0.10612029072E+00  0.14401741361E-01 -0.65165252263E-01  0.88888437739E+00  0.88000000000E+00 0.  1.
        -11    1    4    4    0    0 -0.93405521064E-01 -0.35958150229E-01  0.53133692024E-01  0.11331826985E+00  0.51100000000E-03 0.  1.
         11    1    4    4    0    0 -0.11796721168E-01 -0.12815261320E-02  0.14493913782E-01  0.18738719200E-01  0.51100000000E-03 0. -1.
</event>
<event>
 8    1  0.1088021E+005  0.1043930E+01  0.7957747E-01            NaN
         13   -1    0    0    0    0  0.00000000000E+00  0.00000000000E+00  0.74505805969E-08  0.10566000000E+00  0.10566000000E+00 0.  1.
     999900   -1    0    0    0    0 -0.00000000000E+00 -0.00000000000E+00 -0.74505805969E-08  0.93827000000E+00  0.93827000000E+00 0. -1.
     999902    2    1    2    0    0  0.33701500138E-02  0.15235574385E-01  0.18995392894E-01  0.10193473722E+01  0.10190509112E+01 0.  0.
     999903    2    3    3    0    0  0.12248096522E+00  0.37992055988E-01 -0.15503973432E-02  0.13079384357E+00  0.25683508794E-01 0.  0.
         14    1    1    2    0    0 -0.33701500138E-02 -0.15235574385E-01 -0.18995392894E-01  0.24582627792E-01  0.00000000000E+00 0. -1.
     999901    1    3    3    0    0 -0.11911081521E+00 -0.22756481603E-01  0.20545790237E-01  0.88855352864E+00  0.88000000000E+00 0. -1.
        -11    1    4    4    0    0  0.69892325024E-01  0.22152167361E-01  0.11814553233E-01  0.74266415055E-01  0.51100000000E-03 0. -1.
         11    1    4    4    0    0  0.52588640201E-01  0.15839888627E-01 -0.13364950576E-01  0.56527428517E-01  0.51100000000E-03 0.  1.
</event>
<event>
 8    1  0.1088021E+005  0.1043930E+01  0.7957747E-01            NaN
         13   -1    0    0    0    0  0.00000000000E+00  0.00000000000E+00  0.74505805969E-08  0.10566000000E+00  0.10566000000E+00 0.  1.
     999900   -1    0    0    0    0 -0.00000000000E+00 -0.00000000000E+00 -0.74505805969E-08  0.93827000000E+00  0.93827000000E+00 0.  1.
     999902    2    1    2    0    0  0.53349540892E-02  0.23749092750E-01 -0.39340226699E-02  0.10192732022E+01  0.10189749276E+01 0.  0.
     999903    2    3    3    0    0  0.30496987207E-01  0.11652597986E+00  0.51215187478E-01  0.13232218100E+00  0.19436922193E-01 0.  0.
         14    1    1    2    0    0 -0.53349540892E-02 -0.23749092750E-01  0.39340226699E-02  0.24656797763E-01  0.00000000000E+00 0. -1.
     999901    1    3    3    0    0 -0.25162033118E-01 -0.92776887114E-01 -0.55149210148E-01  0.88695102124E+00  0.88000000000E+00 0.  1.
        -11    1    4    4    0    0  0.18435875572E-01  0.46733193195E-01  0.13244721156E-01  0.51957257567E-01  0.51100000000E-03 0. -1.
         11    1    4    4    0    0  0.12061111636E-01  0.69792786668E-01  0.37970466322E-01  0.80364923433E-01  0.51100000000E-03 0.  1.
</event>
<event>
 8    1  0.1088021E+005  0.1043930E+01  0.7957747E-01            NaN
         13   -1    0    0    0    0  0.00000000000E+00  0.00000000000E+00  0.74505805969E-08  0.10566000000E+00  0.10566000000E+00 0. -1.
     999900   -1    0    0    0    0 -0.00000000000E+00 -0.00000000000E+00 -0.74505805969E-08  0.93827000000E+00  0.93827000000E+00 0. -1.
     999902    2    1    2    0    0  0.13023682323E-01  0.12353521377E-01 -0.15149587605E-01  0.10204409431E+01  0.10201705654E+01 0.  0.
     999903    2    3    3    0    0 -0.23329424927E-01  0.85115388675E-01  0.93101437896E-01  0.13008476586E+00  0.21570283138E-01 0.  0.
         14    1    1    2    0    0 -0.13023682323E-01 -0.12353521377E-01  0.15149587605E-01  0.23489056947E-01  0.00000000000E+00 0.  1.
     999901    1    3    3    0    0  0.36353107250E-01 -0.72761867298E-01 -0.10825102550E+00  0.89035617719E+00  0.88000000000E+00 0. -1.
        -11    1    4    4    0    0 -0.10032566788E-01  0.59454101244E-01  0.50764720202E-01  0.78821066279E-01  0.51100000000E-03 0.  1.
         11    1    4    4    0    0 -0.13296858140E-01  0.25661287430E-01  0.42336717694E-01  0.51263699584E-01  0.51100000000E-03 0. -1.
</event>
<event>
 8    1  0.1088021E+005  0.1043930E+01  0.7957747E-01            NaN
         13   -1    0    0    0    0  0.00000000000E+00  0.00000000000E+00  0.74505805969E-08  0.10566000000E+00  0.10566000000E+00 0. -1.
     999900   -1    0    0    0    0 -0.00000000000E+00 -0.00000000000E+00 -0.74505805969E-08  0.93827000000E+00  0.93827000000E+00 0. -1.
     999902    2    1    2    0    0  0.13518246556E-01  0.19898697619E-01  0.75486261885E-02  0.10187172470E+01  0.10184051976E+01 0.  0.
     999903    2    3    3    0    0  0.54544741120E-01  0.99664154287E-01 -0.62190280369E-01  0.13141278041E+00  0.22217458195E-01 0.  0.
         14    1    1    2    0    0 -0.13518246556E-01 -0.19898697619E-01 -0.75486261885E-02  0.25212753007E-01  0.00000000000E+00 0.  1.
     999901    1    3    3    0    0 -0.41026494564E-01 -0.79765456668E-01  0.69738906557E-01  0.88730446658E+00  0.88000000000E+00 0.  1.
        -11    1    4    4    0    0  0.32427135650E-01  0.79377824803E-01 -0.46388784014E-01  0.97491223196E-01  0.51100000000E-03 0.  1.
         11    1    4    4    0    0  0.22117605470E-01  0.20286329484E-01 -0.15801496355E-01  0.33921557212E-01  0.51100000000E-03 0. -1.
</event>
<event>
 8    1  0.1088021E+005  0.1043930E+01  0.7957747E-01            NaN
         13   -1    0    0    0    0  0.00000000000E+00  0.00000000000E+00  0.74505805969E-08  0.10566000000E+00  0.10566000000E+00 0. -1.
     999900   -1    0    0    0    0 -0.00000000000E+00 -0.00000000000E+00 -0.74505805969E-08  0.93827000000E+00  0.93827000000E+00 0. -1.
     999902    2    1    2    0    0 -0.18104709693E-01  0.25743661740E-02  0.14324299320E-01  0.10207008497E+01  0.10204364905E+01 0.  0.
     999903    2    3    3    0    0 -0.11601423699E+00  0.87071312435E-02  0.63099367413E-01  0.13390724707E+00  0.20359354839E-01 0.  0.
         14    1    1    2    0    0  0.18104709693E-01 -0.25743661740E-02 -0.14324299320E-01  0.23229150334E-01  0.00000000000E+00 0. -1.
     999901    1    3    3    0    0  0.97909527300E-01 -0.61327650695E-02 -0.48775068093E-01  0.88679360260E+00  0.88000000000E+00 0. -1.
        -11    1    4    4    0    0 -0.88269888363E-01  0.12714788846E-01  0.54775804842E-01  0.10466082822E+00  0.51100000000E-03 0.  1.
         11    1    4    4    0    0 -0.27744348630E-01 -0.40076576026E-02  0.83235625707E-02  0.29246418844E-01  0.51100000000E-03 0. -1.
</event>
<event>
 8    1  0.1088021E+005  0.1043930E+01  0.7957747E-01            NaN
         13   -1    0    0    0    0  0.00000000000E+00  0.00000000000E+00  0.74505805969E-08  0.10566000000E+00  0.10566000000E+00 0.  1.
     999900   -1    0    0    0    0 -0.00000000000E+00 -0.00000000000E+00 -0.74505805969E-08  0.93827000000E+00  0.93827000000E+00 0. -1.
     999902    2    1    2    0    0 -0.62101818464E-02 -0.23146768329E-01 -0.62597980842E-03  0.10199564501E+01  0.10196746682E+01 0.  0.
     999903    2    3    3    0    0 -0.21677343412E-02  0.12460049719E+00  0.17800373677E-01  0.12744027305E+00  0.19854141119E-01 0.  0.
         14    1    1    2    0    0  0.62101818464E-02  0.23146768329E-01  0.62597980842E-03  0.23973549870E-01  0.00000000000E+00 0. -1.
     999901    1    3    3    0    0 -0.40424475052E-02 -0.14774726552E+00 -0.18426353485E-01  0.89251617708E+00  0.88000000000E+00 0. -1.
        -11    1    4    4    0    0  0.77518755054E-02  0.82332861818E-01  0.13734035675E-01  0.83831238604E-01  0.51100000000E-03 0. -1.
         11    1    4    4    0    0 -0.99196098466E-02  0.42267635371E-01  0.40663380017E-02  0.43609034444E-01  0.51100000000E-03 0.  1.
</event>
<event>
 8    1  0.1088021E+005  0.1043930E+01  0.7957747E-01            NaN
         13   -1    0    0    0    0  0.00000000000E+00  0.00000000000E+00  0.74505805969E-08  0.10566000000E+00  0.10566000000E+00 0.  1.
     999900   -1    0    0    0    0 -0.00000000000E+00 -0.00000000000E+00 -0.74505805969E-08  0.93827000000E+00  0.93827000000E+00 0. -1.
     999902    2    1    2    0    0 -0.21352425728E-01  0.30477605406E-02 -0.81965789765E-02  0.10208562306E+01  0.10205954363E+01 0.  0.
     999903    2    3    3    0    0  0.86095439332E-02  0.72689634483E-01  0.10557658373E+00  0.13029907756E+00  0.21760684094E-01 0.  0.
         14    1    1    2    0    0  0.21352425728E-01 -0.30477605406E-02  0.81965789765E-02  0.23073769430E-01  0.00000000000E+00 0. -1.
     999901    1    3    3    0    0 -0.29961969661E-01 -0.69641873943E-01 -0.11377316270E+00  0.89055715301E+00  0.88000000000E+00 0. -1.
        -11    1    4    4    0    0 -0.60953657785E-02  0.31836235365E-01  0.52766255162E-01  0.61929299779E-01  0.51100000000E-03 0. -1.
         11    1    4    4    0    0  0.14704909712E-01  0.40853399118E-01  0.52810328566E-01  0.68369777778E-01  0.51100000000E-03 0.  1.
</event>
<event>
 8    1  0.1088021E+005  0.1043930E+01  0.7957747E-01            NaN
         13   -1    0    0    0    0  0.00000000000E+00  0.00000000000E+00  0.74505805969E-08  0.10566000000E+00  0.10566000000E+00 0.  1.
     999900   -1    0    0    0    0 -0.00000000000E+00 -0.00000000000E+00 -0.74505805969E-08  0.93827000000E+00  0.93827000000E+00 0. -1.
     999902    2    1    2    0    0 -0.11337580230E-01 -0.20410947359E-01  0.43393031069E-02  0.10201817990E+01  0.10199053515E+01 0.  0.
     999903    2    3    3    0    0  0.11189878156E+00 -0.37803984193E-01 -0.49731964277E-01  0.12978109118E+00  0.20478887228E-01 0.  0.
         14    1    1    2    0    0  0.11337580230E-01  0.20410947359E-01 -0.43393031069E-02  0.23748200964E-01  0.00000000000E+00 0.  1.
     999901    1    3    3    0    0 -0.12323636179E+00  0.17393036834E-01  0.54071267384E-01  0.89040070786E+00  0.88000000000E+00 0. -1.
        -11    1    4    4    0    0  0.31326665562E-01 -0.14809891838E-01 -0.23907106021E-01  0.42101112940E-01  0.51100000000E-03 0. -1.
         11    1    4    4    0    0  0.80572115995E-01 -0.22994092355E-01 -0.25824858256E-01  0.87679978239E-01  0.51100000000E-03 0.  1.
</event>
<event>
 8    1  0.1088021E+005  0.1043930E+01  0.7957747E-01            NaN
         13   -1    0    0    0    0  0.00000000000E+00  0.00000000000E+00  0.74505805969E-08  0.10566000000E+00  0.10566000000E+00 0. -1.
     999900   -1    0    0    0    0 -0.00000000000E+00 -0.00000000000E+00 -0.74505805969E-08  0.93827000000E+00  0.93827000000E+00 0. -1.
     999902    2    1    2    0    0 -0.63352646648E-02 -0.55958659581E-02 -0.21764090410E-01  0.10205820895E+01  0.10203149888E+01 0.  0.
     999903    2    3    3    0    0 -0.48992016740E-01  0.11873727398E+00  0.64215611399E-02  0.13037269887E+00  0.21378639494E-01 0.  0.
         14    1    1    2    0    0  0.63352646648E-02  0.55958659581E-02  0.21764090410E-01  0.23347910519E-01  0.00000000000E+00 0. -1.
     999901    1    3    3    0    0  0.42656752075E-01 -0.12433313994E+00 -0.28185651550E-01  0.89020939061E+00  0.88000000000E+00 0.  1.
        -11    1    4    4    0    0 -0.20922397654E-01  0.66076502752E-01  0.12345515397E-01  0.70402583837E-01  0.51100000000E-03 0.  1.
         11    1    4    4    0    0 -0.28069619085E-01  0.52660771226E-01 -0.59239542573E-02  0.59970115030E-01  0.51100000000E-03 0. -1.
</event>
<event>
 8    1  0.1088021E+005  0.1043930E+01  0.7957747E-01            NaN
         13   -1    0    0    0    0  0.00000000000E+00  0.00000000000E+00  0.74505805969E-08  0.10566000000E+00  0.10566000000E+00 0. -1.
     999900   -1    0    0    0    0 -0.00000000000E+00 -0.00000000000E+00 -0.74505805969E-08  0.93827000000E+00  0.93827000000E+00 0. -1.
     999902    2    1    2    0    0  0.43818236500E-03  0.10867798687E-01 -0.22754444546E-01  0.10187096551E+01  0.10183974153E+01 0.  0.
     999903    2    3    3    0    0  0.44222364295E-01  0.10995807959E+00 -0.54105317794E-01  0.13151248667E+00  0.17937445860E-01 0.  0.
         14    1    1    2    0    0 -0.43818236500E-03 -0.10867798687E-01  0.22754444546E-01  0.25220344936E-01  0.00000000000E+00 0. -1.
     999901    1    3    3    0    0 -0.43784181930E-01 -0.99090280907E-01  0.31350873247E-01  0.88719716840E+00  0.88000000000E+00 0. -1.
        -11    1    4    4    0    0  0.36895067692E-01  0.10313637177E+00 -0.52066889230E-01  0.12128305437E+00  0.51100000000E-03 0. -1.
         11    1    4    4    0    0  0.73272966037E-02  0.68217078261E-02 -0.20384285639E-02  0.10229432301E-01  0.51100000000E-03 0.  1.
</event>
<event>
 8    1  0.1088021E+005  0.1043930E+01  0.7957747E-01            NaN
         13   -1    0    0    0    0  0.00000000000E+00  0.00000000000E+00  0.74505805969E-08  0.10566000000E+00  0.10566000000E+00 0. -1.
     999900   -1    0    0    0    0 -0.00000000000E+00 -0.00000000000E+00 -0.74505805969E-08  0.93827000000E+00  0.93827000000E+00 0. -1.
     999902    2    1    2    0    0 -0.22999267431E-01 -0.59753653820E-02  0.37323437589E-02  0.10198758593E+01  0.10195921571E+01 0.  0.
     999903    2    3    3    0    0 -0.86702171043E-01  0.95261350226E-01  0.18811280113E-01  0.13165611915E+00  0.19684464405E-01 0.  0.
         14    1    1    2    0    0  0.22999267431E-01  0.59753653820E-02 -0.37323437589E-02  0.24054140678E-01  0.00000000000E+00 0. -1.
     999901    1    3    3    0    0  0.63702903613E-01 -0.10123671561E+00 -0.15078936354E-01  0.88821974018E+00  0.88000000000E+00 0. -1.
        -11    1    4    4    0    0 -0.61926164182E-01  0.69287883975E-01  0.45900119256E-02  0.93042947108E-01  0.51100000000E-03 0. -1.
         11    1    4    4    0    0 -0.24776006861E-01  0.25973466250E-01  0.14221268187E-01  0.38613172039E-01  0.51100000000E-03 0.  1.
</event>
<event>
 8    1  0.1088021E+005  0.1043930E+01  0.7957747E-01            NaN
         13   -1    0    0    0    0  0.00000000000E+00  0.00000000000E+00  0.74505805969E-08  0.10566000000E+00  0.10566000000E+00 0.  1.
     999900   -1    0    0    0    0 -0.00000000000E+00 -0.00000000000E+00 -0.74505805969E-08  0.93827000000E+00  0.93827000000E+00 0.  1.
     999902    2    1    2    0    0 -0.15151028371E-01 -0.30288396520E-02 -0.92669503617E-02  0.10259132328E+01  0.10257550182E+01 0.  0.
     999903    2    3    3    0    0 -0.11692771294E+00  0.68450909867E-01  0.66371373779E-03  0.13711265553E+00  0.21019578397E-01 0.  0.
         14    1    1    2    0    0  0.15151028371E-01  0.30288396520E-02  0.92669503617E-02  0.18016767172E-01  0.00000000000E+00 0.  1.
     999901    1    3    3    0    0  0.10177668457E+00 -0.71479749519E-01 -0.99306640995E-02  0.88880057730E+00  0.88000000000E+00 0. -1.
        -11    1    4    4    0    0 -0.30448902990E-01  0.24280379188E-01  0.78812218548E-02  0.39737227957E-01  0.51100000000E-03 0. -1.
         11    1    4    4    0    0 -0.86478809950E-01  0.44170530679E-01 -0.72175081170E-02  0.97375427574E-01  0.51100000000E-03 0.  1.
</event>
<event>
 8    1  0.1088021E+005  0.1043930E+01  0.7957747E-01            NaN
         13   -1    0    0    0    0  0.00000000000E+00  0.00000000000E+00  0.74505805969E-08  0.10566000000E+00  0.10566000000E+00 0. -1.
     999900   -1    0    0    0    0 -0.00000000000E+00 -0.00000000000E+00 -0.74505805969E-08  0.93827000000E+00  0.93827000000E+00 0.  1.
     999902    2    1    2    0    0 -0.82859453787E-02  0.22063244658E-01  0.98009369887E-03  0.10203417775E+01  0.10200690853E+01 0.  0.
     999903    2    3    3    0    0  0.31917218557E-02  0.92212570396E-01 -0.93116663325E-01  0.13247530985E+00  0.19121963908E-01 0.  0.
         14    1    1    2    0    0  0.82859453787E-02 -0.22063244658E-01 -0.98009369887E-03  0.23588222470E-01  0.00000000000E+00 0. -1.
     999901    1    3    3    0    0 -0.11477667234E-01 -0.70149325739E-01  0.94096757024E-01  0.88786646768E+00  0.88000000000E+00 0. -1.
        -11    1    4    4    0    0  0.48994182602E-02  0.15815143821E-01 -0.90846430037E-02  0.18892192379E-01  0.51100000000E-03 0.  1.
         11    1    4    4    0    0 -0.17076964045E-02  0.76397426575E-01 -0.84032020321E-01  0.11358311747E+00  0.51100000000E-03 0. -1.
</event>
<event>
 8    1  0.1088021E+005  0.1043930E+01  0.7957747E-01            NaN
         13   -1    0    0    0    0  0.00000000000E+00  0.00000000000E+00  0.74505805969E-08  0.10566000000E+00  0.10566000000E+00 0. -1.
     999900   -1    0    0    0    0 -0.00000000000E+00 -0.00000000000E+00 -0.74505805969E-08  0.93827000000E+00  0.93827000000E+00 0. -1.
     999902    2    1    2    0    0 -0.14641353313E-01  0.18417361507E-01 -0.95948675855E-03  0.10203824089E+01  0.10201106662E+01 0.  0.
     999903    2    3    3    0    0  0.11309616150E+00  0.60567487628E-01 -0.83013527355E-02  0.13013109112E+00  0.20150089683E-01 0.  0.
         14    1    1    2    0    0  0.14641353313E-01 -0.18417361507E-01  0.95948675855E-03  0.23547591098E-01  0.00000000000E+00 0. -1.
     999901    1    3    3    0    0 -0.12773751481E+00 -0.42150126122E-01  0.73418659769E-02  0.89025131779E+00  0.88000000000E+00 0. -1.
        -11    1    4    4    0    0  0.40248470518E-01  0.31593965069E-01 -0.75770754268E-02  0.51728050425E-01  0.51100000000E-03 0.  1.
         11    1    4    4    0    0  0.72847690982E-01  0.28973522559E-01 -0.72427730868E-03  0.78403040691E-01  0.51100000000E-03 0. -1.
</event>
<event>
 8    1  0.1088021E+005  0.1043930E+01  0.7957747E-01            NaN
         13   -1    0    0    0    0  0.00000000000E+00  0.00000000000E+00  0.74505805969E-08  0.10566000000E+00  0.10566000000E+00 0.  1.
     999900   -1    0    0    0    0 -0.00000000000E+00 -0.00000000000E+00 -0.74505805969E-08  0.93827000000E+00  0.93827000000E+00 0.  1.
     999902    2    1    2    0    0  0.23404041062E-01  0.24936729439E-02  0.43085524274E-02  0.10200023765E+01  0.10197216860E+01 0.  0.
     999903    2    3    3    0    0 -0.10372667024E+00 -0.22718419715E-01 -0.67895615333E-01  0.12758357950E+00  0.19809252002E-01 0.  0.
         14    1    1    2    0    0 -0.23404041062E-01 -0.24936729439E-02 -0.43085524274E-02  0.23927623509E-01  0.00000000000E+00 0.  1.
     999901    1    3    3    0    0  0.12713071130E+00  0.25212092659E-01  0.72204167760E-01  0.89241879699E+00  0.88000000000E+00 0. -1.
        -11    1    4    4    0    0 -0.99135902908E-02 -0.80415962228E-02 -0.11201965711E-01  0.16990929905E-01  0.51100000000E-03 0.  1.
         11    1    4    4    0    0 -0.93813079947E-01 -0.14676823493E-01 -0.56693649622E-01  0.11059264960E+00  0.51100000000E-03 0. -1.
</event>
<event>
 7    1  0.1088021E+005  0.1043930E+01  0.7957747E-01            NaN
         13   -1    0    0    0    0  0.00000000000E+00  0.00000000000E+00  0.74505805969E-08  0.10566000000E+00  0.10566000000E+00 0.  1.
     999900   -1    0    0    0    0 -0.00000000000E+00 -0.00000000000E+00 -0.74505805969E-08  0.93827000000E+00  0.93827000000E+00 0.  1.
     999903    2    1    2    0    0  0.75830064369E-02 -0.74891450396E-01  0.62450090228E-02  0.78408390034E-01  0.21039110269E-01 0.  0.
         14    1    1    2    0    0  0.74566375820E-01  0.30371042345E-01  0.19243686517E-02  0.80537244867E-01  0.00000000000E+00 0. -1.
     999901    1    1    2    0    0 -0.82149382257E-01  0.44520408052E-01 -0.81693776745E-02  0.88498436510E+00  0.88000000000E+00 0.  1.
        -11    1    3    3    0    0 -0.45310562501E-02 -0.93839585542E-02  0.54779997227E-02  0.11783834302E-01  0.51100000000E-03 0. -1.
         11    1    3    3    0    0  0.12114062687E-01 -0.65507491842E-01  0.76700930009E-03  0.66624555732E-01  0.51100000000E-03 0.  1.
</event>
<event>
 8    1  0.1088021E+005  0.1043930E+01  0.7957747E-01            NaN
         13   -1    0    0    0    0  0.00000000000E+00  0.00000000000E+00  0.74505805969E-08  0.10566000000E+00  0.10566000000E+00 0. -1.
     999900   -1    0    0    0    0 -0.00000000000E+00 -0.00000000000E+00 -0.74505805969E-08  0.93827000000E+00  0.93827000000E+00 0.  1.
     999902    2    1    2    0    0 -0.81300669865E-02  0.23015354855E-01 -0.32491074213E-03  0.10195187297E+01  0.10192264372E+01 0.  0.
     999903    2    3    3    0    0  0.10835560382E+00  0.69164480298E-01 -0.92732905284E-02  0.13059875203E+00  0.21103978293E-01 0.  0.
         14    1    1    2    0    0  0.81300669865E-02 -0.23015354855E-01  0.32491074213E-03  0.24411270252E-01  0.00000000000E+00 0.  1.
     999901    1    3    3    0    0 -0.11648567081E+00 -0.46149125443E-01  0.89483797863E-02  0.88891997772E+00  0.88000000000E+00 0.  1.
        -11    1    4    4    0    0  0.12260628911E-01  0.92292961043E-03  0.62652380858E-03  0.12321869722E-01  0.51100000000E-03 0. -1.
         11    1    4    4    0    0  0.96094974913E-01  0.68241550687E-01 -0.98998143370E-02  0.11827688231E+00  0.51100000000E-03 0.  1.
</event>
<event>
 8    1  0.1088021E+005  0.1043930E+01  0.7957747E-01            NaN
         13   -1    0    0    0    0  0.00000000000E+00  0.00000000000E+00  0.74505805969E-08  0.10566000000E+00  0.10566000000E+00 0.  1.
     999900   -1    0    0    0    0 -0.00000000000E+00 -0.00000000000E+00 -0.74505805969E-08  0.93827000000E+00  0.93827000000E+00 0. -1.
     999902    2    1    2    0    0  0.76589536915E-02 -0.75229025750E-02 -0.21095234221E-01  0.10202601343E+01  0.10199855289E+01 0.  0.
     999903    2    3    3    0    0  0.28325961476E-01  0.58848113577E-01  0.10839309051E+00  0.12807211420E+00  0.19696288991E-01 0.  0.
         14    1    1    2    0    0 -0.76589536915E-02  0.75229025750E-02  0.21095234221E-01  0.23669865687E-01  0.00000000000E+00 0.  1.
     999901    1    3    3    0    0 -0.20667007785E-01 -0.66371016152E-01 -0.12948832473E+00  0.89218802012E+00  0.88000000000E+00 0. -1.
        -11    1    4    4    0    0  0.17179173730E-01  0.49179928571E-01  0.72638159144E-01  0.89388772612E-01  0.51100000000E-03 0.  1.
         11    1    4    4    0    0  0.11146787746E-01  0.96681850065E-02  0.35754931364E-01  0.38683341586E-01  0.51100000000E-03 0. -1.
</event>
<event>
 8    1  0.1088021E+005  0.1043930E+01  0.7957747E-01            NaN
         13   -1    0    0    0    0  0.00000000000E+00  0.00000000000E+00  0.74505805969E-08  0.10566000000E+00  0.10566000000E+00 0. -1.
     999900   -1    0    0    0    0 -0.00000000000E+00 -0.00000000000E+00 -0.74505805969E-08  0.93827000000E+00  0.93827000000E+00 0. -1.
     999902    2    1    2    0    0 -0.20434113039E-01 -0.14828631652E-02 -0.12190632934E-01  0.10200896269E+01  0.10198110038E+01 0.  0.
     999903    2    3    3    0    0 -0.47938454035E-02 -0.25438659783E-01  0.12481947416E+00  0.12902831159E+00  0.19957397076E-01 0.  0.
         14    1    1    2    0    0  0.20434113039E-01  0.14828631652E-02  0.12190632934E-01  0.23840373113E-01  0.00000000000E+00 0. -1.
     999901    1    3    3    0    0 -0.15640267635E-01  0.23955796618E-01 -0.13701010709E+00  0.89106131529E+00  0.88000000000E+00 0. -1.
        -11    1    4    4    0    0  0.21087558886E-02 -0.25614198408E-01  0.95097842932E-01  0.98510887027E-01  0.51100000000E-03 0. -1.
         11    1    4    4    0    0 -0.69026012920E-02  0.17553862470E-03  0.29721631228E-01  0.30517424568E-01  0.51100000000E-03 0.  1.
</event>
<event>
 8    1  0.1088021E+005  0.1043930E+01  0.7957747E-01            NaN
         13   -1    0    0    0    0  0.00000000000E+00  0.00000000000E+00  0.74505805969E-08  0.10566000000E+00  0.10566000000E+00 0.  1.
     999900   -1    0    0    0    0 -0.00000000000E+00 -0.00000000000E+00 -0.74505805969E-08  0.93827000000E+00  0.93827000000E+00 0. -1.
     999902    2    1    2    0    0  0.66850488143E-02 -0.14722704935E-01 -0.16948329607E-01  0.10205057861E+01  0.10202369165E+01 0.  0.
     999903    2    3    3    0    0  0.76964274559E-01 -0.51301980403E-01  0.89916880398E-01  0.13050725464E+00  0.19791548259E-01 0.  0.
         14    1    1    2    0    0 -0.66850488143E-02  0.14722704935E-01  0.16948329607E-01  0.23424213855E-01  0.00000000000E+00 0.  1.
     999901    1    3    3    0    0 -0.70279225745E-01  0.36579275468E-01 -0.10686521000E+00  0.88999853150E+00  0.88000000000E+00 0. -1.
        -11    1    4    4    0    0  0.26988877125E-01 -0.16865696799E-01  0.44457592906E-01  0.54677142436E-01  0.51100000000E-03 0.  1.
         11    1    4    4    0    0  0.49975397434E-01 -0.34436283604E-01  0.45459287492E-01  0.75830112207E-01  0.51100000000E-03 0. -1.
</event>
<event>
 7    1  0.1088021E+005  0.1043930E+01  0.7957747E-01            NaN
         13   -1    0    0    0    0  0.00000000000E+00  0.00000000000E+00  0.74505805969E-08  0.10566000000E+00  0.10566000000E+00 0. -1.
     999900   -1    0    0    0    0 -0.00000000000E+00 -0.00000000000E+00 -0.74505805969E-08  0.93827000000E+00  0.93827000000E+00 0.  1.
     999902    2    1    2    0    0 -0.21030047125E-01 -0.72716293942E-02  0.71930545423E-02  0.10205445449E+01  0.10202765746E+01 0.  0.
         14    1    1    2    0    0  0.21030047125E-01  0.72716293942E-02 -0.71930545423E-02  0.23385455090E-01  0.00000000000E+00 0.  1.
     999901    1    3    3    0    0 -0.86486333533E-01  0.13562980571E-01 -0.97700995736E-01  0.88972429713E+00  0.88000000000E+00 0.  1.
        -11    1    3    3    0    0  0.25638238043E-02 -0.14317553835E-01  0.25047909290E-01  0.28969370396E-01  0.51100000000E-03 0.  1.
         11    1    3    3    0    0  0.62892462604E-01 -0.65170561307E-02  0.79846140988E-01  0.10185087739E+00  0.51100000000E-03 0. -1.
</event>
<event>
 8    1  0.1088021E+005  0.1043930E+01  0.7957747E-01            NaN
         13   -1    0    0    0    0  0.00000000000E+00  0.00000000000E+00  0.74505805969E-08  0.10566000000E+00  0.10566000000E+00 0. -1.
     999900   -1    0    0    0    0 -0.00000000000E+00 -0.00000000000E+00 -0.74505805969E-08  0.93827000000E+00  0.93827000000E+00 0. -1.
     999902    2    1    2    0    0  0.15400573020E-01  0.12763280497E-01 -0.12604971291E-01  0.10202875746E+01  0.10200136129E+01 0.  0.
     999903    2    3    3    0    0  0.11381172133E+00 -0.51007907580E-01 -0.39076068514E-01  0.13211403437E+00  0.19294154583E-01 0.  0.
         14    1    1    2    0    0 -0.15400573020E-01 -0.12763280497E-01  0.12604971291E-01  0.23642425418E-01  0.00000000000E+00 0. -1.
     999901    1    3    3    0    0 -0.98411148305E-01  0.63771188077E-01  0.26471097222E-01  0.88817354021E+00  0.88000000000E+00 0. -1.
        -11    1    4    4    0    0  0.65611693050E-01 -0.35428415278E-01 -0.31267621947E-01  0.80857851673E-01  0.51100000000E-03 0. -1.
         11    1    4    4    0    0  0.48200028276E-01 -0.15579492301E-01 -0.78084465665E-02  0.51256182699E-01  0.51100000000E-03 0.  1.
</event>
<event>
 8    1  0.1088021E+005  0.1043930E+01  0.7957747E-01            NaN
         13   -1    0    0    0    0  0.00000000000E+00  0.00000000000E+00  0.74505805969E-08  0.10566000000E+00  0.10566000000E+00 0. -1.
     999900   -1    0    0    0    0 -0.00000000000E+00 -0.00000000000E+00 -0.74505805969E-08  0.93827000000E+00  0.93827000000E+00 0.  1.
     999902    2    1    2    0    0  0.15385405095E-01  0.15077924447E-01 -0.93130585031E-02  0.10204611365E+01  0.10201912289E+01 0.  0.
     999903    2    3    3    0    0  0.79770332744E-01  0.36737172618E-01  0.95884900403E-01  0.13159604409E+00  0.20265212961E-01 0.  0.
         14    1    1    2    0    0 -0.15385405095E-01 -0.15077924447E-01  0.93130585031E-02  0.23468863506E-01  0.00000000000E+00 0. -1.
     999901    1    3    3    0    0 -0.64384927648E-01 -0.21659248170E-01 -0.10519795891E+00  0.88886509241E+00  0.88000000000E+00 0.  1.
        -11    1    4    4    0    0  0.30044198714E-01  0.67832340480E-02  0.44157271051E-01  0.53840429495E-01  0.51100000000E-03 0. -1.
         11    1    4    4    0    0  0.49726134029E-01  0.29953938570E-01  0.51727629352E-01  0.77755614593E-01  0.51100000000E-03 0.  1.
</event>
<event>
 8    1  0.1088021E+005  0.1043930E+01  0.7957747E-01            NaN
         13   -1    0    0    0    0  0.00000000000E+00  0.00000000000E+00  0.74505805969E-08  0.10566000000E+00  0.10566000000E+00 0. -1.
     999900   -1    0    0    0    0 -0.00000000000E+00 -0.00000000000E+00 -0.74505805969E-08  0.93827000000E+00  0.93827000000E+00 0.  1.
     999902    2    1    2    0    0 -0.10633645636E-01 -0.58334159753E-02  0.20617616440E-01  0.10200095220E+01  0.10197290011E+01 0.  0.
     999903    2    3    3    0    0 -0.96074356453E-01 -0.12525383554E-01  0.89771565933E-01  0.13314585363E+00  0.16784429911E-01 0.  0.
         14    1    1    2    0    0  0.10633645636E-01  0.58334159753E-02 -0.20617616440E-01  0.23920478029E-01  0.00000000000E+00 0.  1.
     999901    1    3    3    0    0  0.85440710817E-01  0.66919675791E-02 -0.69153949493E-01  0.88686366834E+00  0.88000000000E+00 0.  1.
        -11    1    4    4    0    0 -0.42668265022E-01 -0.22559485847E-02  0.29281028317E-01  0.51800674555E-01  0.51100000000E-03 0.  1.
         11    1    4    4    0    0 -0.53406091431E-01 -0.10269434970E-01  0.60490537617E-01  0.81345179075E-01  0.51100000000E-03 0. -1.
</event>
<event>
 8    1  0.1088021E+005  0.1043930E+01  0.7957747E-01            NaN
         13   -1    0    0    0    0  0.00000000000E+00  0.00000000000E+00  0.74505805969E-08  0.10566000000E+00  0.10566000000E+00 0.  1.
     999900   -1    0    0    0    0 -0.00000000000E+00 -0.00000000000E+00 -0.74505805969E-08  0.93827000000E+00  0.93827000000E+00 0.  1.
     999902    2    1    2    0    0  0.14106670799E-01 -0.54466765950E-02 -0.18429415688E-01  0.10200907926E+01  0.10198121971E+01 0.  0.
     999903    2    3    3    0    0 -0.44830313684E-01  0.16125878735E-01  0.11653914390E+00  0.12759123777E+00  0.20696639958E-01 0.  0.
         14    1    1    2    0    0 -0.14106670799E-01  0.54466765950E-02  0.18429415688E-01  0.23839207402E-01  0.00000000000E+00 0.  1.
     999901    1    3    3    0    0  0.58936984483E-01 -0.21572555330E-01 -0.13496855959E+00  0.89249955482E+00  0.88000000000E+00 0.  1.
        -11    1    4    4    0    0 -0.24779215017E-01  0.88402033230E-02  0.88658881092E-01  0.92481441430E-01  0.51100000000E-03 0. -1.
         11    1    4    4    0    0 -0.20051098667E-01  0.72856754122E-02  0.27880262809E-01  0.35109796343E-01  0.51100000000E-03 0.  1.
</event>
<event>
 8    1  0.1088021E+005  0.1043930E+01  0.7957747E-01            NaN
         13   -1    0    0    0    0  0.00000000000E+00  0.00000000000E+00  0.74505805969E-08  0.10566000000E+00  0.10566000000E+00 0. -1.
     999900   -1    0    0    0    0 -0.00000000000E+00 -0.00000000000E+00 -0.74505805969E-08  0.93827000000E+00  0.93827000000E+00 0.  1.
     999902    2    1    2    0    0 -0.11764028297E-01 -0.97140332884E-02  0.17879398589E-01  0.10204262195E+01  0.10201554988E+01 0.  0.
     999903    2    3    3    0    0 -0.10825896681E+00  0.11638101080E-02  0.74862111419E-01  0.13325282595E+00  0.20751422851E-01 0.  0.
         14    1    1    2    0    0  0.11764028297E-01  0.97140332884E-02 -0.17879398589E-01  0.23503780513E-01  0.00000000000E+00 0.  1.
     999901    1    3    3    0    0  0.96494938509E-01 -0.10877843396E-01 -0.56982712829E-01  0.88717339353E+00  0.88000000000E+00 0.  1.
        -11    1    4    4    0    0 -0.56920534637E-01  0.79109235351E-02  0.30475980352E-01  0.65050568590E-01  0.51100000000E-03 0. -1.
         11    1    4    4    0    0 -0.51338432169E-01 -0.67471134270E-02  0.44386131067E-01  0.68202257362E-01  0.51100000000E-03 0.  1.
</event>
<event>
 8    1  0.1088021E+005  0.1043930E+01  0.7957747E-01            NaN
         13   -1    0    0    0    0  0.00000000000E+00  0.00000000000E+00  0.74505805969E-08  0.10566000000E+00  0.10566000000E+00 0.  1.
     999900   -1    0    0    0    0 -0.00000000000E+00 -0.00000000000E+00 -0.74505805969E-08  0.93827000000E+00  0.93827000000E+00 0.  1.
     999902    2    1    2    0    0 -0.22402423769E-01  0.65391579556E-02 -0.19133324625E-02  0.10205144065E+01  0.10202457370E+01 0.  0.
     999903    2    3    3    0    0 -0.79848479527E-01 -0.26489642671E-01  0.99972202751E-01  0.13216109094E+00  0.19865341283E-01 0.  0.
         14    1    1    2    0    0  0.22402423769E-01 -0.65391579556E-02  0.19133324625E-02  0.23415593492E-01  0.00000000000E+00 0.  1.
     999901    1    3    3    0    0  0.57446055758E-01  0.33028800627E-01 -0.10188553521E+00  0.88835331557E+00  0.88000000000E+00 0.  1.
        -11    1    4    4    0    0 -0.21801604078E-01 -0.43495494990E-02  0.40244274358E-01  0.45979248154E-01  0.51100000000E-03 0.  1.
         11    1    4    4    0    0 -0.58046875449E-01 -0.22140093172E-01  0.59727928392E-01  0.86181842787E-01  0.51100000000E-03 0. -1.
</event>
<event>
 8    1  0.1088021E+005  0.1043930E+01  0.7957747E-01            NaN
         13   -1    0    0    0    0  0.00000000000E+00  0.00000000000E+00  0.74505805969E-08  0.10566000000E+00  0.10566000000E+00 0. -1.
     999900   -1    0    0    0    0 -0.00000000000E+00 -0.00000000000E+00 -0.74505805969E-08  0.93827000000E+00  0.93827000000E+00 0. -1.
     999902    2    1    2    0    0  0.90329179449E-02  0.15049459388E-01  0.15233468246E-01  0.10206891225E+01  0.10204244932E+01 0.  0.
     999903    2    3    3    0    0 -0.37290171893E-02  0.13950701795E-01  0.13059522862E+00  0.13306735052E+00  0.21054177398E-01 0.  0.
         14    1    1    2    0    0 -0.90329179449E-02 -0.15049459388E-01 -0.15233468246E-01  0.23240877549E-01  0.00000000000E+00 0.  1.
     999901    1    3    3    0    0  0.12761935134E-01  0.10987575932E-02 -0.11536176037E+00  0.88762177193E+00  0.88000000000E+00 0. -1.
        -11    1    4    4    0    0  0.40738388971E-02  0.80348995034E-02  0.18909089651E-01  0.20951624419E-01  0.51100000000E-03 0.  1.
         11    1    4    4    0    0 -0.78028560864E-02  0.59158022917E-02  0.11168613897E+00  0.11211572610E+00  0.51100000000E-03 0. -1.
</event>
<event>
 8    1  0.1088021E+005  0.1043930E+01  0.7957747E-01            NaN
         13   -1    0    0    0    0  0.00000000000E+00  0.00000000000E+00  0.74505805969E-08  0.10566000000E+00  0.10566000000E+00 0.  1.
     999900   -1    0    0    0    0 -0.00000000000E+00 -0.00000000000E+00 -0.74505805969E-08  0.93827000000E+00  0.93827000000E+00 0. -1.
     999902    2    1    2    0    0  0.18452333527E-01  0.59634270830E-02 -0.81851182044E-02  0.10228813127E+01  0.10226647216E+01 0.  0.
     999903    2    3    3    0    0 -0.21942700715E-01 -0.94480119536E-01  0.86222810970E-01  0.13123478977E+00  0.19499277192E-01 0.  0.
         14    1    1    2    0    0 -0.18452333527E-01 -0.59634270830E-02  0.81851182044E-02  0.21048687255E-01  0.00000000000E+00 0. -1.
     999901    1    3    3    0    0  0.40395034242E-01  0.10044354662E+00 -0.94407929175E-01  0.89164652298E+00  0.88000000000E+00 0. -1.
        -11    1    4    4    0    0 -0.93820017790E-02 -0.75701728614E-01  0.64655421945E-01  0.99996791851E-01  0.51100000000E-03 0. -1.
         11    1    4    4    0    0 -0.12560698936E-01 -0.18778390922E-01  0.21567389025E-01  0.31237997915E-01  0.51100000000E-03 0.  1.
</event>
<event>
 8    1  0.1088021E+005  0.1043930E+01  0.7957747E-01            NaN
         13   -1    0    0    0    0  0.00000000000E+00  0.00000000000E+00  0.74505805969E-08  0.10566000000E+00  0.10566000000E+00 0.  1.
     999900   -1    0    0    0    0 -0.00000000000E+00 -0.00000000000E+00 -0.74505805969E-08  0.93827000000E+00  0.93827000000E+00 0. -1.
     999902    2    1    2    0    0 -0.75536388214E-02  0.21688902565E-01 -0.53812252383E-02  0.10203413684E+01  0.10200686666E+01 0.  0.
     999903    2    3    3    0    0 -0.10837294431E+00  0.74260834199E-01  0.69344145916E-02  0.13294066112E+00  0.19125028643E-01 0.  0.
         14    1    1    2    0    0  0.75536388214E-02 -0.21688902565E-01  0.53812252383E-02  0.23588631563E-01  0.00000000000E+00 0.  1.
     999901    1    3    3    0    0  0.10081930549E+00 -0.52571931634E-01 -0.12315639830E-01  0.88740070731E+00  0.88000000000E+00 0.  1.
        -11    1    4    4    0    0 -0.72775924684E-01  0.42015805398E-01  0.10924689485E-01  0.84742392450E-01  0.51100000000E-03 0.  1.
         11    1    4    4    0    0 -0.35597019624E-01  0.32245028801E-01 -0.39902748931E-02  0.48198268675E-01  0.51100000000E-03 0. -1.
</event>
<event>
 8    1  0.1088021E+005  0.1043930E+01  0.7957747E-01            NaN
         13   -1    0    0    0    0  0.00000000000E+00  0.00000000000E+00  0.74505805969E-08  0.10566000000E+00  0.10566000000E+00 0. -1.
     999900   -1    0    0    0    0 -0.00000000000E+00 -0.00000000000E+00 -0.74505805969E-08  0.93827000000E+00  0.93827000000E+00 0. -1.
     999902    2    1    2    0    0 -0.18905481990E-01  0.11188322693E-01  0.86695840837E-02  0.10203131098E+01  0.10200397466E+01 0.  0.
     999903    2    3    3    0    0 -0.59042560342E-01  0.28222081470E-01 -0.11108395776E+00  0.13113256303E+00  0.23949814192E-01 0.  0.
         14    1    1    2    0    0  0.18905481990E-01 -0.11188322693E-01 -0.86695840837E-02  0.23616890188E-01  0.00000000000E+00 0.  1.
     999901    1    3    3    0    0  0.40137078351E-01 -0.17033758777E-01  0.11975354184E+00  0.88918054679E+00  0.88000000000E+00 0.  1.
        -11    1    4    4    0    0 -0.25703318371E-01  0.76278958029E-02 -0.25511297344E-01  0.37012603027E-01  0.51100000000E-03 0.  1.
         11    1    4    4    0    0 -0.33339241971E-01  0.20594185667E-01 -0.85572660417E-01  0.94119960000E-01  0.51100000000E-03 0. -1.
</event>
<event>
 8    1  0.1088021E+005  0.1043930E+01  0.7957747E-01            NaN
         13   -1    0    0    0    0  0.00000000000E+00  0.00000000000E+00  0.74505805969E-08  0.10566000000E+00  0.10566000000E+00 0.  1.
     999900   -1    0    0    0    0 -0.00000000000E+00 -0.00000000000E+00 -0.74505805969E-08  0.93827000000E+00  0.93827000000E+00 0.  1.
     999902    2    1    2    0    0  0.13408810055E-01  0.46967660060E-02  0.19703464260E-01  0.10196383903E+01  0.10193489906E+01 0.  0.
     999903    2    3    3    0    0  0.95247884489E-01 -0.25625766632E-01  0.86589376919E-01  0.13279521623E+00  0.20199253499E-01 0.  0.
         14    1    1    2    0    0 -0.13408810055E-01 -0.46967660060E-02 -0.19703464260E-01  0.24291609701E-01  0.00000000000E+00 0. -1.
     999901    1    3    3    0    0 -0.81839074434E-01  0.30322532638E-01 -0.66885912659E-01  0.88684317407E+00  0.88000000000E+00 0.  1.
        -11    1    4    4    0    0  0.39042105818E-01 -0.10075803651E-02  0.29072989102E-01  0.48690872463E-01  0.51100000000E-03 0.  1.
         11    1    4    4    0    0  0.56205778671E-01 -0.24618186267E-01  0.57516387817E-01  0.84104343762E-01  0.51100000000E-03 0. -1.
</event>
<event>
 8    1  0.1088021E+005  0.1043930E+01  0.7957747E-01            NaN
         13   -1    0    0    0    0  0.00000000000E+00  0.00000000000E+00  0.74505805969E-08  0.10566000000E+00  0.10566000000E+00 0. -1.
     999900   -1    0    0    0    0 -0.00000000000E+00 -0.00000000000E+00 -0.74505805969E-08  0.93827000000E+00  0.93827000000E+00 0.  1.
     999902    2    1    2    0    0  0.12888007896E-01  0.97090524374E-02  0.17048998494E-01  0.10204558696E+01  0.10201858395E+01 0.  0.
     999903    2    3    3    0    0  0.17177000569E-02 -0.10925715080E+00  0.69143896771E-01  0.13085392960E+00  0.20044873081E-01 0.  0.
         14    1    1    2    0    0 -0.12888007896E-01 -0.97090524374E-02 -0.17048998494E-01  0.23474130365E-01  0.00000000000E+00 0.  1.
     999901    1    3    3    0    0  0.11170307839E-01  0.11896620324E+00 -0.52094898277E-01  0.88960194004E+00  0.88000000000E+00 0.  1.
        -11    1    4    4    0    0  0.62992254516E-02 -0.15649242327E-01  0.15222362027E-01  0.22727966327E-01  0.51100000000E-03 0. -1.
         11    1    4    4    0    0 -0.45815253947E-02 -0.93607908471E-01  0.53921534744E-01  0.10812596327E+00  0.51100000000E-03 0.  1.
</event>
<event>
 8    1  0.1088021E+005  0.1043930E+01  0.7957747E-01            NaN
         13   -1    0    0    0    0  0.00000000000E+00  0.00000000000E+00  0.74505805969E-08  0.10566000000E+00  0.10566000000E+00 0. -1.
     999900   -1    0    0    0    0 -0.00000000000E+00 -0.00000000000E+00 -0.74505805969E-08  0.93827000000E+00  0.93827000000E+00 0. -1.
     999902    2    1    2    0    0  0.19838571860E-01  0.58922100492E-02  0.74488284190E-02  0.10219351798E+01  0.10216984582E+01 0.  0.
     999903    2    3    3    0    0  0.71995799166E-01  0.51927277296E-01 -0.97030815526E-01  0.13302821062E+00  0.20042166427E-01 0.  0.
         14    1    1    2    0    0 -0.19838571860E-01 -0.58922100492E-02 -0.74488284190E-02  0.21994820243E-01  0.00000000000E+00 0.  1.
     999901    1    3    3    0    0 -0.52157227306E-01 -0.46035067247E-01  0.10447964394E+00  0.88890696913E+00  0.88000000000E+00 0.  1.
        -11    1    4    4    0    0  0.23554391975E-01  0.29116925831E-01 -0.40405331668E-01  0.55094978894E-01  0.51100000000E-03 0. -1.
         11    1    4    4    0    0  0.48441407191E-01  0.22810351465E-01 -0.56625483858E-01  0.77933231729E-01  0.51100000000E-03 0.  1.
</event>
<event>
 8    1  0.1088021E+005  0.1043930E+01  0.7957747E-01            NaN
         13   -1    0    0    0    0  0.00000000000E+00  0.00000000000E+00  0.74505805969E-08  0.10566000000E+00  0.10566000000E+00 0. -1.
     999900   -1    0    0    0    0 -0.00000000000E+00 -0.00000000000E+00 -0.74505805969E-08  0.93827000000E+00  0.93827000000E+00 0. -1.
     999902    2    1    2    0    0  0.12479086463E-01 -0.22890155655E-02  0.19838598377E-01  0.10203813869E+01  0.10201096204E+01 0.  0.
     999903    2    3    3    0    0 -0.92290910695E-01  0.75066399844E-01 -0.43659216463E-01  0.12853353833E+00  0.21498062939E-01 0.  0.
         14    1    1    2    0    0 -0.12479086463E-01  0.22890155655E-02 -0.19838598377E-01  0.23548613054E-01  0.00000000000E+00 0.  1.
     999901    1    3    3    0    0  0.10476999716E+00 -0.77355415409E-01  0.63497814840E-01  0.89184784862E+00  0.88000000000E+00 0.  1.
        -11    1    4    4    0    0 -0.69968461123E-01  0.54844748310E-01 -0.42103478403E-01  0.98369182083E-01  0.51100000000E-03 0. -1.
         11    1    4    4    0    0 -0.22322449572E-01  0.20221651534E-01 -0.15557380598E-02  0.30164356243E-01  0.51100000000E-03 0.  1.
</event>
<event>
 8    1  0.1333828E+005  0.1043930E+01  0.7957747E-01            NaN
         13   -1    0    0    0    0  0.00000000000E+00  0.00000000000E+00  0.74505805969E-08  0.10566000000E+00  0.10566000000E+00 0. -1.
     999900   -1    0    0    0    0 -0.00000000000E+00 -0.00000000000E+00 -0.74505805969E-08  0.93827000000E+00  0.93827000000E+00 0.  1.
     999902    2    1    2    0    0 -0.13812601051E-02 -0.32016287911E-02 -0.23824271938E-01  0.10198519137E+01  0.10195676396E+01 0.  0.
     999903    2    3    3    0    0  0.73323952613E-01  0.37325144079E-01 -0.10163781009E+00  0.13233952796E+00  0.20345461762E-01 0.  0.
         14    1    1    2    0    0  0.13812601051E-02  0.32016287911E-02  0.23824271938E-01  0.24078086298E-01  0.00000000000E+00 0. -1.
     999901    1    3    3    0    0 -0.74705212718E-01 -0.40526772870E-01  0.77813538147E-01  0.88751238574E+00  0.88000000000E+00 0. -1.
        -11    1    4    4    0    0  0.56747716061E-02  0.61952293691E-02 -0.20746378319E-01  0.22388774734E-01  0.51100000000E-03 0. -1.
         11    1    4    4    0    0  0.67649181007E-01  0.31129914710E-01 -0.80891431766E-01  0.10995075323E+00  0.51100000000E-03 0.  1.
</event>
<event>
 8    1  0.1176132E+005  0.1043930E+01  0.7957747E-01            NaN
         13   -1    0    0    0    0  0.00000000000E+00  0.00000000000E+00  0.74505805969E-08  0.10566000000E+00  0.10566000000E+00 0.  1.
     999900   -1    0    0    0    0 -0.00000000000E+00 -0.00000000000E+00 -0.74505805969E-08  0.93827000000E+00  0.93827000000E+00 0. -1.
     999902    2    1    2    0    0  0.15470499275E-01  0.16960906727E-01  0.57725766346E-02  0.10202586809E+01  0.10199840414E+01 0.  0.
     999903    2    3    3    0    0  0.23576641415E-02 -0.12613239537E+00 -0.14346303704E-01  0.12837729371E+00  0.18972964170E-01 0.  0.
         14    1    1    2    0    0 -0.15470499275E-01 -0.16960906727E-01 -0.57725766346E-02  0.23671319055E-01  0.00000000000E+00 0. -1.
     999901    1    3    3    0    0  0.13112835133E-01  0.14309330209E+00  0.20118880339E-01  0.89188138723E+00  0.88000000000E+00 0.  1.
        -11    1    4    4    0    0  0.10237849839E-01 -0.89728535625E-01 -0.94068263648E-02  0.90800733356E-01  0.51100000000E-03 0.  1.
         11    1    4    4    0    0 -0.78801856973E-02 -0.36403859742E-01 -0.49394773395E-02  0.37576560355E-01  0.51100000000E-03 0. -1.
</event>
<event>
 8    1  0.1088021E+005  0.1043930E+01  0.7957747E-01            NaN
         13   -1    0    0    0    0  0.00000000000E+00  0.00000000000E+00  0.74505805969E-08  0.10566000000E+00  0.10566000000E+00 0.  1.
     999900   -1    0    0    0    0 -0.00000000000E+00 -0.00000000000E+00 -0.74505805969E-08  0.93827000000E+00  0.93827000000E+00 0. -1.
     999902    2    1    2    0    0  0.12701298467E-01  0.39588849140E-02 -0.18558849499E-01  0.10210952316E+01  0.10208398725E+01 0.  0.
     999903    2    3    3    0    0 -0.10344861724E-01 -0.12590776654E+00  0.23875778986E-01  0.13025452175E+00  0.20890327275E-01 0.  0.
         14    1    1    2    0    0 -0.12701298467E-01 -0.39588849140E-02  0.18558849499E-01  0.22834768386E-01  0.00000000000E+00 0.  1.
     999901    1    3    3    0    0  0.23046160191E-01  0.12986665146E+00 -0.42434628485E-01  0.89084070987E+00  0.88000000000E+00 0. -1.
        -11    1    4    4    0    0 -0.14510810895E-01 -0.81812351489E-01  0.21839458983E-01  0.85913023335E-01  0.51100000000E-03 0.  1.
         11    1    4    4    0    0  0.41659491717E-02 -0.44095415054E-01  0.20363200031E-02  0.44341498413E-01  0.51100000000E-03 0. -1.
</event>
<event>
 8    1  0.1088021E+005  0.1043930E+01  0.7957747E-01            NaN
         13   -1    0    0    0    0  0.00000000000E+00  0.00000000000E+00  0.74505805969E-08  0.10566000000E+00  0.10566000000E+00 0. -1.
     999900   -1    0    0    0    0 -0.00000000000E+00 -0.00000000000E+00 -0.74505805969E-08  0.93827000000E+00  0.93827000000E+00 0. -1.
     999902    2    1    2    0    0  0.62306803992E-02 -0.17415717980E-01  0.14700671085E-01  0.10203029320E+01  0.10200293303E+01 0.  0.
     999903    2    3    3    0    0  0.44754100958E-01 -0.91152747794E-01 -0.80746631707E-01  0.13124084695E+00  0.19808795859E-01 0.  0.
         14    1    1    2    0    0 -0.62306803992E-02  0.17415717980E-01 -0.14700671085E-01  0.23627067980E-01  0.00000000000E+00 0. -1.
     999901    1    3    3    0    0 -0.38523420559E-01  0.73737029815E-01  0.95447302792E-01  0.88906208507E+00  0.88000000000E+00 0.  1.
        -11    1    4    4    0    0  0.80969945884E-02 -0.33733045308E-01 -0.20507939436E-01  0.40302808438E-01  0.51100000000E-03 0. -1.
         11    1    4    4    0    0  0.36657106369E-01 -0.57419702487E-01 -0.60238692271E-01  0.90938038513E-01  0.51100000000E-03 0.  1.
</event>
<event>
 8    1  0.1088021E+005  0.1043930E+01  0.7957747E-01            NaN
         13   -1    0    0    0    0  0.00000000000E+00  0.00000000000E+00  0.74505805969E-08  0.10566000000E+00  0.10566000000E+00 0.  1.
     999900   -1    0    0    0    0 -0.00000000000E+00 -0.00000000000E+00 -0.74505805969E-08  0.93827000000E+00  0.93827000000E+00 0.  1.
     999902    2    1    2    0    0  0.23168572482E-02  0.11821985117E-01  0.19808374478E-01  0.10207459784E+01  0.10204826571E+01 0.  0.
     999903    2    3    3    0    0 -0.56598101987E-01 -0.23839596462E-01 -0.11097878902E+00  0.12841868249E+00  0.20084692987E-01 0.  0.
         14    1    1    2    0    0 -0.23168572482E-02 -0.11821985117E-01 -0.19808374478E-01  0.23184021633E-01  0.00000000000E+00 0. -1.
     999901    1    3    3    0    0  0.58914959235E-01  0.35661581578E-01  0.13078716350E+00  0.89232729587E+00  0.88000000000E+00 0. -1.
        -11    1    4    4    0    0 -0.18885885948E-01  0.17171106965E-02 -0.29683006026E-01  0.35227363298E-01  0.51100000000E-03 0. -1.
         11    1    4    4    0    0 -0.37712216039E-01 -0.25556707158E-01 -0.81295782999E-01  0.93191319197E-01  0.51100000000E-03 0.  1.
</event>
<event>
 8    1  0.1088021E+005  0.1043930E+01  0.7957747E-01            NaN
         13   -1    0    0    0    0  0.00000000000E+00  0.00000000000E+00  0.74505805969E-08  0.10566000000E+00  0.10566000000E+00 0. -1.
     999900   -1    0    0    0    0 -0.00000000000E+00 -0.00000000000E+00 -0.74505805969E-08  0.93827000000E+00  0.93827000000E+00 0.  1.
     999902    2    1    2    0    0  0.20824026647E-01  0.12313932186E-01 -0.82085281844E-02  0.10183829268E+01  0.10180624405E+01 0.  0.
     999903    2    3    3    0    0  0.10465599595E+00  0.49624127346E-01  0.59682247431E-01  0.13101096022E+00  0.13655384868E-01 0.  0.
         14    1    1    2    0    0 -0.20824026647E-01 -0.12313932186E-01  0.82085281844E-02  0.25547073152E-01  0.00000000000E+00 0.  1.
     999901    1    3    3    0    0 -0.83831969307E-01 -0.37310195160E-01 -0.67890775616E-01  0.88737196663E+00  0.88000000000E+00 0.  1.
        -11    1    4    4    0    0  0.96266793510E-01  0.44203757822E-01  0.50181190681E-01  0.11721638434E+00  0.51100000000E-03 0.  1.
         11    1    4    4    0    0  0.83892024433E-02  0.54203695249E-02  0.95010567507E-02  0.13794575883E-01  0.51100000000E-03 0. -1.
</event>
<event>
 8    1  0.1088021E+005  0.1043930E+01  0.7957747E-01            NaN
         13   -1    0    0    0    0  0.00000000000E+00  0.00000000000E+00  0.74505805969E-08  0.10566000000E+00  0.10566000000E+00 0. -1.
     999900   -1    0    0    0    0 -0.00000000000E+00 -0.00000000000E+00 -0.74505805969E-08  0.93827000000E+00  0.93827000000E+00 0.  1.
     999902    2    1    2    0    0 -0.16773103996E-01  0.11225614026E-01 -0.11474055484E-01  0.10207135107E+01  0.10204494429E+01 0.  0.
     999903    2    3    3    0    0 -0.23020716096E-02  0.89100941598E-01  0.93970387551E-01  0.13088627575E+00  0.18881369549E-01 0.  0.
         14    1    1    2    0    0  0.16773103996E-01 -0.11225614026E-01  0.11474055484E-01  0.23216489338E-01  0.00000000000E+00 0. -1.
     999901    1    3    3    0    0 -0.14471032387E-01 -0.77875327572E-01 -0.10544444304E+00  0.88982723491E+00  0.88000000000E+00 0. -1.
        -11    1    4    4    0    0 -0.54726308982E-02  0.66944926660E-01  0.59215824657E-01  0.89545228267E-01  0.51100000000E-03 0. -1.
         11    1    4    4    0    0  0.31705592886E-02  0.22156014937E-01  0.34754562894E-01  0.41341047484E-01  0.51100000000E-03 0.  1.
</event>
<event>
 8    1  0.1088021E+005  0.1043930E+01  0.7957747E-01            NaN
         13   -1    0    0    0    0  0.00000000000E+00  0.00000000000E+00  0.74505805969E-08  0.10566000000E+00  0.10566000000E+00 0. -1.
     999900   -1    0    0    0    0 -0.00000000000E+00 -0.00000000000E+00 -0.74505805969E-08  0.93827000000E+00  0.93827000000E+00 0. -1.
     999902    2    1    2    0    0  0.11168915176E-02  0.23683180692E-01  0.27741243210E-02  0.10200587566E+01  0.10197794030E+01 0.  0.
     999903    2    3    3    0    0 -0.94085307350E-01 -0.82799487001E-01  0.19339977424E-01  0.12838816461E+00  0.20042105115E-01 0.  0.
         14    1    1    2    0    0 -0.11168915176E-02 -0.23683180692E-01 -0.27741243210E-02  0.23871243371E-01  0.00000000000E+00 0. -1.
     999901    1    3    3    0    0  0.95202198868E-01  0.10648266769E+00 -0.16565853103E-01  0.89167059202E+00  0.88000000000E+00 0. -1.
        -11    1    4    4    0    0 -0.22388882158E-01 -0.15232897633E-01  0.11917881840E-01  0.29590543137E-01  0.51100000000E-03 0. -1.
         11    1    4    4    0    0 -0.71696425192E-01 -0.67566589368E-01  0.74220955834E-02  0.98797621470E-01  0.51100000000E-03 0.  1.
</event>
<event>
 8    1  0.1088021E+005  0.1043930E+01  0.7957747E-01            NaN
         13   -1    0    0    0    0  0.00000000000E+00  0.00000000000E+00  0.74505805969E-08  0.10566000000E+00  0.10566000000E+00 0.  1.
     999900   -1    0    0    0    0 -0.00000000000E+00 -0.00000000000E+00 -0.74505805969E-08  0.93827000000E+00  0.93827000000E+00 0. -1.
     999902    2    1    2    0    0 -0.23583797941E-01 -0.19054392428E-02  0.26528033217E-02  0.10201211027E+01  0.10198432236E+01 0.  0.
     999903    2    3    3    0    0 -0.12835989652E+00  0.30170110771E-01 -0.35748019152E-02  0.13330339045E+00  0.19248794189E-01 0.  0.
         14    1    1    2    0    0  0.23583797941E-01  0.19054392428E-02 -0.26528033217E-02  0.23808897276E-01  0.00000000000E+00 0.  1.
     999901    1    3    3    0    0  0.10477609858E+00 -0.32075550014E-01  0.62276052369E-02  0.88681771228E+00  0.88000000000E+00 0.  1.
        -11    1    4    4    0    0 -0.31424815532E-01  0.16065463016E-01 -0.69328451341E-03  0.35303822704E-01  0.51100000000E-03 0. -1.
         11    1    4    4    0    0 -0.96935080987E-01  0.14104647755E-01 -0.28815174018E-02  0.97999567743E-01  0.51100000000E-03 0.  1.
</event>
<event>
 8    1  0.1088021E+005  0.1043930E+01  0.7957747E-01            NaN
         13   -1    0    0    0    0  0.00000000000E+00  0.00000000000E+00  0.74505805969E-08  0.10566000000E+00  0.10566000000E+00 0.  1.
     999900   -1    0    0    0    0 -0.00000000000E+00 -0.00000000000E+00 -0.74505805969E-08  0.93827000000E+00  0.93827000000E+00 0.  1.
     999902    2    1    2    0    0  0.54186458616E-02 -0.23437469446E-01  0.13579131730E-03  0.10198739169E+01  0.10195901682E+01 0.  0.
     999903    2    3    3    0    0  0.40320754937E-02 -0.81282885490E-01  0.10148782854E+00  0.13216887002E+00  0.23359489593E-01 0.  0.
         14    1    1    2    0    0 -0.54186458616E-02  0.23437469446E-01 -0.13579131730E-03  0.24056083145E-01  0.00000000000E+00 0. -1.
     999901    1    3    3    0    0  0.13865703679E-02  0.57845416045E-01 -0.10135203722E+00  0.88770504684E+00  0.88000000000E+00 0.  1.
        -11    1    4    4    0    0  0.13047923597E-01 -0.33188457092E-01  0.40158896909E-01  0.53709590543E-01  0.51100000000E-03 0. -1.
         11    1    4    4    0    0 -0.90158481037E-02 -0.48094428398E-01  0.61328931626E-01  0.78459279473E-01  0.51100000000E-03 0.  1.
</event>
<event>
 8    1  0.1088021E+005  0.1043930E+01  0.7957747E-01            NaN
         13   -1    0    0    0    0  0.00000000000E+00  0.00000000000E+00  0.74505805969E-08  0.10566000000E+00  0.10566000000E+00 0.  1.
     999900   -1    0    0    0    0 -0.00000000000E+00 -0.00000000000E+00 -0.74505805969E-08  0.93827000000E+00  0.93827000000E+00 0. -1.
     999902    2    1    2    0    0  0.17217277333E-01 -0.17497617318E-02  0.15933644283E-01  0.10204060266E+01  0.10201348351E+01 0.  0.
     999903    2    3    3    0    0 -0.55408814520E-01 -0.11579899726E+00  0.50599553876E-03  0.12994558969E+00  0.20150825148E-01 0.  0.
         14    1    1    2    0    0 -0.17217277333E-01  0.17497617318E-02 -0.15933644283E-01  0.23523973411E-01  0.00000000000E+00 0. -1.
     999901    1    3    3    0    0  0.72626091853E-01  0.11404923553E+00  0.15427648744E-01  0.89046043690E+00  0.88000000000E+00 0.  1.
        -11    1    4    4    0    0 -0.32011385274E-01 -0.80155846942E-01  0.78839070072E-02  0.86672404472E-01  0.51100000000E-03 0.  1.
         11    1    4    4    0    0 -0.23397429245E-01 -0.35643150320E-01 -0.73779114685E-02  0.43273185215E-01  0.51100000000E-03 0. -1.
</event>
<event>
 8    1  0.1088021E+005  0.1043930E+01  0.7957747E-01            NaN
         13   -1    0    0    0    0  0.00000000000E+00  0.00000000000E+00  0.74505805969E-08  0.10566000000E+00  0.10566000000E+00 0. -1.
     999900   -1    0    0    0    0 -0.00000000000E+00 -0.00000000000E+00 -0.74505805969E-08  0.93827000000E+00  0.93827000000E+00 0. -1.
     999902    2    1    2    0    0 -0.10997304174E-01  0.21436454534E-01  0.89289398533E-02  0.10182358713E+01  0.10179116373E+01 0.  0.
     999903    2    3    3    0    0 -0.10770910107E+00 -0.26802787517E-01  0.64743887462E-01  0.12986910893E+00  0.18830151848E-01 0.  0.
         14    1    1    2    0    0  0.10997304174E-01 -0.21436454534E-01 -0.89289398533E-02  0.25694128687E-01  0.00000000000E+00 0. -1.
     999901    1    3    3    0    0  0.96711796895E-01  0.48239242051E-01 -0.55814947609E-01  0.88836676238E+00  0.88000000000E+00 0. -1.
        -11    1    4    4    0    0 -0.17158065846E-01 -0.10784516458E-01  0.78824410842E-02  0.21750839461E-01  0.51100000000E-03 0. -1.
         11    1    4    4    0    0 -0.90551035223E-01 -0.16018271059E-01  0.56861446378E-01  0.10811826947E+00  0.51100000000E-03 0.  1.
</event>
<event>
 8    1  0.1088021E+005  0.1043930E+01  0.7957747E-01            NaN
         13   -1    0    0    0    0  0.00000000000E+00  0.00000000000E+00  0.74505805969E-08  0.10566000000E+00  0.10566000000E+00 0. -1.
     999900   -1    0    0    0    0 -0.00000000000E+00 -0.00000000000E+00 -0.74505805969E-08  0.93827000000E+00  0.93827000000E+00 0.  1.
     999902    2    1    2    0    0  0.14247525398E-01  0.11596562573E-01 -0.15424799018E-01  0.10199425727E+01  0.10196604606E+01 0.  0.
     999903    2    3    3    0    0  0.86487995344E-01 -0.51306580806E-01  0.79200946424E-01  0.12970130055E+00  0.20906909806E-01 0.  0.
         14    1    1    2    0    0 -0.14247525398E-01 -0.11596562573E-01  0.15424799018E-01  0.23987427295E-01  0.00000000000E+00 0. -1.
     999901    1    3    3    0    0 -0.72240469946E-01  0.62903143379E-01 -0.94625745442E-01  0.89024127215E+00  0.88000000000E+00 0.  1.
        -11    1    4    4    0    0  0.23092789032E-01 -0.93631329331E-02  0.98388947547E-02  0.26795711123E-01  0.51100000000E-03 0. -1.
         11    1    4    4    0    0  0.63395206312E-01 -0.41943447873E-01  0.69362051670E-01  0.10290558943E+00  0.51100000000E-03 0.  1.
</event>
<event>
 8    1  0.1088021E+005  0.1043930E+01  0.7957747E-01            NaN
         13   -1    0    0    0    0  0.00000000000E+00  0.00000000000E+00  0.74505805969E-08  0.10566000000E+00  0.10566000000E+00 0. -1.
     999900   -1    0    0    0    0 -0.00000000000E+00 -0.00000000000E+00 -0.74505805969E-08  0.93827000000E+00  0.93827000000E+00 0. -1.
     999902    2    1    2    0    0 -0.17653021891E-02  0.29771143815E-01 -0.52994814768E-02  0.10136393777E+01  0.10131866887E+01 0.  0.
     999903    2    3    3    0    0  0.84260306326E-01  0.37112260719E-02 -0.91649512455E-01  0.12485602249E+00  0.87075138783E-02 0.  0.
         14    1    1    2    0    0  0.17653021891E-02 -0.29771143815E-01  0.52994814768E-02  0.30290622308E-01  0.00000000000E+00 0. -1.
     999901    1    3    3    0    0 -0.86025608515E-01  0.26059917743E-01  0.86350030978E-01  0.88878335520E+00  0.88000000000E+00 0.  1.
        -11    1    4    4    0    0  0.46531366302E-01  0.47521976677E-02 -0.45764031205E-01  0.65439736444E-01  0.51100000000E-03 0.  1.
         11    1    4    4    0    0  0.37728940024E-01 -0.10409715958E-02 -0.45885481249E-01  0.59416286047E-01  0.51100000000E-03 0. -1.
</event>
<event>
 8    1  0.1329592E+005  0.1043930E+01  0.7957747E-01            NaN
         13   -1    0    0    0    0  0.00000000000E+00  0.00000000000E+00  0.74505805969E-08  0.10566000000E+00  0.10566000000E+00 0. -1.
     999900   -1    0    0    0    0 -0.00000000000E+00 -0.00000000000E+00 -0.74505805969E-08  0.93827000000E+00  0.93827000000E+00 0.  1.
     999902    2    1    2    0    0  0.13381760114E-01  0.87748705804E-02  0.16818150972E-01  0.10207153482E+01  0.10204513227E+01 0.  0.
     999903    2    3    3    0    0  0.11069974764E+00 -0.54583616581E-01  0.44143263134E-01  0.13266594057E+00  0.20440615960E-01 0.  0.
         14    1    1    2    0    0 -0.13381760114E-01 -0.87748705804E-02 -0.16818150972E-01  0.23214651830E-01  0.00000000000E+00 0.  1.
     999901    1    3    3    0    0 -0.97317987521E-01  0.63358487161E-01 -0.27325112162E-01  0.88804940760E+00  0.88000000000E+00 0.  1.
        -11    1    4    4    0    0  0.60005675663E-01 -0.19092132801E-01  0.26448096090E-01  0.68300465257E-01  0.51100000000E-03 0.  1.
         11    1    4    4    0    0  0.50694071972E-01 -0.35491483780E-01  0.17695167044E-01  0.64365475309E-01  0.51100000000E-03 0. -1.
</event>
<event>
 8    1  0.1088021E+005  0.1043930E+01  0.7957747E-01            NaN
         13   -1    0    0    0    0  0.00000000000E+00  0.00000000000E+00  0.74505805969E-08  0.10566000000E+00  0.10566000000E+00 0. -1.
     999900   -1    0    0    0    0 -0.00000000000E+00 -0.00000000000E+00 -0.74505805969E-08  0.93827000000E+00  0.93827000000E+00 0. -1.
     999902    2    1    2    0    0  0.13473259083E-01 -0.45988553930E-02  0.20860367241E-01  0.10186746421E+01  0.10183615239E+01 0.  0.
     999903    2    3    3    0    0  0.14555658435E-01  0.29978791197E-01 -0.12058178090E+00  0.12670902252E+00  0.20115053804E-01 0.  0.
         14    1    1    2    0    0 -0.13473259083E-01  0.45988553930E-02 -0.20860367241E-01  0.25255357901E-01  0.00000000000E+00 0.  1.
     999901    1    3    3    0    0 -0.10823993525E-02 -0.34577646590E-01  0.14144214814E+00  0.89196561957E+00  0.88000000000E+00 0.  1.
        -11    1    4    4    0    0  0.14926895348E-01  0.16097008489E-01 -0.47664653174E-01  0.52479578602E-01  0.51100000000E-03 0. -1.
         11    1    4    4    0    0 -0.37123691257E-03  0.13881782708E-01 -0.72917127728E-01  0.74229443923E-01  0.51100000000E-03 0.  1.
</event>
<event>
 8    1  0.1088021E+005  0.1043930E+01  0.7957747E-01            NaN
         13   -1    0    0    0    0  0.00000000000E+00  0.00000000000E+00  0.74505805969E-08  0.10566000000E+00  0.10566000000E+00 0.  1.
     999900   -1    0    0    0    0 -0.00000000000E+00 -0.00000000000E+00 -0.74505805969E-08  0.93827000000E+00  0.93827000000E+00 0.  1.
     999902    2    1    2    0    0 -0.17010782965E-01 -0.62389880603E-02  0.15060687884E-01  0.10203690996E+01  0.10200970460E+01 0.  0.
     999903    2    3    3    0    0 -0.11752832304E+00 -0.31707802591E-01  0.47299755555E-01  0.13369452914E+00  0.28612388666E-01 0.  0.
         14    1    1    2    0    0  0.17010782965E-01  0.62389880603E-02 -0.15060687884E-01  0.23560900421E-01  0.00000000000E+00 0. -1.
     999901    1    3    3    0    0  0.10051754007E+00  0.25468814530E-01 -0.32239067671E-01  0.88667457044E+00  0.88000000000E+00 0. -1.
        -11    1    4    4    0    0 -0.39855822393E-01 -0.69669463437E-02  0.29969975817E-01  0.50353604553E-01  0.51100000000E-03 0.  1.
         11    1    4    4    0    0 -0.77672500647E-01 -0.24740856247E-01  0.17329779738E-01  0.83340924589E-01  0.51100000000E-03 0. -1.
</event>
<event>
 8    1  0.1088021E+005  0.1043930E+01  0.7957747E-01            NaN
         13   -1    0    0    0    0  0.00000000000E+00  0.00000000000E+00  0.74505805969E-08  0.10566000000E+00  0.10566000000E+00 0.  1.
     999900   -1    0    0    0    0 -0.00000000000E+00 -0.00000000000E+00 -0.74505805969E-08  0.93827000000E+00  0.93827000000E+00 0.  1.
     999902    2    1    2    0    0  0.13291584034E-01  0.34324182536E-03  0.18849634426E-01  0.10208628645E+01  0.10206022219E+01 0.  0.
     999903    2    3    3    0    0 -0.80483602480E-01 -0.21961482950E-01 -0.94824930094E-01  0.12833096427E+00  0.22740976702E-01 0.  0.
         14    1    1    2    0    0 -0.13291584034E-01 -0.34324182536E-03 -0.18849634426E-01  0.23067135476E-01  0.00000000000E+00 0. -1.
     999901    1    3    3    0    0  0.93775186515E-01  0.22304724776E-01  0.11367456452E+00  0.89253190025E+00  0.88000000000E+00 0. -1.
        -11    1    4    4    0    0 -0.76570094306E-01 -0.22686873970E-01 -0.95245003412E-01  0.12429620022E+00  0.51100000000E-03 0. -1.
         11    1    4    4    0    0 -0.39135081742E-02  0.72539102022E-03  0.42007331763E-03  0.40347640518E-02  0.51100000000E-03 0.  1.
</event>
<event>
 8    1  0.1107744E+005  0.1043930E+01  0.7957747E-01            NaN
         13   -1    0    0    0    0  0.00000000000E+00  0.00000000000E+00  0.74505805969E-08  0.10566000000E+00  0.10566000000E+00 0.  1.
     999900   -1    0    0    0    0 -0.00000000000E+00 -0.00000000000E+00 -0.74505805969E-08  0.93827000000E+00  0.93827000000E+00 0. -1.
     999902    2    1    2    0    0  0.13561800113E-01  0.13326766665E-01 -0.14331457148E-01  0.10201200064E+01  0.10198421013E+01 0.  0.
     999903    2    3    3    0    0 -0.12394349029E-01  0.71993923722E-01 -0.10893255386E+00  0.13272780195E+00  0.20337727938E-01 0.  0.
         14    1    1    2    0    0 -0.13561800113E-01 -0.13326766665E-01  0.14331457148E-01  0.23809993617E-01  0.00000000000E+00 0.  1.
     999901    1    3    3    0    0  0.25956149141E-01 -0.58667157057E-01  0.94601096715E-01  0.88739220444E+00  0.88000000000E+00 0.  1.
        -11    1    4    4    0    0 -0.16172048405E-01  0.35249543773E-01 -0.52316587493E-01  0.65125662636E-01  0.51100000000E-03 0. -1.
         11    1    4    4    0    0  0.37776993759E-02  0.36744379949E-01 -0.56615966370E-01  0.67602139311E-01  0.51100000000E-03 0.  1.
</event>
<event>
 8    1  0.1088021E+005  0.1043930E+01  0.7957747E-01            NaN
         13   -1    0    0    0    0  0.00000000000E+00  0.00000000000E+00  0.74505805969E-08  0.10566000000E+00  0.10566000000E+00 0.  1.
     999900   -1    0    0    0    0 -0.00000000000E+00 -0.00000000000E+00 -0.74505805969E-08  0.93827000000E+00  0.93827000000E+00 0.  1.
     999902    2    1    2    0    0 -0.12003355267E-01  0.38506602349E-02 -0.20217554972E-01  0.10201044328E+01  0.10198261598E+01 0.  0.
     999903    2    3    3    0    0 -0.11912305202E+00  0.38582412931E-01 -0.34667133762E-01  0.13281095579E+00  0.27532448187E-01 0.  0.
         14    1    1    2    0    0  0.12003355267E-01 -0.38506602349E-02  0.20217554972E-01  0.23825567170E-01  0.00000000000E+00 0.  1.
     999901    1    3    3    0    0  0.10711969675E+00 -0.34731752696E-01  0.14449578790E-01  0.88729347704E+00  0.88000000000E+00 0.  1.
        -11    1    4    4    0    0 -0.55987141178E-01  0.23403959978E-01 -0.30032222525E-01  0.67708942029E-01  0.51100000000E-03 0. -1.
         11    1    4    4    0    0 -0.63135910843E-01  0.15178452953E-01 -0.46349112373E-02  0.65102013757E-01  0.51100000000E-03 0.  1.
</event>
<event>
 8    1  0.1088021E+005  0.1043930E+01  0.7957747E-01            NaN
         13   -1    0    0    0    0  0.00000000000E+00  0.00000000000E+00  0.74505805969E-08  0.10566000000E+00  0.10566000000E+00 0.  1.
     999900   -1    0    0    0    0 -0.00000000000E+00 -0.00000000000E+00 -0.74505805969E-08  0.93827000000E+00  0.93827000000E+00 0.  1.
     999902    2    1    2    0    0  0.14424982466E-01 -0.21800553312E-01 -0.62769464039E-02  0.10170460959E+01  0.10166907184E+01 0.  0.
     999903    2    3    3    0    0  0.87932132925E-01 -0.65448498172E-01 -0.68456168034E-01  0.13071957600E+00  0.19641657126E-01 0.  0.
         14    1    1    2    0    0 -0.14424982466E-01  0.21800553312E-01  0.62769464039E-02  0.26883904106E-01  0.00000000000E+00 0.  1.
     999901    1    3    3    0    0 -0.73507150459E-01  0.43647944861E-01  0.62179221630E-01  0.88632651989E+00  0.88000000000E+00 0. -1.
        -11    1    4    4    0    0  0.36693593697E-01 -0.28945833933E-01 -0.40618460475E-01  0.61922544948E-01  0.51100000000E-03 0.  1.
         11    1    4    4    0    0  0.51238539229E-01 -0.36502664239E-01 -0.27837707559E-01  0.68797031055E-01  0.51100000000E-03 0. -1.
</event>
<event>
 8    1  0.1088021E+005  0.1043930E+01  0.7957747E-01            NaN
         13   -1    0    0    0    0  0.00000000000E+00  0.00000000000E+00  0.74505805969E-08  0.10566000000E+00  0.10566000000E+00 0.  1.
     999900   -1    0    0    0    0 -0.00000000000E+00 -0.00000000000E+00 -0.74505805969E-08  0.93827000000E+00  0.93827000000E+00 0. -1.
     999902    2    1    2    0    0  0.12578798769E-01  0.59026022694E-02  0.18978798882E-01  0.10204084843E+01  0.10201373502E+01 0.  0.
     999903    2    3    3    0    0 -0.91656964618E-01 -0.43938145270E-01 -0.76600325386E-01  0.12772457417E+00  0.10695663801E-01 0.  0.
         14    1    1    2    0    0 -0.12578798769E-01 -0.59026022694E-02 -0.18978798882E-01  0.23521515661E-01  0.00000000000E+00 0. -1.
     999901    1    3    3    0    0  0.10423576339E+00  0.49840747540E-01  0.95579124267E-01  0.89268391017E+00  0.88000000000E+00 0.  1.
        -11    1    4    4    0    0 -0.74755069784E-01 -0.39062760856E-01 -0.59804782384E-01  0.10339774108E+00  0.51100000000E-03 0.  1.
         11    1    4    4    0    0 -0.16901894833E-01 -0.48753844146E-02 -0.16795543001E-01  0.24326833083E-01  0.51100000000E-03 0. -1.
</event>
<event>
 8    1  0.1088021E+005  0.1043930E+01  0.7957747E-01            NaN
         13   -1    0    0    0    0  0.00000000000E+00  0.00000000000E+00  0.74505805969E-08  0.10566000000E+00  0.10566000000E+00 0. -1.
     999900   -1    0    0    0    0 -0.00000000000E+00 -0.00000000000E+00 -0.74505805969E-08  0.93827000000E+00  0.93827000000E+00 0. -1.
     999902    2    1    2    0    0  0.14181775132E-01 -0.12772522030E-01  0.14035998074E-01  0.10202388770E+01  0.10199637724E+01 0.  0.
     999903    2    3    3    0    0 -0.31161075808E-01  0.33863978069E-01 -0.11779437960E+00  0.12804484784E+00  0.20054564010E-01 0.  0.
         14    1    1    2    0    0 -0.14181775132E-01  0.12772522030E-01 -0.14035998074E-01  0.23691122954E-01  0.00000000000E+00 0.  1.
     999901    1    3    3    0    0  0.45342850941E-01 -0.46636500100E-01  0.13183037767E+00  0.89219402921E+00  0.88000000000E+00 0. -1.
        -11    1    4    4    0    0 -0.26169676375E-01  0.14188010869E-01 -0.74339780917E-01  0.80080058452E-01  0.51100000000E-03 0. -1.
         11    1    4    4    0    0 -0.49913994331E-02  0.19675967201E-01 -0.43454598680E-01  0.47964789388E-01  0.51100000000E-03 0.  1.
</event>
<event>
 8    1  0.1088021E+005  0.1043930E+01  0.7957747E-01            NaN
         13   -1    0    0    0    0  0.00000000000E+00  0.00000000000E+00  0.74505805969E-08  0.10566000000E+00  0.10566000000E+00 0.  1.
     999900   -1    0    0    0    0 -0.00000000000E+00 -0.00000000000E+00 -0.74505805969E-08  0.93827000000E+00  0.93827000000E+00 0. -1.
     999902    2    1    2    0    0  0.48474234497E-02  0.22089933586E-01 -0.44538681129E-02  0.10208800624E+01  0.10206198128E+01 0.  0.
     999903    2    3    3    0    0 -0.10362722403E+00  0.23171163347E-01 -0.74833324659E-01  0.13143012788E+00  0.19958648818E-01 0.  0.
         14    1    1    2    0    0 -0.48474234497E-02 -0.22089933586E-01  0.44538681129E-02  0.23049937551E-01  0.00000000000E+00 0. -1.
     999901    1    3    3    0    0  0.10847464748E+00 -0.10812297609E-02  0.70379456546E-01  0.88944993457E+00  0.88000000000E+00 0.  1.
        -11    1    4    4    0    0 -0.85816680248E-01  0.11824011995E-01 -0.56197534015E-01  0.10326051433E+00  0.51100000000E-03 0. -1.
         11    1    4    4    0    0 -0.17810543787E-01  0.11347151352E-01 -0.18635790644E-01  0.28169613552E-01  0.51100000000E-03 0.  1.
</event>
<event>
 7    1  0.1088021E+005  0.1043930E+01  0.7957747E-01            NaN
         13   -1    0    0    0    0  0.00000000000E+00  0.00000000000E+00  0.74505805969E-08  0.10566000000E+00  0.10566000000E+00 0.  1.
     999900   -1    0    0    0    0 -0.00000000000E+00 -0.00000000000E+00 -0.74505805969E-08  0.93827000000E+00  0.93827000000E+00 0. -1.
     999902    2    1    2    0    0 -0.15941279092E-01  0.17348465545E-01  0.18017686496E-03  0.10203688859E+01  0.10200968273E+01 0.  0.
         14    1    1    2    0    0  0.15941279092E-01 -0.17348465545E-01 -0.18017686496E-03  0.23561114141E-01  0.00000000000E+00 0.  1.
     999901    1    3    3    0    0 -0.84392463148E-01  0.86354476545E-01  0.72406450215E-01  0.89119126875E+00  0.88000000000E+00 0.  1.
        -11    1    3    3    0    0  0.37192368026E-01 -0.51433142226E-01 -0.68073353429E-01  0.93074609463E-01  0.51100000000E-03 0. -1.
         11    1    3    3    0    0  0.31258816031E-01 -0.17572868774E-01 -0.41529199207E-02  0.36103007651E-01  0.51100000000E-03 0.  1.
</event>
<event>
 8    1  0.1088021E+005  0.1043930E+01  0.7957747E-01            NaN
         13   -1    0    0    0    0  0.00000000000E+00  0.00000000000E+00  0.74505805969E-08  0.10566000000E+00  0.10566000000E+00 0.  1.
     999900   -1    0    0    0    0 -0.00000000000E+00 -0.00000000000E+00 -0.74505805969E-08  0.93827000000E+00  0.93827000000E+00 0.  1.
     999902    2    1    2    0    0 -0.21455945795E-01  0.97722105838E-02  0.75657848358E-02  0.10191692486E+01  0.10188684226E+01 0.  0.
     999903    2    3    3    0    0 -0.12795018831E+00 -0.24992665329E-01  0.70515837443E-02  0.13206729015E+00  0.19903775683E-01 0.  0.
         14    1    1    2    0    0  0.21455945795E-01 -0.97722105838E-02 -0.75657848358E-02  0.24760751399E-01  0.00000000000E+00 0. -1.
     999901    1    3    3    0    0  0.10649424251E+00  0.34764875913E-01  0.51420109153E-03  0.88710195845E+00  0.88000000000E+00 0. -1.
        -11    1    4    4    0    0 -0.58548633746E-01 -0.60328556509E-02  0.11537703917E-01  0.59980976931E-01  0.51100000000E-03 0.  1.
         11    1    4    4    0    0 -0.69401554559E-01 -0.18959809678E-01 -0.44861201731E-02  0.72086313219E-01  0.51100000000E-03 0. -1.
</event>
<event>
 8    1  0.1088021E+005  0.1043930E+01  0.7957747E-01            NaN
         13   -1    0    0    0    0  0.00000000000E+00  0.00000000000E+00  0.74505805969E-08  0.10566000000E+00  0.10566000000E+00 0.  1.
     999900   -1    0    0    0    0 -0.00000000000E+00 -0.00000000000E+00 -0.74505805969E-08  0.93827000000E+00  0.93827000000E+00 0.  1.
     999902    2    1    2    0    0  0.16196326300E-01  0.11483514945E-01  0.16793497967E-01  0.10179258912E+01  0.10175936843E+01 0.  0.
     999903    2    3    3    0    0 -0.67925087448E-01  0.52016550973E-01  0.94436289569E-01  0.12958601122E+00  0.23553819976E-01 0.  0.
         14    1    1    2    0    0 -0.16196326300E-01 -0.11483514945E-01 -0.16793497967E-01  0.26004108811E-01  0.00000000000E+00 0. -1.
     999901    1    3    3    0    0  0.84121413748E-01 -0.40533036029E-01 -0.77642791603E-01  0.88833987997E+00  0.88000000000E+00 0.  1.
        -11    1    4    4    0    0 -0.58479322529E-01  0.33424860748E-01  0.65863222428E-01  0.94208692110E-01  0.51100000000E-03 0.  1.
         11    1    4    4    0    0 -0.94457649194E-02  0.18591690225E-01  0.28573067141E-01  0.35377319107E-01  0.51100000000E-03 0. -1.
</event>
<event>
 8    1  0.1088021E+005  0.1043930E+01  0.7957747E-01            NaN
         13   -1    0    0    0    0  0.00000000000E+00  0.00000000000E+00  0.74505805969E-08  0.10566000000E+00  0.10566000000E+00 0. -1.
     999900   -1    0    0    0    0 -0.00000000000E+00 -0.00000000000E+00 -0.74505805969E-08  0.93827000000E+00  0.93827000000E+00 0.  1.
     999902    2    1    2    0    0  0.15827134407E-01 -0.87934933286E-02  0.16438778928E-01  0.10194747928E+01  0.10191814342E+01 0.  0.
     999903    2    3    3    0    0 -0.69106712336E-01 -0.10531538430E+00 -0.18645116908E-01  0.12944045999E+00  0.23240577415E-01 0.  0.
         14    1    1    2    0    0 -0.15827134407E-01  0.87934933286E-02 -0.16438778928E-01  0.24455207239E-01  0.00000000000E+00 0.  1.
     999901    1    3    3    0    0  0.84933846743E-01  0.96521890970E-01  0.35083895837E-01  0.89003433277E+00  0.88000000000E+00 0.  1.
        -11    1    4    4    0    0 -0.22649421619E-01 -0.28970300892E-01  0.46871011553E-02  0.37074312828E-01  0.51100000000E-03 0. -1.
         11    1    4    4    0    0 -0.46457290717E-01 -0.76345083407E-01 -0.23332218064E-01  0.92366147165E-01  0.51100000000E-03 0.  1.
</event>
<event>
 8    1  0.1088021E+005  0.1043930E+01  0.7957747E-01            NaN
         13   -1    0    0    0    0  0.00000000000E+00  0.00000000000E+00  0.74505805969E-08  0.10566000000E+00  0.10566000000E+00 0. -1.
     999900   -1    0    0    0    0 -0.00000000000E+00 -0.00000000000E+00 -0.74505805969E-08  0.93827000000E+00  0.93827000000E+00 0.  1.
     999902    2    1    2    0    0 -0.34545409123E-02 -0.16208015275E-01  0.16926361914E-01  0.10202417046E+01  0.10199666663E+01 0.  0.
     999903    2    3    3    0    0 -0.32894804905E-01 -0.70112462588E-01 -0.10263957076E+00  0.13003474503E+00  0.19399170850E-01 0.  0.
         14    1    1    2    0    0  0.34545409123E-02  0.16208015275E-01 -0.16926361914E-01  0.23688295416E-01  0.00000000000E+00 0.  1.
     999901    1    3    3    0    0  0.29440263993E-01  0.53904447312E-01  0.11956593267E+00  0.89020695955E+00  0.88000000000E+00 0.  1.
        -11    1    4    4    0    0 -0.13087923667E-01 -0.17705903535E-01 -0.42329853512E-01  0.47716563007E-01  0.51100000000E-03 0.  1.
         11    1    4    4    0    0 -0.19806881239E-01 -0.52406559053E-01 -0.60309717246E-01  0.82318182022E-01  0.51100000000E-03 0. -1.
</event>
<event>
 7    1  0.1088021E+005  0.1043930E+01  0.7957747E-01            NaN
         13   -1    0    0    0    0  0.00000000000E+00  0.00000000000E+00  0.74505805969E-08  0.10566000000E+00  0.10566000000E+00 0.  1.
     999900   -1    0    0    0    0 -0.00000000000E+00 -0.00000000000E+00 -0.74505805969E-08  0.93827000000E+00  0.93827000000E+00 0. -1.
     999902    2    1    2    0    0  0.10750781324E-01  0.32815884320E-02 -0.18575923335E-01  0.10222179515E+01  0.10219873421E+01 0.  0.
         14    1    1    2    0    0 -0.10750781324E-01 -0.32815884320E-02  0.18575923335E-01  0.21712048486E-01  0.00000000000E+00 0.  1.
     999901    1    3    3    0    0 -0.85507587323E-01  0.73756185070E-01  0.30828502749E-01  0.88775104557E+00  0.88000000000E+00 0.  1.
        -11    1    3    3    0    0  0.66496406727E-01 -0.30146896396E-01 -0.40709043743E-01  0.83594825398E-01  0.51100000000E-03 0. -1.
         11    1    3    3    0    0  0.29761961921E-01 -0.40327700242E-01 -0.86953823403E-02  0.50872080547E-01  0.51100000000E-03 0.  1.
</event>
<event>
 8    1  0.1088021E+005  0.1043930E+01  0.7957747E-01            NaN
         13   -1    0    0    0    0  0.00000000000E+00  0.00000000000E+00  0.74505805969E-08  0.10566000000E+00  0.10566000000E+00 0.  1.
     999900   -1    0    0    0    0 -0.00000000000E+00 -0.00000000000E+00 -0.74505805969E-08  0.93827000000E+00  0.93827000000E+00 0.  1.
     999902    2    1    2    0    0 -0.93887454869E-02 -0.63329281189E-02  0.19817642745E-01  0.10211047183E+01  0.10208495738E+01 0.  0.
     999903    2    3    3    0    0 -0.12630448397E+00  0.21320162259E-01  0.29046144927E-01  0.13289351112E+00  0.20239436097E-01 0.  0.
         14    1    1    2    0    0  0.93887454869E-02  0.63329281189E-02 -0.19817642745E-01  0.22825281693E-01  0.00000000000E+00 0. -1.
     999901    1    3    3    0    0  0.11691573849E+00 -0.27653090378E-01 -0.92285021817E-02  0.88821120718E+00  0.88000000000E+00 0.  1.
        -11    1    4    4    0    0 -0.14702049597E-01  0.88216142517E-02  0.12220703234E-02  0.17196677505E-01  0.51100000000E-03 0. -1.
         11    1    4    4    0    0 -0.11160243438E+00  0.12498548008E-01  0.27824074603E-01  0.11569683362E+00  0.51100000000E-03 0.  1.
</event>
<event>
 8    1  0.1088021E+005  0.1043930E+01  0.7957747E-01            NaN
         13   -1    0    0    0    0  0.00000000000E+00  0.00000000000E+00  0.74505805969E-08  0.10566000000E+00  0.10566000000E+00 0.  1.
     999900   -1    0    0    0    0 -0.00000000000E+00 -0.00000000000E+00 -0.74505805969E-08  0.93827000000E+00  0.93827000000E+00 0. -1.
     999902    2    1    2    0    0 -0.19109368041E-01 -0.74507168168E-02  0.11710167496E-01  0.10203120164E+01  0.10200386275E+01 0.  0.
     999903    2    3    3    0    0 -0.67766646950E-01 -0.37837907626E-01  0.10636801282E+00  0.13337852403E+00  0.21252078203E-01 0.  0.
         14    1    1    2    0    0  0.19109368041E-01  0.74507168168E-02 -0.11710167496E-01  0.23617983631E-01  0.00000000000E+00 0. -1.
     999901    1    3    3    0    0  0.48657278909E-01  0.30387190809E-01 -0.94657845325E-01  0.88693349234E+00  0.88000000000E+00 0. -1.
        -11    1    4    4    0    0 -0.12289885071E-01 -0.11247786348E-01  0.37471630224E-01  0.41011439446E-01  0.51100000000E-03 0. -1.
         11    1    4    4    0    0 -0.55476761879E-01 -0.26590121278E-01  0.68896382597E-01  0.92367084581E-01  0.51100000000E-03 0.  1.
</event>
<event>
 8    1  0.1088021E+005  0.1043930E+01  0.7957747E-01            NaN
         13   -1    0    0    0    0  0.00000000000E+00  0.00000000000E+00  0.74505805969E-08  0.10566000000E+00  0.10566000000E+00 0.  1.
     999900   -1    0    0    0    0 -0.00000000000E+00 -0.00000000000E+00 -0.74505805969E-08  0.93827000000E+00  0.93827000000E+00 0. -1.
     999902    2    1    2    0    0 -0.22201217174E-01  0.47598568644E-02  0.48480595364E-02  0.10207124643E+01  0.10204483725E+01 0.  0.
     999903    2    3    3    0    0 -0.92864179199E-01  0.42614784747E-01 -0.82666478857E-01  0.13274566078E+00  0.18651757908E-01 0.  0.
         14    1    1    2    0    0  0.22201217174E-01 -0.47598568644E-02 -0.48480595364E-02  0.23217535671E-01  0.00000000000E+00 0.  1.
     999901    1    3    3    0    0  0.70662962025E-01 -0.37854927882E-01  0.87514538394E-01  0.88796680354E+00  0.88000000000E+00 0.  1.
        -11    1    4    4    0    0 -0.69342306291E-01  0.23505579870E-01 -0.53512033633E-01  0.90689947576E-01  0.51100000000E-03 0.  1.
         11    1    4    4    0    0 -0.23521872908E-01  0.19109204877E-01 -0.29154445225E-01  0.42055713208E-01  0.51100000000E-03 0. -1.
</event>
<event>
 8    1  0.1088021E+005  0.1043930E+01  0.7957747E-01            NaN
         13   -1    0    0    0    0  0.00000000000E+00  0.00000000000E+00  0.74505805969E-08  0.10566000000E+00  0.10566000000E+00 0. -1.
     999900   -1    0    0    0    0 -0.00000000000E+00 -0.00000000000E+00 -0.74505805969E-08  0.93827000000E+00  0.93827000000E+00 0. -1.
     999902    2    1    2    0    0 -0.18741769563E-03  0.11745423500E-01 -0.20882863787E-01  0.10199699479E+01  0.10196884870E+01 0.  0.
     999903    2    3    3    0    0  0.87533949216E-01 -0.92998444222E-01 -0.55132315151E-02  0.12929461889E+00  0.19385558009E-01 0.  0.
         14    1    1    2    0    0  0.18741769563E-03 -0.11745423500E-01  0.20882863787E-01  0.23960052140E-01  0.00000000000E+00 0. -1.
     999901    1    3    3    0    0 -0.87721366912E-01  0.10474386772E+00 -0.15369632272E-01  0.89067532897E+00  0.88000000000E+00 0.  1.
        -11    1    4    4    0    0  0.34419167416E-01 -0.26964972041E-01 -0.82780860304E-02  0.44503669872E-01  0.51100000000E-03 0.  1.
         11    1    4    4    0    0  0.53114781800E-01 -0.66033472181E-01  0.27648545153E-02  0.84790949018E-01  0.51100000000E-03 0. -1.
</event>
<event>
 8    1  0.1088021E+005  0.1043930E+01  0.7957747E-01            NaN
         13   -1    0    0    0    0  0.00000000000E+00  0.00000000000E+00  0.74505805969E-08  0.10566000000E+00  0.10566000000E+00 0. -1.
     999900   -1    0    0    0    0 -0.00000000000E+00 -0.00000000000E+00 -0.74505805969E-08  0.93827000000E+00  0.93827000000E+00 0.  1.
     999902    2    1    2    0    0 -0.14644713783E-01 -0.88192602442E-02 -0.17370842311E-01  0.10195580252E+01  0.10192666842E+01 0.  0.
     999903    2    3    3    0    0  0.52146136521E-01  0.94895959997E-01  0.63729985823E-01  0.12726031204E+00  0.20229017491E-01 0.  0.
         14    1    1    2    0    0  0.14644713783E-01  0.88192602442E-02  0.17370842311E-01  0.24371974800E-01  0.00000000000E+00 0.  1.
     999901    1    3    3    0    0 -0.66790850304E-01 -0.10371522024E+00 -0.81100828134E-01  0.89229771316E+00  0.88000000000E+00 0.  1.
        -11    1    4    4    0    0  0.22097783158E-01  0.52423039820E-01  0.42731353314E-01  0.71152770863E-01  0.51100000000E-03 0.  1.
         11    1    4    4    0    0  0.30048353363E-01  0.42472920178E-01  0.20998632509E-01  0.56107541173E-01  0.51100000000E-03 0. -1.
</event>
<event>
 8    1  0.1088021E+005  0.1043930E+01  0.7957747E-01            NaN
         13   -1    0    0    0    0  0.00000000000E+00  0.00000000000E+00  0.74505805969E-08  0.10566000000E+00  0.10566000000E+00 0. -1.
     999900   -1    0    0    0    0 -0.00000000000E+00 -0.00000000000E+00 -0.74505805969E-08  0.93827000000E+00  0.93827000000E+00 0. -1.
     999902    2    1    2    0    0 -0.19438564041E-01 -0.19315831024E-02 -0.12509650359E-01  0.10207334456E+01  0.10204698363E+01 0.  0.
     999903    2    3    3    0    0  0.14962945906E-01 -0.10028554959E+00  0.79491435770E-01  0.12982314343E+00  0.15939855767E-01 0.  0.
         14    1    1    2    0    0  0.19438564041E-01  0.19315831024E-02  0.12509650359E-01  0.23196554428E-01  0.00000000000E+00 0. -1.
     999901    1    3    3    0    0 -0.34401509947E-01  0.98353966492E-01 -0.92001086129E-01  0.89091030214E+00  0.88000000000E+00 0. -1.
        -11    1    4    4    0    0  0.36147930535E-02 -0.59344172399E-01  0.38826592284E-01  0.71011005597E-01  0.51100000000E-03 0. -1.
         11    1    4    4    0    0  0.11348152852E-01 -0.40941377195E-01  0.40664843486E-01  0.58812137834E-01  0.51100000000E-03 0.  1.
</event>
<event>
 8    1  0.1088021E+005  0.1043930E+01  0.7957747E-01            NaN
         13   -1    0    0    0    0  0.00000000000E+00  0.00000000000E+00  0.74505805969E-08  0.10566000000E+00  0.10566000000E+00 0.  1.
     999900   -1    0    0    0    0 -0.00000000000E+00 -0.00000000000E+00 -0.74505805969E-08  0.93827000000E+00  0.93827000000E+00 0. -1.
     999902    2    1    2    0    0 -0.10856357959E-01  0.38728369661E-02 -0.24388122221E-01  0.10169551992E+01  0.10165973821E+01 0.  0.
     999903    2    3    3    0    0 -0.25995065798E-01 -0.10339531084E+00  0.63827433887E-01  0.12593464927E+00  0.20475859468E-01 0.  0.
         14    1    1    2    0    0  0.10856357959E-01 -0.38728369661E-02  0.24388122221E-01  0.26974800829E-01  0.00000000000E+00 0.  1.
     999901    1    3    3    0    0  0.15138707839E-01  0.10726814780E+00 -0.88215556108E-01  0.89102054990E+00  0.88000000000E+00 0. -1.
        -11    1    4    4    0    0 -0.14007069705E-01 -0.49034775840E-01  0.42263712701E-01  0.66235109841E-01  0.51100000000E-03 0.  1.
         11    1    4    4    0    0 -0.11987996093E-01 -0.54360534997E-01  0.21563721185E-01  0.59699539428E-01  0.51100000000E-03 0. -1.
</event>
<event>
 8    1  0.1088021E+005  0.1043930E+01  0.7957747E-01            NaN
         13   -1    0    0    0    0  0.00000000000E+00  0.00000000000E+00  0.74505805969E-08  0.10566000000E+00  0.10566000000E+00 0. -1.
     999900   -1    0    0    0    0 -0.00000000000E+00 -0.00000000000E+00 -0.74505805969E-08  0.93827000000E+00  0.93827000000E+00 0. -1.
     999902    2    1    2    0    0 -0.20894956663E-01  0.10719621345E-01  0.72226231590E-02  0.10193601856E+01  0.10190640373E+01 0.  0.
     999903    2    3    3    0    0 -0.79751772914E-02 -0.11957335065E+00  0.43892070750E-01  0.12891769577E+00  0.18217265742E-01 0.  0.
         14    1    1    2    0    0  0.20894956663E-01 -0.10719621345E-01 -0.72226231590E-02  0.24569814428E-01  0.00000000000E+00 0.  1.
     999901    1    3    3    0    0 -0.12919779371E-01  0.13029297199E+00 -0.36669447591E-01  0.89044248980E+00  0.88000000000E+00 0.  1.
        -11    1    4    4    0    0 -0.78840676957E-02 -0.72757831183E-01  0.35546164648E-01  0.81361240552E-01  0.51100000000E-03 0. -1.
         11    1    4    4    0    0 -0.91109595664E-04 -0.46815519465E-01  0.83459061015E-02  0.47556455223E-01  0.51100000000E-03 0.  1.
</event>
<event>
 8    1  0.1088021E+005  0.1043930E+01  0.7957747E-01            NaN
         13   -1    0    0    0    0  0.00000000000E+00  0.00000000000E+00  0.74505805969E-08  0.10566000000E+00  0.10566000000E+00 0. -1.
     999900   -1    0    0    0    0 -0.00000000000E+00 -0.00000000000E+00 -0.74505805969E-08  0.93827000000E+00  0.93827000000E+00 0. -1.
     999902    2    1    2    0    0 -0.11727199421E-01 -0.19964842959E-01 -0.88785677960E-02  0.10191317919E+01  0.10188300438E+01 0.  0.
     999903    2    3    3    0    0  0.35510021611E-01 -0.45112614299E-03  0.12144884664E+00  0.12806648834E+00  0.19749378108E-01 0.  0.
         14    1    1    2    0    0  0.11727199421E-01  0.19964842959E-01  0.88785677960E-02  0.24798208136E-01  0.00000000000E+00 0. -1.
     999901    1    3    3    0    0 -0.47237221033E-01 -0.19513716816E-01 -0.13032741443E+00  0.89106530353E+00  0.88000000000E+00 0. -1.
        -11    1    4    4    0    0  0.30994255831E-02  0.59912047211E-02  0.32010759621E-01  0.32717744810E-01  0.51100000000E-03 0. -1.
         11    1    4    4    0    0  0.32410596028E-01 -0.64423308641E-02  0.89438087018E-01  0.95348743527E-01  0.51100000000E-03 0.  1.
</event>
<event>
 8    1  0.1088021E+005  0.1043930E+01  0.7957747E-01            NaN
         13   -1    0    0    0    0  0.00000000000E+00  0.00000000000E+00  0.74505805969E-08  0.10566000000E+00  0.10566000000E+00 0. -1.
     999900   -1    0    0    0    0 -0.00000000000E+00 -0.00000000000E+00 -0.74505805969E-08  0.93827000000E+00  0.93827000000E+00 0.  1.
     999902    2    1    2    0    0 -0.12343775734E-01 -0.96179390094E-02  0.15636195378E-01  0.10218084233E+01  0.10215689354E+01 0.  0.
     999903    2    3    3    0    0  0.15067476630E-01 -0.47050975458E-01 -0.11915203237E+00  0.13033746173E+00  0.18703581696E-01 0.  0.
         14    1    1    2    0    0  0.12343775734E-01  0.96179390094E-02 -0.15636195378E-01  0.22121576708E-01  0.00000000000E+00 0.  1.
     999901    1    3    3    0    0 -0.27411252363E-01  0.37433036449E-01  0.13478822775E+00  0.89147096156E+00  0.88000000000E+00 0. -1.
        -11    1    4    4    0    0  0.16855775164E-01 -0.23405385791E-01 -0.71762150774E-01  0.77343368463E-01  0.51100000000E-03 0. -1.
         11    1    4    4    0    0 -0.17882985346E-02 -0.23645589667E-01 -0.47389881595E-01  0.52994093265E-01  0.51100000000E-03 0.  1.
</event>
<event>
 8    1  0.1088021E+005  0.1043930E+01  0.7957747E-01            NaN
         13   -1    0    0    0    0  0.00000000000E+00  0.00000000000E+00  0.74505805969E-08  0.10566000000E+00  0.10566000000E+00 0.  1.
     999900   -1    0    0    0    0 -0.00000000000E+00 -0.00000000000E+00 -0.74505805969E-08  0.93827000000E+00  0.93827000000E+00 0. -1.
     999902    2    1    2    0    0  0.14867010759E-01 -0.15088564689E-01 -0.10468026236E-01  0.10203022120E+01  0.10200285934E+01 0.  0.
     999903    2    3    3    0    0  0.29714742347E-01 -0.80562959927E-01  0.97161508337E-01  0.13120634073E+00  0.20034687936E-01 0.  0.
         14    1    1    2    0    0 -0.14867010759E-01  0.15088564689E-01  0.10468026236E-01  0.23627788017E-01  0.00000000000E+00 0.  1.
     999901    1    3    3    0    0 -0.14847731588E-01  0.65474395238E-01 -0.10762953457E+00  0.88909587125E+00  0.88000000000E+00 0. -1.
        -11    1    4    4    0    0  0.84841979358E-02 -0.28842223456E-01  0.48605177037E-01  0.57154000947E-01  0.51100000000E-03 0. -1.
         11    1    4    4    0    0  0.21230544411E-01 -0.51720736471E-01  0.48556331301E-01  0.74052339784E-01  0.51100000000E-03 0.  1.
</event>
<event>
 8    1  0.1088021E+005  0.1043930E+01  0.7957747E-01            NaN
         13   -1    0    0    0    0  0.00000000000E+00  0.00000000000E+00  0.74505805969E-08  0.10566000000E+00  0.10566000000E+00 0.  1.
     999900   -1    0    0    0    0 -0.00000000000E+00 -0.00000000000E+00 -0.74505805969E-08  0.93827000000E+00  0.93827000000E+00 0.  1.
     999902    2    1    2    0    0 -0.11989187260E-02 -0.90200154938E-02  0.21638026693E-01  0.10204565621E+01  0.10201865481E+01 0.  0.
     999903    2    3    3    0    0 -0.61699661557E-02  0.10094128452E+00 -0.76223031984E-01  0.12821613176E+00  0.20055284462E-01 0.  0.
         14    1    1    2    0    0  0.11989187260E-02  0.90200154938E-02 -0.21638026693E-01  0.23473437856E-01  0.00000000000E+00 0. -1.
     999901    1    3    3    0    0  0.49710474297E-02 -0.10996130001E+00  0.97861058676E-01  0.89224043039E+00  0.88000000000E+00 0. -1.
        -11    1    4    4    0    0 -0.12102695549E-01  0.86640433768E-01 -0.62433580555E-01  0.10747675611E+00  0.51100000000E-03 0.  1.
         11    1    4    4    0    0  0.59327293938E-02  0.14300850753E-01 -0.13789451428E-01  0.20739375642E-01  0.51100000000E-03 0. -1.
</event>
<event>
 8    1  0.1088021E+005  0.1043930E+01  0.7957747E-01            NaN
         13   -1    0    0    0    0  0.00000000000E+00  0.00000000000E+00  0.74505805969E-08  0.10566000000E+00  0.10566000000E+00 0.  1.
     999900   -1    0    0    0    0 -0.00000000000E+00 -0.00000000000E+00 -0.74505805969E-08  0.93827000000E+00  0.93827000000E+00 0.  1.
     999902    2    1    2    0    0  0.18683478987E-01 -0.99632187311E-02 -0.12032307589E-01  0.10195760570E+01  0.10192851522E+01 0.  0.
     999903    2    3    3    0    0  0.26116615341E-01 -0.11559947717E+00 -0.54784142507E-01  0.13219677505E+00  0.20721205198E-01 0.  0.
         14    1    1    2    0    0 -0.18683478987E-01  0.99632187311E-02  0.12032307589E-01  0.24353943016E-01  0.00000000000E+00 0.  1.
     999901    1    3    3    0    0 -0.74331363539E-02  0.10563625844E+00  0.42751834919E-01  0.88737928193E+00  0.88000000000E+00 0. -1.
        -11    1    4    4    0    0  0.21266398230E-01 -0.51164015558E-01 -0.20798952902E-01  0.59185080421E-01  0.51100000000E-03 0.  1.
         11    1    4    4    0    0  0.48502171109E-02 -0.64435461613E-01 -0.33985189606E-01  0.73011694631E-01  0.51100000000E-03 0. -1.
</event>
<event>
 8    1  0.1088021E+005  0.1043930E+01  0.7957747E-01            NaN
         13   -1    0    0    0    0  0.00000000000E+00  0.00000000000E+00  0.74505805969E-08  0.10566000000E+00  0.10566000000E+00 0. -1.
     999900   -1    0    0    0    0 -0.00000000000E+00 -0.00000000000E+00 -0.74505805969E-08  0.93827000000E+00  0.93827000000E+00 0.  1.
     999902    2    1    2    0    0  0.16562100241E-01  0.32656256225E-02 -0.18526379968E-01  0.10188661968E+01  0.10185578691E+01 0.  0.
     999903    2    3    3    0    0 -0.15629997281E-01  0.10958399830E+00  0.61778061083E-01  0.12825476035E+00  0.19488592165E-01 0.  0.
         14    1    1    2    0    0 -0.16562100241E-01 -0.32656256225E-02  0.18526379968E-01  0.25063803179E-01  0.00000000000E+00 0. -1.
     999901    1    3    3    0    0  0.32192097522E-01 -0.10631837268E+00 -0.80304441051E-01  0.89061143647E+00  0.88000000000E+00 0.  1.
        -11    1    4    4    0    0  0.89092338298E-03  0.19705014579E-01  0.39924089101E-02  0.20131611807E-01  0.51100000000E-03 0. -1.
         11    1    4    4    0    0 -0.16520920664E-01  0.89878983719E-01  0.57785652173E-01  0.10812314855E+00  0.51100000000E-03 0.  1.
</event>
<event>
 8    1  0.1088021E+005  0.1043930E+01  0.7957747E-01            NaN
         13   -1    0    0    0    0  0.00000000000E+00  0.00000000000E+00  0.74505805969E-08  0.10566000000E+00  0.10566000000E+00 0. -1.
     999900   -1    0    0    0    0 -0.00000000000E+00 -0.00000000000E+00 -0.74505805969E-08  0.93827000000E+00  0.93827000000E+00 0.  1.
     999902    2    1    2    0    0  0.21905330303E-01 -0.73097059500E-02 -0.52790030021E-02  0.10202415393E+01  0.10199664972E+01 0.  0.
     999903    2    3    3    0    0 -0.63370217132E-03  0.63963840846E-01  0.11137787332E+00  0.12940106356E+00  0.15742619566E-01 0.  0.
         14    1    1    2    0    0 -0.21905330303E-01  0.73097059500E-02  0.52790030021E-02  0.23688460682E-01  0.00000000000E+00 0. -1.
     999901    1    3    3    0    0  0.22539032475E-01 -0.71273546796E-01 -0.11665687632E+00  0.89084047576E+00  0.88000000000E+00 0.  1.
        -11    1    4    4    0    0 -0.99118749794E-03  0.32943132390E-01  0.41910787985E-01  0.53319862105E-01  0.51100000000E-03 0.  1.
         11    1    4    4    0    0  0.35748532662E-03  0.31020708455E-01  0.69467085335E-01  0.76081201454E-01  0.51100000000E-03 0. -1.
</event>
<event>
 8    1  0.1088021E+005  0.1043930E+01  0.7957747E-01            NaN
         13   -1    0    0    0    0  0.00000000000E+00  0.00000000000E+00  0.74505805969E-08  0.10566000000E+00  0.10566000000E+00 0.  1.
     999900   -1    0    0    0    0 -0.00000000000E+00 -0.00000000000E+00 -0.74505805969E-08  0.93827000000E+00  0.93827000000E+00 0. -1.
     999902    2    1    2    0    0 -0.22638450146E-01 -0.35458249493E-02 -0.36916396369E-02  0.10207200775E+01  0.10204561608E+01 0.  0.
     999903    2    3    3    0    0 -0.37568102127E-01  0.11563405542E+00 -0.45279266409E-01  0.13158776501E+00  0.21966585156E-01 0.  0.
         14    1    1    2    0    0  0.22638450146E-01  0.35458249493E-02  0.36916396369E-02  0.23209922508E-01  0.00000000000E+00 0. -1.
     999901    1    3    3    0    0  0.14929651980E-01 -0.11917988037E+00  0.41587626772E-01  0.88913231248E+00  0.88000000000E+00 0. -1.
        -11    1    4    4    0    0 -0.19784729202E-01  0.53929066667E-01 -0.99778276759E-02  0.58306070930E-01  0.51100000000E-03 0. -1.
         11    1    4    4    0    0 -0.17783372925E-01  0.61704988758E-01 -0.35301438733E-01  0.73281694083E-01  0.51100000000E-03 0.  1.
</event>
<event>
 8    1  0.1088021E+005  0.1043930E+01  0.7957747E-01            NaN
         13   -1    0    0    0    0  0.00000000000E+00  0.00000000000E+00  0.74505805969E-08  0.10566000000E+00  0.10566000000E+00 0.  1.
     999900   -1    0    0    0    0 -0.00000000000E+00 -0.00000000000E+00 -0.74505805969E-08  0.93827000000E+00  0.93827000000E+00 0.  1.
     999902    2    1    2    0    0 -0.13106266536E-01  0.19271256843E-02 -0.17427659488E-01  0.10220391035E+01  0.10218046377E+01 0.  0.
     999903    2    3    3    0    0  0.51418455797E-01 -0.81269870048E-01 -0.89378552563E-01  0.13284727326E+00  0.20278633573E-01 0.  0.
         14    1    1    2    0    0  0.13106266536E-01 -0.19271256843E-02  0.17427659488E-01  0.21890896536E-01  0.00000000000E+00 0.  1.
     999901    1    3    3    0    0 -0.64524722333E-01  0.83196995732E-01  0.71950893075E-01  0.88919183021E+00  0.88000000000E+00 0.  1.
        -11    1    4    4    0    0  0.28731749045E-01 -0.55727379873E-01 -0.46718958478E-01  0.78191920765E-01  0.51100000000E-03 0. -1.
         11    1    4    4    0    0  0.22686706752E-01 -0.25542490175E-01 -0.42659594085E-01  0.54655352493E-01  0.51100000000E-03 0.  1.
</event>
<event>
 8    1  0.1088021E+005  0.1043930E+01  0.7957747E-01            NaN
         13   -1    0    0    0    0  0.00000000000E+00  0.00000000000E+00  0.74505805969E-08  0.10566000000E+00  0.10566000000E+00 0. -1.
     999900   -1    0    0    0    0 -0.00000000000E+00 -0.00000000000E+00 -0.74505805969E-08  0.93827000000E+00  0.93827000000E+00 0.  1.
     999902    2    1    2    0    0  0.18743230685E-01 -0.80023336371E-02  0.11213681611E-01  0.10206686007E+01  0.10204034985E+01 0.  0.
     999903    2    3    3    0    0 -0.30011320982E-01 -0.73910924453E-02 -0.12380386381E+00  0.12903688445E+00  0.19178457159E-01 0.  0.
         14    1    1    2    0    0 -0.18743230685E-01  0.80023336371E-02 -0.11213681611E-01  0.23261399258E-01  0.00000000000E+00 0.  1.
     999901    1    3    3    0    0  0.48754551667E-01 -0.61124119184E-03  0.13501754543E+00  0.89163171629E+00  0.88000000000E+00 0. -1.
        -11    1    4    4    0    0 -0.25175485090E-01 -0.10858903530E-01 -0.74759282460E-01  0.79629970930E-01  0.51100000000E-03 0. -1.
         11    1    4    4    0    0 -0.48358358915E-02  0.34678110848E-02 -0.49044581353E-01  0.49406913521E-01  0.51100000000E-03 0.  1.
</event>
<event>
 8    1  0.1088021E+005  0.1043930E+01  0.7957747E-01            NaN
         13   -1    0    0    0    0  0.00000000000E+00  0.00000000000E+00  0.74505805969E-08  0.10566000000E+00  0.10566000000E+00 0. -1.
     999900   -1    0    0    0    0 -0.00000000000E+00 -0.00000000000E+00 -0.74505805969E-08  0.93827000000E+00  0.93827000000E+00 0. -1.
     999902    2    1    2    0    0 -0.89123654397E-02 -0.11671354540E-01 -0.16509460654E-01  0.10218344560E+01  0.10215955376E+01 0.  0.
     999903    2    3    3    0    0  0.82850625017E-02  0.12789702817E+00  0.45673471990E-02  0.13042023307E+00  0.23712537950E-01 0.  0.
         14    1    1    2    0    0  0.89123654397E-02  0.11671354540E-01  0.16509460654E-01  0.22095544022E-01  0.00000000000E+00 0. -1.
     999901    1    3    3    0    0 -0.17197427941E-01 -0.13956838271E+00 -0.21076807853E-01  0.89141422291E+00  0.88000000000E+00 0.  1.
        -11    1    4    4    0    0 -0.31626803884E-02  0.96755687313E-01  0.75561419278E-02  0.97103151218E-01  0.51100000000E-03 0.  1.
         11    1    4    4    0    0  0.11447742890E-01  0.31141340861E-01 -0.29887947288E-02  0.33317081847E-01  0.51100000000E-03 0. -1.
</event>
<event>
 8    1  0.1088021E+005  0.1043930E+01  0.7957747E-01            NaN
         13   -1    0    0    0    0  0.00000000000E+00  0.00000000000E+00  0.74505805969E-08  0.10566000000E+00  0.10566000000E+00 0.  1.
     999900   -1    0    0    0    0 -0.00000000000E+00 -0.00000000000E+00 -0.74505805969E-08  0.93827000000E+00  0.93827000000E+00 0.  1.
     999902    2    1    2    0    0 -0.97899673450E-02 -0.25333259876E-01 -0.32599864511E-02  0.10165759321E+01  0.10162078433E+01 0.  0.
     999903    2    3    3    0    0 -0.90802439782E-01  0.35950956705E-01 -0.79509166674E-01  0.12745686623E+00  0.19646648697E-01 0.  0.
         14    1    1    2    0    0  0.97899673450E-02  0.25333259876E-01  0.32599864511E-02  0.27354067855E-01  0.00000000000E+00 0. -1.
     999901    1    3    3    0    0  0.81012472437E-01 -0.61284216581E-01  0.76249180223E-01  0.88911906592E+00  0.88000000000E+00 0. -1.
        -11    1    4    4    0    0 -0.37457505857E-01  0.15892999219E-01 -0.45692675054E-01  0.61186059228E-01  0.51100000000E-03 0. -1.
         11    1    4    4    0    0 -0.53344933925E-01  0.20057957486E-01 -0.33816491620E-01  0.66270807000E-01  0.51100000000E-03 0.  1.
</event>
<event>
 8    1  0.1088021E+005  0.1043930E+01  0.7957747E-01            NaN
         13   -1    0    0    0    0  0.00000000000E+00  0.00000000000E+00  0.74505805969E-08  0.10566000000E+00  0.10566000000E+00 0. -1.
     999900   -1    0    0    0    0 -0.00000000000E+00 -0.00000000000E+00 -0.74505805969E-08  0.93827000000E+00  0.93827000000E+00 0. -1.
     999902    2    1    2    0    0 -0.21390274351E-01 -0.63147972793E-02  0.77339314504E-02  0.10203241915E+01  0.10200510877E+01 0.  0.
     999903    2    3    3    0    0 -0.99175667163E-01 -0.56996217596E-01 -0.63958719099E-01  0.13254099166E+00  0.19799367228E-01 0.  0.
         14    1    1    2    0    0  0.21390274351E-01  0.63147972793E-02 -0.77339314504E-02  0.23605808547E-01  0.00000000000E+00 0.  1.
     999901    1    3    3    0    0  0.77785392812E-01  0.50681420317E-01  0.71692650549E-01  0.88778319980E+00  0.88000000000E+00 0.  1.
        -11    1    4    4    0    0 -0.45260507433E-01 -0.21926919023E-01 -0.38614618216E-01  0.63408620643E-01  0.51100000000E-03 0.  1.
         11    1    4    4    0    0 -0.53915159731E-01 -0.35069298573E-01 -0.25344100883E-01  0.69132371012E-01  0.51100000000E-03 0. -1.
</event>
<event>
 8    1  0.1088021E+005  0.1043930E+01  0.7957747E-01            NaN
         13   -1    0    0    0    0  0.00000000000E+00  0.00000000000E+00  0.74505805969E-08  0.10566000000E+00  0.10566000000E+00 0. -1.
     999900   -1    0    0    0    0 -0.00000000000E+00 -0.00000000000E+00 -0.74505805969E-08  0.93827000000E+00  0.93827000000E+00 0. -1.
     999902    2    1    2    0    0 -0.20040976589E-01 -0.62218183564E-02  0.11040087035E-01  0.10202184988E+01  0.10199429151E+01 0.  0.
     999903    2    3    3    0    0  0.26082599896E-01 -0.38990391080E-01  0.12119170582E+00  0.13154840099E+00  0.20420568773E-01 0.  0.
         14    1    1    2    0    0  0.20040976589E-01  0.62218183564E-02 -0.11040087035E-01  0.23711501177E-01  0.00000000000E+00 0. -1.
     999901    1    3    3    0    0 -0.46123576486E-01  0.32768572724E-01 -0.11015161878E+00  0.88867009784E+00  0.88000000000E+00 0. -1.
        -11    1    4    4    0    0  0.26137134605E-03  0.10963065325E-02  0.16058075104E-01  0.16105685333E-01  0.51100000000E-03 0. -1.
         11    1    4    4    0    0  0.25821228550E-01 -0.40086697613E-01  0.10513363072E+00  0.11544271565E+00  0.51100000000E-03 0.  1.
</event>
<event>
 8    1  0.1088021E+005  0.1043930E+01  0.7957747E-01            NaN
         13   -1    0    0    0    0  0.00000000000E+00  0.00000000000E+00  0.74505805969E-08  0.10566000000E+00  0.10566000000E+00 0. -1.
     999900   -1    0    0    0    0 -0.00000000000E+00 -0.00000000000E+00 -0.74505805969E-08  0.93827000000E+00  0.93827000000E+00 0. -1.
     999902    2    1    2    0    0  0.10631422465E-01  0.15360932095E-01 -0.12546552169E-01  0.10214266369E+01  0.10211787176E+01 0.  0.
     999903    2    3    3    0    0  0.46293706780E-01  0.12101764108E+00  0.25513770553E-01  0.13357319922E+00  0.20061662978E-01 0.  0.
         14    1    1    2    0    0 -0.10631422465E-01 -0.15360932095E-01  0.12546552169E-01  0.22503363077E-01  0.00000000000E+00 0. -1.
     999901    1    3    3    0    0 -0.35662284315E-01 -0.10565670899E+00 -0.38060322722E-01  0.88785343770E+00  0.88000000000E+00 0. -1.
        -11    1    4    4    0    0  0.40268702169E-01  0.79093387975E-01  0.17250065891E-01  0.90416581941E-01  0.51100000000E-03 0. -1.
         11    1    4    4    0    0  0.60250046110E-02  0.41924253107E-01  0.82637046613E-02  0.43156617278E-01  0.51100000000E-03 0.  1.
</event>
<event>
 8    1  0.1088021E+005  0.1043930E+01  0.7957747E-01            NaN
         13   -1    0    0    0    0  0.00000000000E+00  0.00000000000E+00  0.74505805969E-08  0.10566000000E+00  0.10566000000E+00 0.  1.
     999900   -1    0    0    0    0 -0.00000000000E+00 -0.00000000000E+00 -0.74505805969E-08  0.93827000000E+00  0.93827000000E+00 0.  1.
     999902    2    1    2    0    0 -0.66313395701E-02  0.82042563524E-02 -0.21597198518E-01  0.10198941212E+01  0.10196108547E+01 0.  0.
     999903    2    3    3    0    0  0.11056682439E+00  0.14422230851E-01  0.60585484433E-01  0.12830673555E+00  0.18947138670E-01 0.  0.
         14    1    1    2    0    0  0.66313395701E-02 -0.82042563524E-02  0.21597198518E-01  0.24035878819E-01  0.00000000000E+00 0.  1.
     999901    1    3    3    0    0 -0.11719816396E+00 -0.62179744985E-02 -0.82182682951E-01  0.89158738563E+00  0.88000000000E+00 0.  1.
        -11    1    4    4    0    0  0.22405557932E-01  0.59092648075E-02  0.21054790058E-01  0.31312836700E-01  0.51100000000E-03 0. -1.
         11    1    4    4    0    0  0.88161266461E-01  0.85129660434E-02  0.39530694375E-01  0.96993898848E-01  0.51100000000E-03 0.  1.
</event>
<event>
 8    1  0.1183175E+005  0.1043930E+01  0.7957747E-01            NaN
         13   -1    0    0    0    0  0.00000000000E+00  0.00000000000E+00  0.74505805969E-08  0.10566000000E+00  0.10566000000E+00 0.  1.
     999900   -1    0    0    0    0 -0.00000000000E+00 -0.00000000000E+00 -0.74505805969E-08  0.93827000000E+00  0.93827000000E+00 0. -1.
     999902    2    1    2    0    0 -0.19279922889E-01 -0.11230338177E-01  0.77030860825E-02  0.10203254780E+01  0.10200524044E+01 0.  0.
     999903    2    3    3    0    0  0.25306759323E-02 -0.71046551442E-01 -0.10761775457E+00  0.13052068040E+00  0.20001253025E-01 0.  0.
         14    1    1    2    0    0  0.19279922889E-01  0.11230338177E-01 -0.77030860825E-02  0.23604521969E-01  0.00000000000E+00 0. -1.
     999901    1    3    3    0    0 -0.21810598821E-01  0.59816213265E-01  0.11532084065E+00  0.88980479763E+00  0.88000000000E+00 0.  1.
        -11    1    4    4    0    0  0.58507369485E-02 -0.48952189523E-01 -0.58143390068E-01  0.76232951613E-01  0.51100000000E-03 0.  1.
         11    1    4    4    0    0 -0.33200610162E-02 -0.22094361919E-01 -0.49474364500E-01  0.54287728792E-01  0.51100000000E-03 0. -1.
</event>
<event>
 8    1  0.1088021E+005  0.1043930E+01  0.7957747E-01            NaN
         13   -1    0    0    0    0  0.00000000000E+00  0.00000000000E+00  0.74505805969E-08  0.10566000000E+00  0.10566000000E+00 0. -1.
     999900   -1    0    0    0    0 -0.00000000000E+00 -0.00000000000E+00 -0.74505805969E-08  0.93827000000E+00  0.93827000000E+00 0.  1.
     999902    2    1    2    0    0  0.15469882946E-01 -0.18297073095E-01  0.22721187974E-02  0.10198621234E+01  0.10195780931E+01 0.  0.
     999903    2    3    3    0    0 -0.42026652653E-01 -0.72043469708E-01 -0.98309701638E-01  0.13064267387E+00  0.21123677187E-01 0.  0.
         14    1    1    2    0    0 -0.15469882946E-01  0.18297073095E-01 -0.22721187974E-02  0.24067876642E-01  0.00000000000E+00 0.  1.
     999901    1    3    3    0    0  0.57496535599E-01  0.53746396612E-01  0.10058182043E+00  0.88921944949E+00  0.88000000000E+00 0. -1.
        -11    1    4    4    0    0 -0.28129291588E-01 -0.36552478539E-01 -0.40419573595E-01  0.61329795232E-01  0.51100000000E-03 0. -1.
         11    1    4    4    0    0 -0.13897361065E-01 -0.35490991169E-01 -0.57890128042E-01  0.69312878634E-01  0.51100000000E-03 0.  1.
</event>
<event>
 8    1  0.1088021E+005  0.1043930E+01  0.7957747E-01            NaN
         13   -1    0    0    0    0  0.00000000000E+00  0.00000000000E+00  0.74505805969E-08  0.10566000000E+00  0.10566000000E+00 0. -1.
     999900   -1    0    0    0    0 -0.00000000000E+00 -0.00000000000E+00 -0.74505805969E-08  0.93827000000E+00  0.93827000000E+00 0. -1.
     999902    2    1    2    0    0 -0.23564721011E-01 -0.13222157668E-02  0.68843381821E-03  0.10203181752E+01  0.10200449305E+01 0.  0.
     999903    2    3    3    0    0 -0.12530664911E+00  0.13869177868E-01  0.39278682321E-01  0.13348594433E+00  0.19533869083E-01 0.  0.
         14    1    1    2    0    0  0.23564721011E-01  0.13222157668E-02 -0.68843381821E-03  0.23611824834E-01  0.00000000000E+00 0. -1.
     999901    1    3    3    0    0  0.10174192810E+00 -0.15191393634E-01 -0.38590248502E-01  0.88683223084E+00  0.88000000000E+00 0. -1.
        -11    1    4    4    0    0 -0.55907210328E-01  0.13947129143E-01  0.11658933558E-01  0.58790564130E-01  0.51100000000E-03 0. -1.
         11    1    4    4    0    0 -0.69399438785E-01 -0.77951275694E-04  0.27619748763E-01  0.74695380197E-01  0.51100000000E-03 0.  1.
</event>
<event>
 8    1  0.1088021E+005  0.1043930E+01  0.7957747E-01            NaN
         13   -1    0    0    0    0  0.00000000000E+00  0.00000000000E+00  0.74505805969E-08  0.10566000000E+00  0.10566000000E+00 0.  1.
     999900   -1    0    0    0    0 -0.00000000000E+00 -0.00000000000E+00 -0.74505805969E-08  0.93827000000E+00  0.93827000000E+00 0.  1.
     999902    2    1    2    0    0 -0.15646163008E-01 -0.90381512224E-02  0.13428023997E-01  0.10214177273E+01  0.10211696094E+01 0.  0.
     999903    2    3    3    0    0  0.12123833963E+00  0.30205753701E-01  0.28638329816E-01  0.12984114362E+00  0.20674769399E-01 0.  0.
         14    1    1    2    0    0  0.15646163008E-01  0.90381512224E-02 -0.13428023997E-01  0.22512272717E-01  0.00000000000E+00 0. -1.
     999901    1    3    3    0    0 -0.13688450263E+00 -0.39243904923E-01 -0.15210305819E-01  0.89157658366E+00  0.88000000000E+00 0. -1.
        -11    1    4    4    0    0  0.45636920875E-01  0.20531413380E-01  0.64607203359E-02  0.50460573823E-01  0.51100000000E-03 0. -1.
         11    1    4    4    0    0  0.75601418751E-01  0.96743403211E-02  0.22177609481E-01  0.79380569796E-01  0.51100000000E-03 0.  1.
</event>
<event>
 8    1  0.1088021E+005  0.1043930E+01  0.7957747E-01            NaN
         13   -1    0    0    0    0  0.00000000000E+00  0.00000000000E+00  0.74505805969E-08  0.10566000000E+00  0.10566000000E+00 0. -1.
     999900   -1    0    0    0    0 -0.00000000000E+00 -0.00000000000E+00 -0.74505805969E-08  0.93827000000E+00  0.93827000000E+00 0.  1.
     999902    2    1    2    0    0  0.22314993804E-01  0.34758711584E-02 -0.46116823392E-02  0.10208798754E+01  0.10206196215E+01 0.  0.
     999903    2    3    3    0    0 -0.77965040788E-01 -0.68185428527E-01  0.73717608670E-01  0.12884461545E+00  0.20948719638E-01 0.  0.
         14    1    1    2    0    0 -0.22314993804E-01 -0.34758711584E-02  0.46116823392E-02  0.23050124572E-01  0.00000000000E+00 0.  1.
     999901    1    3    3    0    0  0.10028003459E+00  0.71661299685E-01 -0.78329291010E-01  0.89203525998E+00  0.88000000000E+00 0.  1.
        -11    1    4    4    0    0 -0.20597811843E-02 -0.91376040916E-02  0.83899513833E-02  0.12585345139E-01  0.51100000000E-03 0. -1.
         11    1    4    4    0    0 -0.75905259604E-01 -0.59047824435E-01  0.65327657287E-01  0.11625927031E+00  0.51100000000E-03 0.  1.
</event>
<event>
 8    1  0.1250783E+005  0.1043930E+01  0.7957747E-01            NaN
         13   -1    0    0    0    0  0.00000000000E+00  0.00000000000E+00  0.74505805969E-08  0.10566000000E+00  0.10566000000E+00 0.  1.
     999900   -1    0    0    0    0 -0.00000000000E+00 -0.00000000000E+00 -0.74505805969E-08  0.93827000000E+00  0.93827000000E+00 0. -1.
     999902    2    1    2    0    0  0.10190991047E-01  0.15965305331E-01  0.14136639392E-01  0.10202954523E+01  0.10200216753E+01 0.  0.
     999903    2    3    3    0    0  0.29833540179E-01 -0.91068122929E-02 -0.12354231079E+00  0.12902112069E+00  0.20267532626E-01 0.  0.
         14    1    1    2    0    0 -0.10190991047E-01 -0.15965305331E-01 -0.14136639392E-01  0.23634547724E-01  0.00000000000E+00 0.  1.
     999901    1    3    3    0    0 -0.19642549132E-01  0.25072117624E-01  0.13767895018E+00  0.89127433158E+00  0.88000000000E+00 0.  1.
        -11    1    4    4    0    0  0.50764350239E-02  0.20697118459E-02 -0.55244426644E-01  0.55518120428E-01  0.51100000000E-03 0. -1.
         11    1    4    4    0    0  0.24757105155E-01 -0.11176524139E-01 -0.68297884148E-01  0.73503000263E-01  0.51100000000E-03 0.  1.
</event>
<event>
 8    1  0.1088021E+005  0.1043930E+01  0.7957747E-01            NaN
         13   -1    0    0    0    0  0.00000000000E+00  0.00000000000E+00  0.74505805969E-08  0.10566000000E+00  0.10566000000E+00 0. -1.
     999900   -1    0    0    0    0 -0.00000000000E+00 -0.00000000000E+00 -0.74505805969E-08  0.93827000000E+00  0.93827000000E+00 0.  1.
     999902    2    1    2    0    0 -0.13153401494E-01  0.15009179540E-01  0.14214570423E-01  0.10194281337E+01  0.10191336410E+01 0.  0.
     999903    2    3    3    0    0  0.12614665772E+00  0.78163990400E-02  0.98710212093E-02  0.12843143951E+00  0.20569935513E-01 0.  0.
         14    1    1    2    0    0  0.13153401494E-01 -0.15009179540E-01 -0.14214570423E-01  0.24501866330E-01  0.00000000000E+00 0.  1.
     999901    1    3    3    0    0 -0.13930005921E+00  0.71927805004E-02  0.43435492136E-02  0.89099669416E+00  0.88000000000E+00 0.  1.
        -11    1    4    4    0    0  0.12826194936E-01  0.31175386472E-02 -0.48274642749E-02  0.14063991471E-01  0.51100000000E-03 0.  1.
         11    1    4    4    0    0  0.11332046278E+00  0.46988603928E-02  0.14698485484E-01  0.11436744804E+00  0.51100000000E-03 0. -1.
</event>
<event>
 8    1  0.1088021E+005  0.1043930E+01  0.7957747E-01            NaN
         13   -1    0    0    0    0  0.00000000000E+00  0.00000000000E+00  0.74505805969E-08  0.10566000000E+00  0.10566000000E+00 0.  1.
     999900   -1    0    0    0    0 -0.00000000000E+00 -0.00000000000E+00 -0.74505805969E-08  0.93827000000E+00  0.93827000000E+00 0.  1.
     999902    2    1    2    0    0  0.16907628693E-01  0.13608524385E-01  0.98471507292E-02  0.10200966993E+01  0.10198182435E+01 0.  0.
     999903    2    3    3    0    0 -0.89626696409E-01 -0.11193694710E-01 -0.87782412232E-01  0.12796652717E+00  0.22614965562E-01 0.  0.
         14    1    1    2    0    0 -0.16907628693E-01 -0.13608524385E-01 -0.98471507292E-02  0.23833300683E-01  0.00000000000E+00 0. -1.
     999901    1    3    3    0    0  0.10653432510E+00  0.24802219095E-01  0.97629562961E-01  0.89213017215E+00  0.88000000000E+00 0. -1.
        -11    1    4    4    0    0 -0.64030972192E-01 -0.76550260002E-02 -0.47451098065E-01  0.80065177522E-01  0.51100000000E-03 0. -1.
         11    1    4    4    0    0 -0.25595724217E-01 -0.35386687099E-02 -0.40331314167E-01  0.47901349645E-01  0.51100000000E-03 0.  1.
</event>
<event>
 8    1  0.1088021E+005  0.1043930E+01  0.7957747E-01            NaN
         13   -1    0    0    0    0  0.00000000000E+00  0.00000000000E+00  0.74505805969E-08  0.10566000000E+00  0.10566000000E+00 0.  1.
     999900   -1    0    0    0    0 -0.00000000000E+00 -0.00000000000E+00 -0.74505805969E-08  0.93827000000E+00  0.93827000000E+00 0. -1.
     999902    2    1    2    0    0  0.10377764589E-01 -0.96991384329E-02 -0.22223179824E-01  0.10175549928E+01  0.10172131155E+01 0.  0.
     999903    2    3    3    0    0  0.12534194023E+00 -0.24942026815E-02  0.22054489790E-01  0.12894417538E+00  0.20576122471E-01 0.  0.
         14    1    1    2    0    0 -0.10377764589E-01  0.96991384329E-02  0.22223179824E-01  0.26375007217E-01  0.00000000000E+00 0.  1.
     999901    1    3    3    0    0 -0.11496417564E+00 -0.72049357514E-02 -0.44277669614E-01  0.88861081740E+00  0.88000000000E+00 0. -1.
        -11    1    4    4    0    0  0.11862319646E+00 -0.27482959685E-02  0.15720709076E-01  0.11969301435E+00  0.51100000000E-03 0.  1.
         11    1    4    4    0    0  0.67187437763E-02  0.25409328698E-03  0.63337807143E-02  0.92511610335E-02  0.51100000000E-03 0. -1.
</event>
<event>
 8    1  0.1088021E+005  0.1043930E+01  0.7957747E-01            NaN
         13   -1    0    0    0    0  0.00000000000E+00  0.00000000000E+00  0.74505805969E-08  0.10566000000E+00  0.10566000000E+00 0.  1.
     999900   -1    0    0    0    0 -0.00000000000E+00 -0.00000000000E+00 -0.74505805969E-08  0.93827000000E+00  0.93827000000E+00 0. -1.
     999902    2    1    2    0    0  0.14191061791E-02 -0.18971199778E-01  0.12646969278E-01  0.10210856109E+01  0.10208300341E+01 0.  0.
     999903    2    3    3    0    0 -0.11039081875E+00  0.10301357760E-02 -0.66236832836E-01  0.13028587636E+00  0.19997437622E-01 0.  0.
         14    1    1    2    0    0 -0.14191061791E-02  0.18971199778E-01 -0.12646969278E-01  0.22844389142E-01  0.00000000000E+00 0. -1.
     999901    1    3    3    0    0  0.11180992493E+00 -0.20001335554E-01  0.78883802114E-01  0.89079973449E+00  0.88000000000E+00 0.  1.
        -11    1    4    4    0    0 -0.44844134732E-01 -0.27129247148E-02 -0.16288264018E-01  0.47790428394E-01  0.51100000000E-03 0.  1.
         11    1    4    4    0    0 -0.65546684021E-01  0.37430604908E-02 -0.49948568818E-01  0.82495447971E-01  0.51100000000E-03 0. -1.
</event>
<event>
 8    1  0.1088021E+005  0.1043930E+01  0.7957747E-01            NaN
         13   -1    0    0    0    0  0.00000000000E+00  0.00000000000E+00  0.74505805969E-08  0.10566000000E+00  0.10566000000E+00 0. -1.
     999900   -1    0    0    0    0 -0.00000000000E+00 -0.00000000000E+00 -0.74505805969E-08  0.93827000000E+00  0.93827000000E+00 0. -1.
     999902    2    1    2    0    0  0.14730623905E-01  0.22960527837E-02 -0.16043230661E-01  0.10220291236E+01  0.10217944417E+01 0.  0.
     999903    2    3    3    0    0 -0.81825589503E-02 -0.46834451569E-01 -0.12347533911E+00  0.13383968524E+00  0.20161395123E-01 0.  0.
         14    1    1    2    0    0 -0.14730623905E-01 -0.22960527837E-02  0.16043230661E-01  0.21900876445E-01  0.00000000000E+00 0. -1.
     999901    1    3    3    0    0  0.22913182855E-01  0.49130504353E-01  0.10743210844E+00  0.88818943831E+00  0.88000000000E+00 0.  1.
        -11    1    4    4    0    0  0.55556250254E-02 -0.61512020898E-02 -0.26765489242E-01  0.28024182271E-01  0.51100000000E-03 0.  1.
         11    1    4    4    0    0 -0.13738183976E-01 -0.40683249479E-01 -0.96709849864E-01  0.10581550297E+00  0.51100000000E-03 0. -1.
</event>
<event>
 8    1  0.1088021E+005  0.1043930E+01  0.7957747E-01            NaN
         13   -1    0    0    0    0  0.00000000000E+00  0.00000000000E+00  0.74505805969E-08  0.10566000000E+00  0.10566000000E+00 0.  1.
     999900   -1    0    0    0    0 -0.00000000000E+00 -0.00000000000E+00 -0.74505805969E-08  0.93827000000E+00  0.93827000000E+00 0. -1.
     999902    2    1    2    0    0  0.31278803336E-02  0.64533504755E-02 -0.23010226989E-01  0.10198281346E+01  0.10195432920E+01 0.  0.
     999903    2    3    3    0    0  0.40358456953E-01  0.95372556873E-01 -0.80295738076E-01  0.13271237507E+00  0.20986645536E-01 0.  0.
         14    1    1    2    0    0 -0.31278803336E-02 -0.64533504755E-02  0.23010226989E-01  0.24101865360E-01  0.00000000000E+00 0.  1.
     999901    1    3    3    0    0 -0.37230576619E-01 -0.88919206398E-01  0.57285511087E-01  0.88711575957E+00  0.88000000000E+00 0.  1.
        -11    1    4    4    0    0  0.80067172221E-02  0.44946198445E-01 -0.31955477043E-01  0.55728645322E-01  0.51100000000E-03 0. -1.
         11    1    4    4    0    0  0.32351739731E-01  0.50426358428E-01 -0.48340261032E-01  0.76983729746E-01  0.51100000000E-03 0.  1.
</event>
<event>
 8    1  0.1088021E+005  0.1043930E+01  0.7957747E-01            NaN
         13   -1    0    0    0    0  0.00000000000E+00  0.00000000000E+00  0.74505805969E-08  0.10566000000E+00  0.10566000000E+00 0.  1.
     999900   -1    0    0    0    0 -0.00000000000E+00 -0.00000000000E+00 -0.74505805969E-08  0.93827000000E+00  0.93827000000E+00 0. -1.
     999902    2    1    2    0    0  0.14111461248E-01  0.69382124170E-02  0.14535238993E-01  0.10225163291E+01  0.10222920805E+01 0.  0.
     999903    2    3    3    0    0  0.46614045200E-01 -0.98811420409E-02  0.12442683820E+00  0.13492663094E+00  0.21275607971E-01 0.  0.
         14    1    1    2    0    0 -0.14111461248E-01 -0.69382124170E-02 -0.14535238993E-01  0.21413670930E-01  0.00000000000E+00 0.  1.
     999901    1    3    3    0    0 -0.32502583952E-01  0.16819354458E-01 -0.10989159921E+00  0.88758969813E+00  0.88000000000E+00 0. -1.
        -11    1    4    4    0    0  0.12802857553E-01 -0.57913785968E-02  0.64325556158E-01  0.65844449452E-01  0.51100000000E-03 0. -1.
         11    1    4    4    0    0  0.33811187647E-01 -0.40897634441E-02  0.60101282042E-01  0.69082181489E-01  0.51100000000E-03 0.  1.
</event>
<event>
 8    1  0.1088021E+005  0.1043930E+01  0.7957747E-01            NaN
         13   -1    0    0    0    0  0.00000000000E+00  0.00000000000E+00  0.74505805969E-08  0.10566000000E+00  0.10566000000E+00 0.  1.
     999900   -1    0    0    0    0 -0.00000000000E+00 -0.00000000000E+00 -0.74505805969E-08  0.93827000000E+00  0.93827000000E+00 0.  1.
     999902    2    1    2    0    0 -0.25154024698E-01 -0.93168502796E-02 -0.22040569884E-01  0.10092123477E+01  0.10086150145E+01 0.  0.
     999903    2    3    3    0    0 -0.10246208007E+00  0.29229322585E-01 -0.60637150425E-01  0.12414057726E+00  0.19524030306E-01 0.  0.
         14    1    1    2    0    0  0.25154024698E-01  0.93168502796E-02  0.22040569884E-01  0.34717652260E-01  0.00000000000E+00 0. -1.
     999901    1    3    3    0    0  0.77308055375E-01 -0.38546172864E-01  0.38596580541E-01  0.88507177048E+00  0.88000000000E+00 0. -1.
        -11    1    4    4    0    0 -0.56565983743E-01  0.61197370513E-02 -0.33479006892E-01  0.66017169902E-01  0.51100000000E-03 0. -1.
         11    1    4    4    0    0 -0.45896096330E-01  0.23109585533E-01 -0.27158143533E-01  0.58123407359E-01  0.51100000000E-03 0.  1.
</event>
<event>
 8    1  0.1088021E+005  0.1043930E+01  0.7957747E-01            NaN
         13   -1    0    0    0    0  0.00000000000E+00  0.00000000000E+00  0.74505805969E-08  0.10566000000E+00  0.10566000000E+00 0. -1.
     999900   -1    0    0    0    0 -0.00000000000E+00 -0.00000000000E+00 -0.74505805969E-08  0.93827000000E+00  0.93827000000E+00 0.  1.
     999902    2    1    2    0    0 -0.12761357414E-01  0.56336872004E-02  0.17585259891E-01  0.10214837968E+01  0.10212371492E+01 0.  0.
     999903    2    3    3    0    0 -0.10179550354E+00  0.80082065036E-01 -0.22271993413E-01  0.13296917067E+00  0.20231089318E-01 0.  0.
         14    1    1    2    0    0  0.12761357414E-01 -0.56336872004E-02 -0.17585259891E-01  0.22446203241E-01  0.00000000000E+00 0.  1.
     999901    1    3    3    0    0  0.89034146129E-01 -0.74448377835E-01  0.39857253304E-01  0.88851462609E+00  0.88000000000E+00 0.  1.
        -11    1    4    4    0    0 -0.43473707554E-01  0.33483457374E-01  0.63770547079E-03  0.54879622407E-01  0.51100000000E-03 0. -1.
         11    1    4    4    0    0 -0.58321795989E-01  0.46598607662E-01 -0.22909698884E-01  0.78089548259E-01  0.51100000000E-03 0.  1.
</event>
<event>
 8    1  0.1088021E+005  0.1043930E+01  0.7957747E-01            NaN
         13   -1    0    0    0    0  0.00000000000E+00  0.00000000000E+00  0.74505805969E-08  0.10566000000E+00  0.10566000000E+00 0. -1.
     999900   -1    0    0    0    0 -0.00000000000E+00 -0.00000000000E+00 -0.74505805969E-08  0.93827000000E+00  0.93827000000E+00 0.  1.
     999902    2    1    2    0    0 -0.13455902339E-01  0.80019135263E-02 -0.17767656178E-01  0.10202491737E+01  0.10199743109E+01 0.  0.
     999903    2    3    3    0    0 -0.94533304829E-01 -0.31554120490E-01  0.81241379923E-01  0.13011378274E+00  0.19930539518E-01 0.  0.
         14    1    1    2    0    0  0.13455902339E-01 -0.80019135263E-02  0.17767656178E-01  0.23680826293E-01  0.00000000000E+00 0. -1.
     999901    1    3    3    0    0  0.81077402490E-01  0.39556034016E-01 -0.99009036102E-01  0.89013539097E+00  0.88000000000E+00 0.  1.
        -11    1    4    4    0    0 -0.61222563458E-01 -0.12217897028E-01  0.42798839912E-01  0.75693335922E-01  0.51100000000E-03 0. -1.
         11    1    4    4    0    0 -0.33310741371E-01 -0.19336223462E-01  0.38442540011E-01  0.54420446819E-01  0.51100000000E-03 0.  1.
</event>
<event>
 7    1  0.1088021E+005  0.1043930E+01  0.7957747E-01            NaN
         13   -1    0    0    0    0  0.00000000000E+00  0.00000000000E+00  0.74505805969E-08  0.10566000000E+00  0.10566000000E+00 0. -1.
     999900   -1    0    0    0    0 -0.00000000000E+00 -0.00000000000E+00 -0.74505805969E-08  0.93827000000E+00  0.93827000000E+00 0. -1.
     999903    2    1    2    0    0  0.47041189099E-01  0.41747907289E-01 -0.49721607572E-01  0.82640020973E-01  0.20034309872E-01 0.  0.
         14    1    1    2    0    0  0.66639037335E-01  0.38955212554E-02  0.28415225749E-01  0.72549027817E-01  0.00000000000E+00 0. -1.
     999901    1    1    2    0    0 -0.11368022643E+00 -0.45643428544E-01  0.21306381823E-01  0.88874095121E+00  0.88000000000E+00 0. -1.
        -11    1    3    3    0    0  0.40528521154E-02 -0.20305541058E-02 -0.45898370340E-02  0.64712043118E-02  0.51100000000E-03 0.  1.
         11    1    3    3    0    0  0.42988336983E-01  0.43778461395E-01 -0.45131770538E-01  0.76168816661E-01  0.51100000000E-03 0. -1.
</event>
<event>
 8    1  0.1088021E+005  0.1043930E+01  0.7957747E-01            NaN
         13   -1    0    0    0    0  0.00000000000E+00  0.00000000000E+00  0.74505805969E-08  0.10566000000E+00  0.10566000000E+00 0.  1.
     999900   -1    0    0    0    0 -0.00000000000E+00 -0.00000000000E+00 -0.74505805969E-08  0.93827000000E+00  0.93827000000E+00 0.  1.
     999902    2    1    2    0    0  0.13166208610E-02  0.20935472831E-01 -0.15953244861E-01  0.10175759959E+01  0.10172346700E+01 0.  0.
     999903    2    3    3    0    0  0.21636447781E-01 -0.78283119361E-01 -0.97011181429E-01  0.12806623565E+00  0.19834534101E-01 0.  0.
         14    1    1    2    0    0 -0.13166208610E-02 -0.20935472831E-01  0.15953244861E-01  0.26354004150E-01  0.00000000000E+00 0.  1.
     999901    1    3    3    0    0 -0.20319826920E-01  0.99218592192E-01  0.81057936568E-01  0.88950976020E+00  0.88000000000E+00 0. -1.
        -11    1    4    4    0    0  0.24693611900E-01 -0.57770709269E-01 -0.71414766008E-01  0.95118658754E-01  0.51100000000E-03 0. -1.
         11    1    4    4    0    0 -0.30571641192E-02 -0.20512410092E-01 -0.25596415421E-01  0.32947576901E-01  0.51100000000E-03 0.  1.
</event>
<event>
 8    1  0.1088021E+005  0.1043930E+01  0.7957747E-01            NaN
         13   -1    0    0    0    0  0.00000000000E+00  0.00000000000E+00  0.74505805969E-08  0.10566000000E+00  0.10566000000E+00 0. -1.
     999900   -1    0    0    0    0 -0.00000000000E+00 -0.00000000000E+00 -0.74505805969E-08  0.93827000000E+00  0.93827000000E+00 0.  1.
     999902    2    1    2    0    0 -0.17909382673E-01 -0.13563684749E-01 -0.81878718636E-02  0.10200184802E+01  0.10197381719E+01 0.  0.
     999903    2    3    3    0    0 -0.75694002133E-01  0.83968837383E-01 -0.63040268539E-01  0.13105254133E+00  0.20502329642E-01 0.  0.
         14    1    1    2    0    0  0.17909382673E-01  0.13563684749E-01  0.81878718636E-02  0.23911519763E-01  0.00000000000E+00 0. -1.
     999901    1    3    3    0    0  0.57784619460E-01 -0.97532522132E-01  0.54852396676E-01  0.88896593891E+00  0.88000000000E+00 0.  1.
        -11    1    4    4    0    0 -0.24057477490E-01  0.14353428183E-01 -0.18767471644E-01  0.33723318886E-01  0.51100000000E-03 0. -1.
         11    1    4    4    0    0 -0.51636524643E-01  0.69615409200E-01 -0.44272796896E-01  0.97329222443E-01  0.51100000000E-03 0.  1.
</event>
<event>
 8    1  0.1088021E+005  0.1043930E+01  0.7957747E-01            NaN
         13   -1    0    0    0    0  0.00000000000E+00  0.00000000000E+00  0.74505805969E-08  0.10566000000E+00  0.10566000000E+00 0.  1.
     999900   -1    0    0    0    0 -0.00000000000E+00 -0.00000000000E+00 -0.74505805969E-08  0.93827000000E+00  0.93827000000E+00 0. -1.
     999902    2    1    2    0    0 -0.16649561721E-01  0.26685264209E-02 -0.16206807242E-01  0.10205421925E+01  0.10202741676E+01 0.  0.
     999903    2    3    3    0    0  0.97445693526E-01  0.51372421107E-01 -0.66586151654E-01  0.13041418206E+00  0.20960783676E-01 0.  0.
         14    1    1    2    0    0  0.16649561721E-01 -0.26685264209E-02  0.16206807242E-01  0.23387807502E-01  0.00000000000E+00 0.  1.
     999901    1    3    3    0    0 -0.11409525525E+00 -0.48703894686E-01  0.50379344412E-01  0.89012801044E+00  0.88000000000E+00 0.  1.
        -11    1    4    4    0    0  0.60800256066E-01  0.37279224260E-01 -0.53026696453E-01  0.88873524499E-01  0.51100000000E-03 0. -1.
         11    1    4    4    0    0  0.36645437460E-01  0.14093196847E-01 -0.13559455201E-01  0.41540657558E-01  0.51100000000E-03 0.  1.
</event>
<event>
 8    1  0.1088021E+005  0.1043930E+01  0.7957747E-01            NaN
         13   -1    0    0    0    0  0.00000000000E+00  0.00000000000E+00  0.74505805969E-08  0.10566000000E+00  0.10566000000E+00 0. -1.
     999900   -1    0    0    0    0 -0.00000000000E+00 -0.00000000000E+00 -0.74505805969E-08  0.93827000000E+00  0.93827000000E+00 0.  1.
     999902    2    1    2    0    0 -0.65186152952E-02 -0.61875535575E-02 -0.21780344011E-01  0.10203681336E+01  0.10200960575E+01 0.  0.
     999903    2    3    3    0    0  0.88112163610E-01  0.80315425376E-01  0.44729012686E-01  0.12859392212E+00  0.17927389687E-01 0.  0.
         14    1    1    2    0    0  0.65186152952E-02  0.61875535575E-02  0.21780344011E-01  0.23561866429E-01  0.00000000000E+00 0. -1.
     999901    1    3    3    0    0 -0.94630778905E-01 -0.86502978933E-01 -0.66509356697E-01  0.89177421145E+00  0.88000000000E+00 0.  1.
        -11    1    4    4    0    0  0.38056490425E-01  0.33376877731E-01  0.28442865011E-01  0.58065222996E-01  0.51100000000E-03 0. -1.
         11    1    4    4    0    0  0.50055673185E-01  0.46938547645E-01  0.16286147675E-01  0.70528699124E-01  0.51100000000E-03 0.  1.
</event>
<event>
 8    1  0.1088021E+005  0.1043930E+01  0.7957747E-01            NaN
         13   -1    0    0    0    0  0.00000000000E+00  0.00000000000E+00  0.74505805969E-08  0.10566000000E+00  0.10566000000E+00 0. -1.
     999900   -1    0    0    0    0 -0.00000000000E+00 -0.00000000000E+00 -0.74505805969E-08  0.93827000000E+00  0.93827000000E+00 0. -1.
     999902    2    1    2    0    0  0.18328306052E-01  0.15198679877E-01 -0.68527720339E-02  0.10191532537E+01  0.10188520341E+01 0.  0.
     999903    2    3    3    0    0 -0.24737851616E-01 -0.98888595538E-01 -0.75209806961E-01  0.12811830232E+00  0.19153816773E-01 0.  0.
         14    1    1    2    0    0 -0.18328306052E-01 -0.15198679877E-01  0.68527720339E-02  0.24776746301E-01  0.00000000000E+00 0.  1.
     999901    1    3    3    0    0  0.43066157668E-01  0.11408727542E+00  0.68357034927E-01  0.89103495138E+00  0.88000000000E+00 0.  1.
        -11    1    4    4    0    0  0.30609023295E-02 -0.70374385535E-02 -0.44608678647E-02  0.88912950446E-02  0.51100000000E-03 0.  1.
         11    1    4    4    0    0 -0.27798753945E-01 -0.91851156985E-01 -0.70748939097E-01  0.11922700728E+00  0.51100000000E-03 0. -1.
</event>
<event>
 8    1  0.1088021E+005  0.1043930E+01  0.7957747E-01            NaN
         13   -1    0    0    0    0  0.00000000000E+00  0.00000000000E+00  0.74505805969E-08  0.10566000000E+00  0.10566000000E+00 0.  1.
     999900   -1    0    0    0    0 -0.00000000000E+00 -0.00000000000E+00 -0.74505805969E-08  0.93827000000E+00  0.93827000000E+00 0.  1.
     999902    2    1    2    0    0 -0.17258839651E-01  0.82364284473E-02  0.15404410722E-01  0.10193738975E+01  0.10190780837E+01 0.  0.
     999903    2    3    3    0    0  0.61164177091E-02  0.81406011413E-01  0.10152913548E+00  0.13183930171E+00  0.20225895900E-01 0.  0.
         14    1    1    2    0    0  0.17258839651E-01 -0.82364284473E-02 -0.15404410722E-01  0.24556102487E-01  0.00000000000E+00 0. -1.
     999901    1    3    3    0    0 -0.23375257360E-01 -0.73169582966E-01 -0.86124724759E-01  0.88753459580E+00  0.88000000000E+00 0.  1.
        -11    1    4    4    0    0  0.10025976612E-01  0.69487230245E-01  0.76473397094E-01  0.10381443521E+00  0.51100000000E-03 0.  1.
         11    1    4    4    0    0 -0.39095589026E-02  0.11918781168E-01  0.25055738386E-01  0.28024866501E-01  0.51100000000E-03 0. -1.
</event>
<event>
 7    1  0.1088021E+005  0.1043930E+01  0.7957747E-01            NaN
         13   -1    0    0    0    0  0.00000000000E+00  0.00000000000E+00  0.74505805969E-08  0.10566000000E+00  0.10566000000E+00 0.  1.
     999900   -1    0    0    0    0 -0.00000000000E+00 -0.00000000000E+00 -0.74505805969E-08  0.93827000000E+00  0.93827000000E+00 0.  1.
     999903    2    1    2    0    0 -0.10122799336E+00  0.43001065729E-01 -0.16825823514E-01  0.11309599042E+00  0.20282909494E-01 0.  0.
         14    1    1    2    0    0 -0.37111025386E-01 -0.85852957233E-02 -0.83956246115E-02  0.39005410144E-01  0.00000000000E+00 0.  1.
     999901    1    1    2    0    0  0.13833901875E+00 -0.34415770005E-01  0.25221448126E-01  0.89182859944E+00  0.88000000000E+00 0. -1.
        -11    1    3    3    0    0 -0.28130578391E-01  0.25676204312E-02 -0.57059022343E-02  0.28822570264E-01  0.51100000000E-03 0.  1.
         11    1    3    3    0    0 -0.73097414971E-01  0.40433445297E-01 -0.11119921280E-01  0.84273420153E-01  0.51100000000E-03 0. -1.
</event>
<event>
 8    1  0.1088021E+005  0.1043930E+01  0.7957747E-01            NaN
         13   -1    0    0    0    0  0.00000000000E+00  0.00000000000E+00  0.74505805969E-08  0.10566000000E+00  0.10566000000E+00 0. -1.
     999900   -1    0    0    0    0 -0.00000000000E+00 -0.00000000000E+00 -0.74505805969E-08  0.93827000000E+00  0.93827000000E+00 0. -1.
     999902    2    1    2    0    0 -0.13424024152E-01  0.88926264062E-02  0.16376029578E-01  0.10209635555E+01  0.10207052092E+01 0.  0.
     999903    2    3    3    0    0  0.79506918294E-01  0.38989222443E-01 -0.91782745364E-01  0.12897684833E+00  0.19220965998E-01 0.  0.
         14    1    1    2    0    0  0.13424024152E-01 -0.88926264062E-02 -0.16376029578E-01  0.22966444513E-01  0.00000000000E+00 0.  1.
     999901    1    3    3    0    0 -0.92930942446E-01 -0.30096596037E-01  0.10815877494E+00  0.89198670716E+00  0.88000000000E+00 0.  1.
        -11    1    4    4    0    0  0.18442038763E-01  0.59964849160E-02 -0.10386679486E-01  0.22004791679E-01  0.51100000000E-03 0. -1.
         11    1    4    4    0    0  0.61064879532E-01  0.32992737527E-01 -0.81396065878E-01  0.10697205665E+00  0.51100000000E-03 0.  1.
</event>
<event>
 8    1  0.1088021E+005  0.1043930E+01  0.7957747E-01            NaN
         13   -1    0    0    0    0  0.00000000000E+00  0.00000000000E+00  0.74505805969E-08  0.10566000000E+00  0.10566000000E+00 0.  1.
     999900   -1    0    0    0    0 -0.00000000000E+00 -0.00000000000E+00 -0.74505805969E-08  0.93827000000E+00  0.93827000000E+00 0. -1.
     999902    2    1    2    0    0 -0.49050279040E-03  0.15866911907E-01  0.17234790046E-01  0.10204984513E+01  0.10202294113E+01 0.  0.
     999903    2    3    3    0    0  0.85468316153E-01 -0.11722904897E-03  0.99288918389E-01  0.13236710331E+00  0.18918612894E-01 0.  0.
         14    1    1    2    0    0  0.49050279040E-03 -0.15866911907E-01 -0.17234790046E-01  0.23431548698E-01  0.00000000000E+00 0. -1.
     999901    1    3    3    0    0 -0.85958818944E-01  0.15984140956E-01 -0.82054128344E-01  0.88813134800E+00  0.88000000000E+00 0. -1.
        -11    1    4    4    0    0  0.61213643285E-01 -0.75363690336E-02  0.76484439641E-01  0.98254962270E-01  0.51100000000E-03 0.  1.
         11    1    4    4    0    0  0.24254672868E-01  0.74191399846E-02  0.22804478748E-01  0.34112141036E-01  0.51100000000E-03 0. -1.
</event>
<event>
 8    1  0.1088021E+005  0.1043930E+01  0.7957747E-01            NaN
         13   -1    0    0    0    0  0.00000000000E+00  0.00000000000E+00  0.74505805969E-08  0.10566000000E+00  0.10566000000E+00 0. -1.
     999900   -1    0    0    0    0 -0.00000000000E+00 -0.00000000000E+00 -0.74505805969E-08  0.93827000000E+00  0.93827000000E+00 0.  1.
     999902    2    1    2    0    0 -0.12693368385E-02 -0.15841517453E-01  0.19828770141E-01  0.10185184865E+01  0.10182014351E+01 0.  0.
     999903    2    3    3    0    0  0.95165420970E-01 -0.29077264813E-01 -0.77638096268E-01  0.12780268586E+00  0.20097458650E-01 0.  0.
         14    1    1    2    0    0  0.12693368385E-02  0.15841517453E-01 -0.19828770141E-01  0.25411513464E-01  0.00000000000E+00 0.  1.
     999901    1    3    3    0    0 -0.96434757809E-01  0.13235747360E-01  0.97466866409E-01  0.89071580067E+00  0.88000000000E+00 0. -1.
        -11    1    4    4    0    0  0.77224041089E-01 -0.16213110842E-01 -0.55053683041E-01  0.96216353197E-01  0.51100000000E-03 0.  1.
         11    1    4    4    0    0  0.17941379882E-01 -0.12864153971E-01 -0.22584413227E-01  0.31586332665E-01  0.51100000000E-03 0. -1.
</event>
<event>
 8    1  0.1088021E+005  0.1043930E+01  0.7957747E-01            NaN
         13   -1    0    0    0    0  0.00000000000E+00  0.00000000000E+00  0.74505805969E-08  0.10566000000E+00  0.10566000000E+00 0.  1.
     999900   -1    0    0    0    0 -0.00000000000E+00 -0.00000000000E+00 -0.74505805969E-08  0.93827000000E+00  0.93827000000E+00 0. -1.
     999902    2    1    2    0    0  0.88680811647E-03 -0.22217199995E-01  0.82146518784E-02  0.10202261836E+01  0.10199507806E+01 0.  0.
     999903    2    3    3    0    0  0.12676573578E+00  0.45874409144E-02  0.24477355616E-01  0.13071594271E+00  0.19922860207E-01 0.  0.
         14    1    1    2    0    0 -0.88680811647E-03  0.22217199995E-01 -0.82146518784E-02  0.23703816354E-01  0.00000000000E+00 0.  1.
     999901    1    3    3    0    0 -0.12587892766E+00 -0.26804640910E-01 -0.16262703737E-01  0.88951024094E+00  0.88000000000E+00 0. -1.
        -11    1    4    4    0    0  0.94281596182E-02  0.42841823371E-02 -0.16613753669E-02  0.10500747649E-01  0.51100000000E-03 0.  1.
         11    1    4    4    0    0  0.11733757616E+00  0.30325857736E-03  0.26138730983E-01  0.12021519506E+00  0.51100000000E-03 0. -1.
</event>
<event>
 8    1  0.1088021E+005  0.1043930E+01  0.7957747E-01            NaN
         13   -1    0    0    0    0  0.00000000000E+00  0.00000000000E+00  0.74505805969E-08  0.10566000000E+00  0.10566000000E+00 0. -1.
     999900   -1    0    0    0    0 -0.00000000000E+00 -0.00000000000E+00 -0.74505805969E-08  0.93827000000E+00  0.93827000000E+00 0. -1.
     999902    2    1    2    0    0 -0.98385369670E-02  0.38247268461E-02 -0.21227454536E-01  0.10202228245E+01  0.10199473425E+01 0.  0.
     999903    2    3    3    0    0 -0.11847213767E-02 -0.12816258495E+00 -0.11165640200E-01  0.13028081563E+00  0.20527241762E-01 0.  0.
         14    1    1    2    0    0  0.98385369670E-02 -0.38247268461E-02  0.21227454536E-01  0.23707175520E-01  0.00000000000E+00 0. -1.
     999901    1    3    3    0    0 -0.86538155903E-02  0.13198731180E+00 -0.10061814335E-01  0.88994200885E+00  0.88000000000E+00 0.  1.
        -11    1    4    4    0    0  0.59240286382E-02 -0.49144304484E-01  0.33858851692E-02  0.49618364724E-01  0.51100000000E-03 0. -1.
         11    1    4    4    0    0 -0.71087500149E-02 -0.79018280470E-01 -0.14551525369E-01  0.80662450910E-01  0.51100000000E-03 0.  1.
</event>
<event>
 8    1  0.1088021E+005  0.1043930E+01  0.7957747E-01            NaN
         13   -1    0    0    0    0  0.00000000000E+00  0.00000000000E+00  0.74505805969E-08  0.10566000000E+00  0.10566000000E+00 0. -1.
     999900   -1    0    0    0    0 -0.00000000000E+00 -0.00000000000E+00 -0.74505805969E-08  0.93827000000E+00  0.93827000000E+00 0. -1.
     999902    2    1    2    0    0  0.22011375152E-01  0.68298764388E-02 -0.41090528884E-02  0.10205199132E+01  0.10202513715E+01 0.  0.
     999903    2    3    3    0    0 -0.54938150042E-01 -0.91591925295E-01  0.69773667081E-01  0.12863049360E+00  0.16436488584E-01 0.  0.
         14    1    1    2    0    0 -0.22011375152E-01 -0.68298764388E-02  0.41090528884E-02  0.23410086798E-01  0.00000000000E+00 0.  1.
     999901    1    3    3    0    0  0.76949525194E-01  0.98421801734E-01 -0.73882719970E-01  0.89188941960E+00  0.88000000000E+00 0. -1.
        -11    1    4    4    0    0 -0.16586873158E-01 -0.15582985173E-01  0.17637782175E-01  0.28797678190E-01  0.51100000000E-03 0. -1.
         11    1    4    4    0    0 -0.38351276884E-01 -0.76008940122E-01  0.52135884907E-01  0.99832815412E-01  0.51100000000E-03 0.  1.
</event>
<event>
 8    1  0.1088021E+005  0.1043930E+01  0.7957747E-01            NaN
         13   -1    0    0    0    0  0.00000000000E+00  0.00000000000E+00  0.74505805969E-08  0.10566000000E+00  0.10566000000E+00 0.  1.
     999900   -1    0    0    0    0 -0.00000000000E+00 -0.00000000000E+00 -0.74505805969E-08  0.93827000000E+00  0.93827000000E+00 0. -1.
     999902    2    1    2    0    0  0.98867290247E-02 -0.22870126033E-01 -0.31180393479E-02  0.10188199971E+01  0.10185105175E+01 0.  0.
     999903    2    3    3    0    0 -0.96351527599E-01  0.25468371700E-01  0.77047409183E-01  0.12750093153E+00  0.19695924746E-01 0.  0.
         14    1    1    2    0    0 -0.98867290247E-02  0.22870126033E-01  0.31180393479E-02  0.25110002886E-01  0.00000000000E+00 0. -1.
     999901    1    3    3    0    0  0.10623825662E+00 -0.48338497733E-01 -0.80165448531E-01  0.89131906558E+00  0.88000000000E+00 0.  1.
        -11    1    4    4    0    0 -0.62942102536E-01  0.24711953474E-01  0.45213086841E-01  0.81344165487E-01  0.51100000000E-03 0.  1.
         11    1    4    4    0    0 -0.33409425063E-01  0.75641822594E-03  0.31834322342E-01  0.46156766043E-01  0.51100000000E-03 0. -1.
</event>
<event>
 8    1  0.1088021E+005  0.1043930E+01  0.7957747E-01            NaN
         13   -1    0    0    0    0  0.00000000000E+00  0.00000000000E+00  0.74505805969E-08  0.10566000000E+00  0.10566000000E+00 0. -1.
     999900   -1    0    0    0    0 -0.00000000000E+00 -0.00000000000E+00 -0.74505805969E-08  0.93827000000E+00  0.93827000000E+00 0.  1.
     999902    2    1    2    0    0 -0.10855407834E-01  0.64912823773E-02  0.20648773998E-01  0.10197153661E+01  0.10194278196E+01 0.  0.
     999903    2    3    3    0    0  0.23462491899E-01 -0.59404081015E-01 -0.10790462411E+00  0.12727719273E+00  0.21834434262E-01 0.  0.
         14    1    1    2    0    0  0.10855407834E-01 -0.64912823773E-02 -0.20648773998E-01  0.24214633876E-01  0.00000000000E+00 0.  1.
     999901    1    3    3    0    0 -0.34317899733E-01  0.65895363392E-01  0.12855339810E+00  0.89243817339E+00  0.88000000000E+00 0. -1.
        -11    1    4    4    0    0  0.13065439845E-01 -0.46504611215E-01 -0.93816259985E-01  0.10552315547E+00  0.51100000000E-03 0. -1.
         11    1    4    4    0    0  0.10397052053E-01 -0.12899469799E-01 -0.14088364120E-01  0.21754037260E-01  0.51100000000E-03 0.  1.
</event>
<event>
 8    1  0.1088021E+005  0.1043930E+01  0.7957747E-01            NaN
         13   -1    0    0    0    0  0.00000000000E+00  0.00000000000E+00  0.74505805969E-08  0.10566000000E+00  0.10566000000E+00 0.  1.
     999900   -1    0    0    0    0 -0.00000000000E+00 -0.00000000000E+00 -0.74505805969E-08  0.93827000000E+00  0.93827000000E+00 0. -1.
     999902    2    1    2    0    0  0.12600831625E-01 -0.17562944127E-01  0.95221121151E-02  0.10203099114E+01  0.10200364733E+01 0.  0.
     999903    2    3    3    0    0 -0.10005428800E+00 -0.81944070341E-01  0.75446914604E-02  0.13079317997E+00  0.18006730574E-01 0.  0.
         14    1    1    2    0    0 -0.12600831625E-01  0.17562944127E-01 -0.95221121151E-02  0.23620088552E-01  0.00000000000E+00 0. -1.
     999901    1    3    3    0    0  0.11265511962E+00  0.64381126214E-01  0.19774206547E-02  0.88951673148E+00  0.88000000000E+00 0.  1.
        -11    1    4    4    0    0 -0.75107306386E-01 -0.53876945832E-01 -0.26558205976E-03  0.92434649454E-01  0.51100000000E-03 0. -1.
         11    1    4    4    0    0 -0.24946981613E-01 -0.28067124509E-01  0.78102735202E-02  0.38358530515E-01  0.51100000000E-03 0.  1.
</event>
<event>
 8    1  0.1088021E+005  0.1043930E+01  0.7957747E-01            NaN
         13   -1    0    0    0    0  0.00000000000E+00  0.00000000000E+00  0.74505805969E-08  0.10566000000E+00  0.10566000000E+00 0. -1.
     999900   -1    0    0    0    0 -0.00000000000E+00 -0.00000000000E+00 -0.74505805969E-08  0.93827000000E+00  0.93827000000E+00 0. -1.
     999902    2    1    2    0    0 -0.21281339339E-01  0.92819307010E-02 -0.54187788842E-02  0.10200885905E+01  0.10198099429E+01 0.  0.
     999903    2    3    3    0    0 -0.86355946938E-01  0.95641817699E-01 -0.26924068527E-01  0.13320911047E+00  0.20372893333E-01 0.  0.
         14    1    1    2    0    0  0.21281339339E-01 -0.92819307010E-02  0.54187788842E-02  0.23841409485E-01  0.00000000000E+00 0. -1.
     999901    1    3    3    0    0  0.65074607598E-01 -0.86359886998E-01  0.21505289643E-01  0.88687948004E+00  0.88000000000E+00 0.  1.
        -11    1    4    4    0    0 -0.49368842540E-01  0.55536851197E-01 -0.25726291572E-01  0.78636681349E-01  0.51100000000E-03 0. -1.
         11    1    4    4    0    0 -0.36987104397E-01  0.40104966503E-01 -0.11977769555E-02  0.54572429124E-01  0.51100000000E-03 0.  1.
</event>
<event>
 8    1  0.1088021E+005  0.1043930E+01  0.7957747E-01            NaN
         13   -1    0    0    0    0  0.00000000000E+00  0.00000000000E+00  0.74505805969E-08  0.10566000000E+00  0.10566000000E+00 0. -1.
     999900   -1    0    0    0    0 -0.00000000000E+00 -0.00000000000E+00 -0.74505805969E-08  0.93827000000E+00  0.93827000000E+00 0.  1.
     999902    2    1    2    0    0  0.15900511720E-01  0.12238685581E-01 -0.71792744914E-02  0.10226191183E+01  0.10223970400E+01 0.  0.
     999903    2    3    3    0    0 -0.52726307355E-01  0.46615502360E-01 -0.11123224352E+00  0.13317073518E+00  0.20217916882E-01 0.  0.
         14    1    1    2    0    0 -0.15900511720E-01 -0.12238685581E-01  0.71792744914E-02  0.21310881726E-01  0.00000000000E+00 0. -1.
     999901    1    3    3    0    0  0.68626819075E-01 -0.34376816778E-01  0.10405296902E+00  0.88944838310E+00  0.88000000000E+00 0. -1.
        -11    1    4    4    0    0 -0.22774167037E-01  0.10281357050E-01 -0.27930773902E-01  0.37480104573E-01  0.51100000000E-03 0. -1.
         11    1    4    4    0    0 -0.29952140318E-01  0.36334145310E-01 -0.83301469613E-01  0.95690630606E-01  0.51100000000E-03 0.  1.
</event>
<event>
 8    1  0.1088021E+005  0.1043930E+01  0.7957747E-01            NaN
         13   -1    0    0    0    0  0.00000000000E+00  0.00000000000E+00  0.74505805969E-08  0.10566000000E+00  0.10566000000E+00 0. -1.
     999900   -1    0    0    0    0 -0.00000000000E+00 -0.00000000000E+00 -0.74505805969E-08  0.93827000000E+00  0.93827000000E+00 0.  1.
     999902    2    1    2    0    0 -0.21475723939E-01  0.67617458054E-02  0.59475397905E-02  0.10206426396E+01  0.10203769385E+01 0.  0.
     999903    2    3    3    0    0  0.80297726671E-01  0.66979688440E-01  0.74963734665E-01  0.13005447943E+00  0.18989537491E-01 0.  0.
         14    1    1    2    0    0  0.21475723939E-01 -0.67617458054E-02 -0.59475397905E-02  0.23287360404E-01  0.00000000000E+00 0.  1.
     999901    1    3    3    0    0 -0.10177345061E+00 -0.60217942635E-01 -0.69016194874E-01  0.89058816016E+00  0.88000000000E+00 0.  1.
        -11    1    4    4    0    0  0.19445915402E-01  0.27563880868E-01  0.22250985502E-01  0.40413842073E-01  0.51100000000E-03 0. -1.
         11    1    4    4    0    0  0.60851811269E-01  0.39415807572E-01  0.52712749163E-01  0.89640637361E-01  0.51100000000E-03 0.  1.
</event>
<event>
 8    1  0.1088021E+005  0.1043930E+01  0.7957747E-01            NaN
         13   -1    0    0    0    0  0.00000000000E+00  0.00000000000E+00  0.74505805969E-08  0.10566000000E+00  0.10566000000E+00 0.  1.
     999900   -1    0    0    0    0 -0.00000000000E+00 -0.00000000000E+00 -0.74505805969E-08  0.93827000000E+00  0.93827000000E+00 0.  1.
     999902    2    1    2    0    0 -0.21710509856E-01 -0.29066761034E-03 -0.81854521594E-02  0.10207258548E+01  0.10204620710E+01 0.  0.
     999903    2    3    3    0    0  0.47723588488E-01 -0.52425292727E-01  0.10602722326E+00  0.12910729941E+00  0.20024247126E-01 0.  0.
         14    1    1    2    0    0  0.21710509856E-01  0.29066761034E-03  0.81854521594E-02  0.23204145166E-01  0.00000000000E+00 0. -1.
     999901    1    3    3    0    0 -0.69434098343E-01  0.52134625117E-01 -0.11421267542E+00  0.89161855542E+00  0.88000000000E+00 0.  1.
        -11    1    4    4    0    0  0.40919270883E-01 -0.32488381613E-01  0.80996332953E-01  0.96387492665E-01  0.51100000000E-03 0.  1.
         11    1    4    4    0    0  0.68043176046E-02 -0.19936911114E-01  0.25030890307E-01  0.32719806745E-01  0.51100000000E-03 0. -1.
</event>
<event>
 8    1  0.1088021E+005  0.1043930E+01  0.7957747E-01            NaN
         13   -1    0    0    0    0  0.00000000000E+00  0.00000000000E+00  0.74505805969E-08  0.10566000000E+00  0.10566000000E+00 0. -1.
     999900   -1    0    0    0    0 -0.00000000000E+00 -0.00000000000E+00 -0.74505805969E-08  0.93827000000E+00  0.93827000000E+00 0. -1.
     999902    2    1    2    0    0  0.16163991086E-01  0.11089276060E-01  0.10135333148E-01  0.10218625663E+01  0.10216242621E+01 0.  0.
     999903    2    3    3    0    0 -0.53965086318E-01 -0.58205588361E-01  0.10289943593E+00  0.13151148697E+00  0.20170677508E-01 0.  0.
         14    1    1    2    0    0 -0.16163991086E-01 -0.11089276060E-01 -0.10135333148E-01  0.22067433683E-01  0.00000000000E+00 0.  1.
     999901    1    3    3    0    0  0.70129077404E-01  0.69294864420E-01 -0.92764102787E-01  0.89035107935E+00  0.88000000000E+00 0. -1.
        -11    1    4    4    0    0 -0.14541579249E-01 -0.13304055102E-01  0.40898112866E-01  0.45402336572E-01  0.51100000000E-03 0.  1.
         11    1    4    4    0    0 -0.39423507069E-01 -0.44901533259E-01  0.62001323068E-01  0.86109150395E-01  0.51100000000E-03 0. -1.
</event>
<event>
 8    1  0.1088021E+005  0.1043930E+01  0.7957747E-01            NaN
         13   -1    0    0    0    0  0.00000000000E+00  0.00000000000E+00  0.74505805969E-08  0.10566000000E+00  0.10566000000E+00 0.  1.
     999900   -1    0    0    0    0 -0.00000000000E+00 -0.00000000000E+00 -0.74505805969E-08  0.93827000000E+00  0.93827000000E+00 0.  1.
     999902    2    1    2    0    0 -0.24064375467E-02 -0.19467906154E-01  0.12849151518E-01  0.10204802451E+01  0.10202107819E+01 0.  0.
     999903    2    3    3    0    0  0.39146745273E-01  0.52920175202E-01 -0.10828282598E+00  0.12826969968E+00  0.19872917399E-01 0.  0.
         14    1    1    2    0    0  0.24064375467E-02  0.19467906154E-01 -0.12849151518E-01  0.23449754933E-01  0.00000000000E+00 0.  1.
     999901    1    3    3    0    0 -0.41553182819E-01 -0.72388081356E-01  0.12113197750E+00  0.89221054539E+00  0.88000000000E+00 0. -1.
        -11    1    4    4    0    0  0.35296741687E-01  0.49944352814E-01 -0.86459967070E-01  0.10590507721E+00  0.51100000000E-03 0. -1.
         11    1    4    4    0    0  0.38500035855E-02  0.29758223881E-02 -0.21822858908E-01  0.22364622474E-01  0.51100000000E-03 0.  1.
</event>
<event>
 8    1  0.1088021E+005  0.1043930E+01  0.7957747E-01            NaN
         13   -1    0    0    0    0  0.00000000000E+00  0.00000000000E+00  0.74505805969E-08  0.10566000000E+00  0.10566000000E+00 0.  1.
     999900   -1    0    0    0    0 -0.00000000000E+00 -0.00000000000E+00 -0.74505805969E-08  0.93827000000E+00  0.93827000000E+00 0. -1.
     999902    2    1    2    0    0 -0.70876666223E-02 -0.21295886500E-01  0.83585947356E-02  0.10199797201E+01  0.10196984915E+01 0.  0.
     999903    2    3    3    0    0  0.10060594985E+00  0.15010482759E-02 -0.78207292602E-01  0.12890662093E+00  0.19409430990E-01 0.  0.
         14    1    1    2    0    0  0.70876666223E-02  0.21295886500E-01 -0.83585947356E-02  0.23950279872E-01  0.00000000000E+00 0.  1.
     999901    1    3    3    0    0 -0.10769361648E+00 -0.22796934776E-01  0.86565887337E-01  0.89107309920E+00  0.88000000000E+00 0. -1.
        -11    1    4    4    0    0  0.85798640899E-01  0.25674533187E-02 -0.57096732105E-01  0.10309362994E+00  0.51100000000E-03 0.  1.
         11    1    4    4    0    0  0.14807308955E-01 -0.10664050429E-02 -0.21110560496E-01  0.25812990987E-01  0.51100000000E-03 0. -1.
</event>
<event>
 8    1  0.1088021E+005  0.1043930E+01  0.7957747E-01            NaN
         13   -1    0    0    0    0  0.00000000000E+00  0.00000000000E+00  0.74505805969E-08  0.10566000000E+00  0.10566000000E+00 0. -1.
     999900   -1    0    0    0    0 -0.00000000000E+00 -0.00000000000E+00 -0.74505805969E-08  0.93827000000E+00  0.93827000000E+00 0. -1.
     999902    2    1    2    0    0  0.21587311850E-02  0.17649737579E-01 -0.15392300317E-01  0.10204120012E+01  0.10201409491E+01 0.  0.
     999903    2    3    3    0    0 -0.10357692281E+00 -0.51193033785E-01  0.51714363951E-01  0.12888372906E+00  0.24243236827E-01 0.  0.
         14    1    1    2    0    0 -0.21587311850E-02 -0.17649737579E-01  0.15392300317E-01  0.23517998766E-01  0.00000000000E+00 0. -1.
     999901    1    3    3    0    0  0.10573565399E+00  0.68842771363E-01 -0.67106664268E-01  0.89152827217E+00  0.88000000000E+00 0. -1.
        -11    1    4    4    0    0 -0.47462655197E-01 -0.35648921310E-01  0.20407524680E-01  0.62771629049E-01  0.51100000000E-03 0.  1.
         11    1    4    4    0    0 -0.56114267608E-01 -0.15544112475E-01  0.31306839270E-01  0.66112100012E-01  0.51100000000E-03 0. -1.
</event>
<event>
 8    1  0.1088021E+005  0.1043930E+01  0.7957747E-01            NaN
         13   -1    0    0    0    0  0.00000000000E+00  0.00000000000E+00  0.74505805969E-08  0.10566000000E+00  0.10566000000E+00 0.  1.
     999900   -1    0    0    0    0 -0.00000000000E+00 -0.00000000000E+00 -0.74505805969E-08  0.93827000000E+00  0.93827000000E+00 0. -1.
     999902    2    1    2    0    0 -0.19204035690E-01  0.55622945863E-03  0.10994126785E-01  0.10217946165E+01  0.10215548263E+01 0.  0.
     999903    2    3    3    0    0  0.49014107758E-01 -0.42878799851E-01 -0.10967517917E+00  0.12988576565E+00  0.24509038263E-01 0.  0.
         14    1    1    2    0    0  0.19204035690E-01 -0.55622945863E-03 -0.10994126785E-01  0.22135383478E-01  0.00000000000E+00 0. -1.
     999901    1    3    3    0    0 -0.68218143447E-01  0.43435029310E-01  0.12066930595E+00  0.89190885087E+00  0.88000000000E+00 0.  1.
        -11    1    4    4    0    0  0.42269877061E-01 -0.32292289124E-01 -0.67865310800E-01  0.86229322012E-01  0.51100000000E-03 0.  1.
         11    1    4    4    0    0  0.67442306970E-02 -0.10586510727E-01 -0.41809868368E-01  0.43656443637E-01  0.51100000000E-03 0. -1.
</event>
<event>
 8    1  0.1088021E+005  0.1043930E+01  0.7957747E-01            NaN
         13   -1    0    0    0    0  0.00000000000E+00  0.00000000000E+00  0.74505805969E-08  0.10566000000E+00  0.10566000000E+00 0. -1.
     999900   -1    0    0    0    0 -0.00000000000E+00 -0.00000000000E+00 -0.74505805969E-08  0.93827000000E+00  0.93827000000E+00 0.  1.
     999902    2    1    2    0    0  0.54794827711E-03 -0.19232675157E-01 -0.13792562601E-01  0.10202565798E+01  0.10199818909E+01 0.  0.
     999903    2    3    3    0    0 -0.43244166993E-01 -0.12225940481E+00  0.18200945290E-01  0.13258781222E+00  0.20756529016E-01 0.  0.
         14    1    1    2    0    0 -0.54794827711E-03  0.19232675157E-01  0.13792562601E-01  0.23673420203E-01  0.00000000000E+00 0.  1.
     999901    1    3    3    0    0  0.43792115270E-01  0.10302672965E+00 -0.31993507891E-01  0.88766876758E+00  0.88000000000E+00 0.  1.
        -11    1    4    4    0    0 -0.31380001072E-01 -0.70929433491E-01  0.19157410281E-01  0.79893407064E-01  0.51100000000E-03 0.  1.
         11    1    4    4    0    0 -0.11864165922E-01 -0.51329971318E-01 -0.95646499136E-03  0.52694405157E-01  0.51100000000E-03 0. -1.
</event>
<event>
 8    1  0.1088021E+005  0.1043930E+01  0.7957747E-01            NaN
         13   -1    0    0    0    0  0.00000000000E+00  0.00000000000E+00  0.74505805969E-08  0.10566000000E+00  0.10566000000E+00 0. -1.
     999900   -1    0    0    0    0 -0.00000000000E+00 -0.00000000000E+00 -0.74505805969E-08  0.93827000000E+00  0.93827000000E+00 0.  1.
     999902    2    1    2    0    0  0.44976887627E-02 -0.17426292412E-01  0.16109948450E-01  0.10197755944E+01  0.10194894936E+01 0.  0.
     999903    2    3    3    0    0  0.89993669441E-01 -0.91960459139E-01  0.24265683416E-01  0.13245861566E+00  0.20021860225E-01 0.  0.
         14    1    1    2    0    0 -0.44976887627E-02  0.17426292412E-01 -0.16109948450E-01  0.24154405613E-01  0.00000000000E+00 0. -1.
     999901    1    3    3    0    0 -0.85495980678E-01  0.74534166727E-01 -0.81557349651E-02  0.88731697873E+00  0.88000000000E+00 0. -1.
        -11    1    4    4    0    0  0.69569615436E-01 -0.60975182997E-01  0.22979969903E-01  0.95321794314E-01  0.51100000000E-03 0. -1.
         11    1    4    4    0    0  0.20424054005E-01 -0.30985276142E-01  0.12857135124E-02  0.37136821348E-01  0.51100000000E-03 0.  1.
</event>
<event>
 8    1  0.1088021E+005  0.1043930E+01  0.7957747E-01            NaN
         13   -1    0    0    0    0  0.00000000000E+00  0.00000000000E+00  0.74505805969E-08  0.10566000000E+00  0.10566000000E+00 0. -1.
     999900   -1    0    0    0    0 -0.00000000000E+00 -0.00000000000E+00 -0.74505805969E-08  0.93827000000E+00  0.93827000000E+00 0.  1.
     999902    2    1    2    0    0  0.17888435847E-01  0.41039490484E-02 -0.32301521146E-02  0.10252947534E+01  0.10251253869E+01 0.  0.
     999903    2    3    3    0    0  0.53288754232E-01 -0.89592633554E-01 -0.84595079637E-01  0.13588344043E+00  0.21010725095E-01 0.  0.
         14    1    1    2    0    0 -0.17888435847E-01 -0.41039490484E-02  0.32301521146E-02  0.18635246645E-01  0.00000000000E+00 0.  1.
     999901    1    3    3    0    0 -0.35400318385E-01  0.93696582602E-01  0.81364927522E-01  0.88941131293E+00  0.88000000000E+00 0. -1.
        -11    1    4    4    0    0  0.13745120313E-01 -0.12869576275E-01 -0.23579807381E-01  0.30179840341E-01  0.51100000000E-03 0.  1.
         11    1    4    4    0    0  0.39543633919E-01 -0.76723057279E-01 -0.61015272256E-01  0.10570360009E+00  0.51100000000E-03 0. -1.
</event>
<event>
 8    1  0.1088021E+005  0.1043930E+01  0.7957747E-01            NaN
         13   -1    0    0    0    0  0.00000000000E+00  0.00000000000E+00  0.74505805969E-08  0.10566000000E+00  0.10566000000E+00 0. -1.
     999900   -1    0    0    0    0 -0.00000000000E+00 -0.00000000000E+00 -0.74505805969E-08  0.93827000000E+00  0.93827000000E+00 0.  1.
     999902    2    1    2    0    0  0.16058223137E-01 -0.15123490531E-01 -0.10121188836E-01  0.10196601636E+01  0.10193712887E+01 0.  0.
     999903    2    3    3    0    0 -0.84363063849E-01 -0.16335608338E-01  0.92594107623E-01  0.12801206246E+00  0.20722951713E-01 0.  0.
         14    1    1    2    0    0 -0.16058223137E-01  0.15123490531E-01  0.10121188836E-01  0.24269836415E-01  0.00000000000E+00 0. -1.
     999901    1    3    3    0    0  0.10042128699E+00  0.12121178073E-02 -0.10271529646E+00  0.89164810112E+00  0.88000000000E+00 0.  1.
        -11    1    4    4    0    0 -0.19473202358E-01  0.27663635236E-02  0.29829666540E-01  0.35734136398E-01  0.51100000000E-03 0.  1.
         11    1    4    4    0    0 -0.64889861491E-01 -0.19101971862E-01  0.62764441082E-01  0.92277926064E-01  0.51100000000E-03 0. -1.
</event>
<event>
 8    1  0.1088021E+005  0.1043930E+01  0.7957747E-01            NaN
         13   -1    0    0    0    0  0.00000000000E+00  0.00000000000E+00  0.74505805969E-08  0.10566000000E+00  0.10566000000E+00 0. -1.
     999900   -1    0    0    0    0 -0.00000000000E+00 -0.00000000000E+00 -0.74505805969E-08  0.93827000000E+00  0.93827000000E+00 0.  1.
     999902    2    1    2    0    0  0.72312759406E-02 -0.22009900617E-01 -0.32588478173E-02  0.10205345482E+01  0.10202663460E+01 0.  0.
     999903    2    3    3    0    0 -0.12836983681E+00  0.42934242134E-02  0.20775529923E-02  0.12974388598E+00  0.18218431076E-01 0.  0.
         14    1    1    2    0    0 -0.72312759406E-02  0.22009900617E-01  0.32588478173E-02  0.23395451823E-01  0.00000000000E+00 0.  1.
     999901    1    3    3    0    0  0.13560111275E+00 -0.26303324831E-01 -0.53364008096E-02  0.89079066219E+00  0.88000000000E+00 0. -1.
        -11    1    4    4    0    0 -0.52785767694E-01 -0.67903592849E-02  0.34806247976E-02  0.53336873926E-01  0.51100000000E-03 0.  1.
         11    1    4    4    0    0 -0.75584069112E-01  0.11083783498E-01 -0.14030718053E-02  0.76407012059E-01  0.51100000000E-03 0. -1.
</event>
<event>
 8    1  0.1088021E+005  0.1043930E+01  0.7957747E-01            NaN
         13   -1    0    0    0    0  0.00000000000E+00  0.00000000000E+00  0.74505805969E-08  0.10566000000E+00  0.10566000000E+00 0. -1.
     999900   -1    0    0    0    0 -0.00000000000E+00 -0.00000000000E+00 -0.74505805969E-08  0.93827000000E+00  0.93827000000E+00 0. -1.
     999902    2    1    2    0    0 -0.12794087979E-01  0.37514197546E-03 -0.18967647007E-01  0.10210476694E+01  0.10207912334E+01 0.  0.
     999903    2    3    3    0    0 -0.35469790936E-01  0.10469490057E-01  0.12249950413E+00  0.12940366076E+00  0.19273365468E-01 0.  0.
         14    1    1    2    0    0  0.12794087979E-01 -0.37514197546E-03  0.18967647007E-01  0.22882330557E-01  0.00000000000E+00 0. -1.
     999901    1    3    3    0    0  0.22675702957E-01 -0.10094348081E-01 -0.14146715113E+00  0.89164400868E+00  0.88000000000E+00 0. -1.
        -11    1    4    4    0    0 -0.16138769073E-01  0.13608291921E-01  0.77484441656E-01  0.80310306288E-01  0.51100000000E-03 0.  1.
         11    1    4    4    0    0 -0.19331021864E-01 -0.31388018649E-02  0.45015062469E-01  0.49093354474E-01  0.51100000000E-03 0. -1.
</event>
<event>
 8    1  0.1088021E+005  0.1043930E+01  0.7957747E-01            NaN
         13   -1    0    0    0    0  0.00000000000E+00  0.00000000000E+00  0.74505805969E-08  0.10566000000E+00  0.10566000000E+00 0.  1.
     999900   -1    0    0    0    0 -0.00000000000E+00 -0.00000000000E+00 -0.74505805969E-08  0.93827000000E+00  0.93827000000E+00 0. -1.
     999902    2    1    2    0    0  0.15175844893E-01  0.16534315047E-01  0.44858369184E-02  0.10210430479E+01  0.10207865071E+01 0.  0.
     999903    2    3    3    0    0  0.92082412024E-01 -0.39138074421E-01  0.84279474594E-01  0.13234677831E+00  0.20041966424E-01 0.  0.
         14    1    1    2    0    0 -0.15175844893E-01 -0.16534315047E-01 -0.44858369184E-02  0.22886952072E-01  0.00000000000E+00 0.  1.
     999901    1    3    3    0    0 -0.76906567131E-01  0.55672389468E-01 -0.79793637676E-01  0.88869626962E+00  0.88000000000E+00 0. -1.
        -11    1    4    4    0    0  0.33115537636E-01 -0.24729661201E-01  0.33495617759E-01  0.53201621273E-01  0.51100000000E-03 0. -1.
         11    1    4    4    0    0  0.58966874388E-01 -0.14408413220E-01  0.50783856835E-01  0.79145157038E-01  0.51100000000E-03 0.  1.
</event>
<event>
 8    1  0.1088021E+005  0.1043930E+01  0.7957747E-01            NaN
         13   -1    0    0    0    0  0.00000000000E+00  0.00000000000E+00  0.74505805969E-08  0.10566000000E+00  0.10566000000E+00 0. -1.
     999900   -1    0    0    0    0 -0.00000000000E+00 -0.00000000000E+00 -0.74505805969E-08  0.93827000000E+00  0.93827000000E+00 0. -1.
     999902    2    1    2    0    0 -0.52487149418E-02 -0.16319691936E-01  0.14305645782E-01  0.10216021507E+01  0.10213581260E+01 0.  0.
     999903    2    3    3    0    0  0.79226764997E-01  0.97139844089E-01  0.28897690823E-01  0.13018636622E+00  0.20009593041E-01 0.  0.
         14    1    1    2    0    0  0.52487149418E-02  0.16319691936E-01 -0.14305645782E-01  0.22327849307E-01  0.00000000000E+00 0.  1.
     999901    1    3    3    0    0 -0.84475479938E-01 -0.11345953603E+00 -0.14592045041E-01  0.89141578447E+00  0.88000000000E+00 0.  1.
        -11    1    4    4    0    0  0.13159085771E-01  0.25632830435E-01  0.12694351190E-01  0.31489858805E-01  0.51100000000E-03 0.  1.
         11    1    4    4    0    0  0.66067679226E-01  0.71507013655E-01  0.16203339633E-01  0.98696507417E-01  0.51100000000E-03 0. -1.
</event>
<event>
 8    1  0.1088021E+005  0.1043930E+01  0.7957747E-01            NaN
         13   -1    0    0    0    0  0.00000000000E+00  0.00000000000E+00  0.74505805969E-08  0.10566000000E+00  0.10566000000E+00 0.  1.
     999900   -1    0    0    0    0 -0.00000000000E+00 -0.00000000000E+00 -0.74505805969E-08  0.93827000000E+00  0.93827000000E+00 0. -1.
     999902    2    1    2    0    0  0.13049125230E-01 -0.13504790242E-01  0.14011103480E-01  0.10204998901E+01  0.10202308835E+01 0.  0.
     999903    2    3    3    0    0  0.11969990715E+00 -0.19129770303E-01 -0.47810260197E-01  0.13188978962E+00  0.20373505884E-01 0.  0.
         14    1    1    2    0    0 -0.13049125230E-01  0.13504790242E-01 -0.14011103480E-01  0.23430109891E-01  0.00000000000E+00 0. -1.
     999901    1    3    3    0    0 -0.10665078192E+00  0.56249800604E-02  0.61821363677E-01  0.88861010049E+00  0.88000000000E+00 0.  1.
        -11    1    4    4    0    0  0.31116539481E-01 -0.79610890804E-02 -0.22047468944E-01  0.38961134178E-01  0.51100000000E-03 0.  1.
         11    1    4    4    0    0  0.88583367670E-01 -0.11168681222E-01 -0.25762791254E-01  0.92928655442E-01  0.51100000000E-03 0. -1.
</event>
<event>
 8    1  0.1088021E+005  0.1043930E+01  0.7957747E-01            NaN
         13   -1    0    0    0    0  0.00000000000E+00  0.00000000000E+00  0.74505805969E-08  0.10566000000E+00  0.10566000000E+00 0.  1.
     999900   -1    0    0    0    0 -0.00000000000E+00 -0.00000000000E+00 -0.74505805969E-08  0.93827000000E+00  0.93827000000E+00 0. -1.
     999902    2    1    2    0    0 -0.16048778875E-01  0.14619175237E-01 -0.75427381777E-02  0.10209479094E+01  0.10206892070E+01 0.  0.
     999903    2    3    3    0    0 -0.20201753317E-01 -0.66547199183E-01  0.10741195871E+00  0.12975780071E+00  0.21520162968E-01 0.  0.
         14    1    1    2    0    0  0.16048778875E-01 -0.14619175237E-01  0.75427381777E-02  0.22982090575E-01  0.00000000000E+00 0. -1.
     999901    1    3    3    0    0  0.41529744426E-02  0.81166374421E-01 -0.11495469689E+00  0.89119010871E+00  0.88000000000E+00 0. -1.
        -11    1    4    4    0    0 -0.10814808688E-01 -0.60758572155E-01  0.89455542235E-01  0.10867897375E+00  0.51100000000E-03 0.  1.
         11    1    4    4    0    0 -0.93869446297E-02 -0.57886270279E-02  0.17956416479E-01  0.21078826962E-01  0.51100000000E-03 0. -1.
</event>
<event>
 8    1  0.1088021E+005  0.1043930E+01  0.7957747E-01            NaN
         13   -1    0    0    0    0  0.00000000000E+00  0.00000000000E+00  0.74505805969E-08  0.10566000000E+00  0.10566000000E+00 0.  1.
     999900   -1    0    0    0    0 -0.00000000000E+00 -0.00000000000E+00 -0.74505805969E-08  0.93827000000E+00  0.93827000000E+00 0. -1.
     999902    2    1    2    0    0  0.18678244595E-01  0.91156064458E-02  0.10807129365E-01  0.10205042631E+01  0.10202353581E+01 0.  0.
     999903    2    3    3    0    0  0.32249991497E-01  0.11297991320E+00  0.59059926518E-01  0.13297943591E+00  0.19772018503E-01 0.  0.
         14    1    1    2    0    0 -0.18678244595E-01 -0.91156064458E-02 -0.10807129365E-01  0.23425736854E-01  0.00000000000E+00 0. -1.
     999901    1    3    3    0    0 -0.13571746902E-01 -0.10386430675E+00 -0.48252797153E-01  0.88752482724E+00  0.88000000000E+00 0.  1.
        -11    1    4    4    0    0  0.94049821132E-02  0.66758973356E-01  0.30003094057E-01  0.73794721939E-01  0.51100000000E-03 0. -1.
         11    1    4    4    0    0  0.22845009384E-01  0.46220939844E-01  0.29056832461E-01  0.59184713968E-01  0.51100000000E-03 0.  1.
</event>
<event>
 8    1  0.1088021E+005  0.1043930E+01  0.7957747E-01            NaN
         13   -1    0    0    0    0  0.00000000000E+00  0.00000000000E+00  0.74505805969E-08  0.10566000000E+00  0.10566000000E+00 0. -1.
     999900   -1    0    0    0    0 -0.00000000000E+00 -0.00000000000E+00 -0.74505805969E-08  0.93827000000E+00  0.93827000000E+00 0. -1.
     999902    2    1    2    0    0  0.13412838352E-01 -0.15717202627E-01 -0.81020209979E-02  0.10217359144E+01  0.10214948367E+01 0.  0.
     999903    2    3    3    0    0 -0.83625748706E-02 -0.67807458297E-01 -0.11317009622E+00  0.13368925809E+00  0.19938981705E-01 0.  0.
         14    1    1    2    0    0 -0.13412838352E-01  0.15717202627E-01  0.81020209979E-02  0.22194085594E-01  0.00000000000E+00 0.  1.
     999901    1    3    3    0    0  0.21775413222E-01  0.52090255670E-01  0.10506807522E+00  0.88804665631E+00  0.88000000000E+00 0. -1.
        -11    1    4    4    0    0  0.52239413618E-02 -0.36266989228E-01 -0.53655733817E-01  0.64975248852E-01  0.51100000000E-03 0.  1.
         11    1    4    4    0    0 -0.13586516232E-01 -0.31540469069E-01 -0.59514362406E-01  0.68714009241E-01  0.51100000000E-03 0. -1.
</event>
<event>
 8    1  0.1088021E+005  0.1043930E+01  0.7957747E-01            NaN
         13   -1    0    0    0    0  0.00000000000E+00  0.00000000000E+00  0.74505805969E-08  0.10566000000E+00  0.10566000000E+00 0. -1.
     999900   -1    0    0    0    0 -0.00000000000E+00 -0.00000000000E+00 -0.74505805969E-08  0.93827000000E+00  0.93827000000E+00 0.  1.
     999902    2    1    2    0    0 -0.13538216413E-01 -0.13580461446E-01 -0.12403989000E-01  0.10210920671E+01  0.10208366364E+01 0.  0.
     999903    2    3    3    0    0  0.11597800415E+00  0.80628612124E-02  0.51917330164E-01  0.12902698151E+00  0.20896066821E-01 0.  0.
         14    1    1    2    0    0  0.13538216413E-01  0.13580461446E-01  0.12403989000E-01  0.22837932916E-01  0.00000000000E+00 0. -1.
     999901    1    3    3    0    0 -0.12951622056E+00 -0.21643322658E-01 -0.64321319164E-01  0.89206508558E+00  0.88000000000E+00 0.  1.
        -11    1    4    4    0    0  0.59470141098E-01  0.52645669173E-02  0.15306562391E-01  0.61635747097E-01  0.51100000000E-03 0.  1.
         11    1    4    4    0    0  0.56507863051E-01  0.27982942952E-02  0.36610767773E-01  0.67391234411E-01  0.51100000000E-03 0. -1.
</event>
<event>
 8    1  0.1088021E+005  0.1043930E+01  0.7957747E-01            NaN
         13   -1    0    0    0    0  0.00000000000E+00  0.00000000000E+00  0.74505805969E-08  0.10566000000E+00  0.10566000000E+00 0.  1.
     999900   -1    0    0    0    0 -0.00000000000E+00 -0.00000000000E+00 -0.74505805969E-08  0.93827000000E+00  0.93827000000E+00 0. -1.
     999902    2    1    2    0    0 -0.18104310734E-01 -0.11314072671E-01 -0.96810980756E-02  0.10204886270E+01  0.10202193587E+01 0.  0.
     999903    2    3    3    0    0  0.77695211822E-01  0.36217965209E-02  0.10045394932E+00  0.12833933605E+00  0.18174869831E-01 0.  0.
         14    1    1    2    0    0  0.18104310734E-01  0.11314072671E-01  0.96810980756E-02  0.23441372987E-01  0.00000000000E+00 0.  1.
     999901    1    3    3    0    0 -0.95799522556E-01 -0.14935869192E-01 -0.11013504739E+00  0.89214929097E+00  0.88000000000E+00 0. -1.
        -11    1    4    4    0    0  0.47407315261E-01  0.49679771425E-02  0.74399260393E-01  0.88360881645E-01  0.51100000000E-03 0. -1.
         11    1    4    4    0    0  0.30287896561E-01 -0.13461806216E-02  0.26054688923E-01  0.39978454400E-01  0.51100000000E-03 0.  1.
</event>
<event>
 8    1  0.1088021E+005  0.1043930E+01  0.7957747E-01            NaN
         13   -1    0    0    0    0  0.00000000000E+00  0.00000000000E+00  0.74505805969E-08  0.10566000000E+00  0.10566000000E+00 0. -1.
     999900   -1    0    0    0    0 -0.00000000000E+00 -0.00000000000E+00 -0.74505805969E-08  0.93827000000E+00  0.93827000000E+00 0. -1.
     999902    2    1    2    0    0 -0.15862883074E-02  0.12364825161E-02  0.23786134359E-01  0.10200589844E+01  0.10197796361E+01 0.  0.
     999903    2    3    3    0    0  0.75911204120E-01 -0.91188356167E-01 -0.46854105063E-01  0.12902685500E+00  0.19359621343E-01 0.  0.
         14    1    1    2    0    0  0.15862883074E-02 -0.12364825161E-02 -0.23786134359E-01  0.23871015633E-01  0.00000000000E+00 0.  1.
     999901    1    3    3    0    0 -0.77497492427E-01  0.92424838683E-01  0.70640239422E-01  0.89103212937E+00  0.88000000000E+00 0. -1.
        -11    1    4    4    0    0  0.15332292104E-01 -0.86921539586E-02 -0.98174148359E-02  0.20181067283E-01  0.51100000000E-03 0.  1.
         11    1    4    4    0    0  0.60578912016E-01 -0.82496202209E-01 -0.37036690227E-01  0.10884578772E+00  0.51100000000E-03 0. -1.
</event>
<event>
 8    1  0.1088021E+005  0.1043930E+01  0.7957747E-01            NaN
         13   -1    0    0    0    0  0.00000000000E+00  0.00000000000E+00  0.74505805969E-08  0.10566000000E+00  0.10566000000E+00 0.  1.
     999900   -1    0    0    0    0 -0.00000000000E+00 -0.00000000000E+00 -0.74505805969E-08  0.93827000000E+00  0.93827000000E+00 0.  1.
     999902    2    1    2    0    0 -0.12835398675E-01  0.17856346577E-01  0.83420648484E-02  0.10204100804E+01  0.10201389835E+01 0.  0.
     999903    2    3    3    0    0  0.41421149651E-02 -0.11291766849E+00 -0.55687235633E-01  0.12828350288E+00  0.24249369621E-01 0.  0.
         14    1    1    2    0    0  0.12835398675E-01 -0.17856346577E-01 -0.83420648484E-02  0.23519919604E-01  0.00000000000E+00 0. -1.
     999901    1    3    3    0    0 -0.16977513640E-01  0.13077401506E+00  0.64029300482E-01  0.89212657751E+00  0.88000000000E+00 0. -1.
        -11    1    4    4    0    0  0.52837596639E-02 -0.34827417062E-01 -0.29376289383E-01  0.45870410880E-01  0.51100000000E-03 0. -1.
         11    1    4    4    0    0 -0.11416446989E-02 -0.78090251423E-01 -0.26310946251E-01  0.82413092003E-01  0.51100000000E-03 0.  1.
</event>
<event>
 8    1  0.1088021E+005  0.1043930E+01  0.7957747E-01            NaN
         13   -1    0    0    0    0  0.00000000000E+00  0.00000000000E+00  0.74505805969E-08  0.10566000000E+00  0.10566000000E+00 0. -1.
     999900   -1    0    0    0    0 -0.00000000000E+00 -0.00000000000E+00 -0.74505805969E-08  0.93827000000E+00  0.93827000000E+00 0.  1.
     999902    2    1    2    0    0 -0.17419824654E-01 -0.15394238758E-01  0.27975979196E-02  0.10205150596E+01  0.10202464053E+01 0.  0.
     999903    2    3    3    0    0 -0.78504663585E-01 -0.10061068841E+00  0.34655606000E-01  0.13371850264E+00  0.19852810728E-01 0.  0.
         14    1    1    2    0    0  0.17419824654E-01  0.15394238758E-01 -0.27975979196E-02  0.23414940359E-01  0.00000000000E+00 0. -1.
     999901    1    3    3    0    0  0.61084838931E-01  0.85216449648E-01 -0.31858008081E-01  0.88679655701E+00  0.88000000000E+00 0.  1.
        -11    1    4    4    0    0 -0.43901586489E-01 -0.59660345154E-01  0.10141501782E-01  0.74765080482E-01  0.51100000000E-03 0. -1.
         11    1    4    4    0    0 -0.34603077096E-01 -0.40950343252E-01  0.24514104219E-01  0.58953422153E-01  0.51100000000E-03 0.  1.
</event>
<event>
 8    1  0.1088021E+005  0.1043930E+01  0.7957747E-01            NaN
         13   -1    0    0    0    0  0.00000000000E+00  0.00000000000E+00  0.74505805969E-08  0.10566000000E+00  0.10566000000E+00 0.  1.
     999900   -1    0    0    0    0 -0.00000000000E+00 -0.00000000000E+00 -0.74505805969E-08  0.93827000000E+00  0.93827000000E+00 0. -1.
     999902    2    1    2    0    0  0.24021969171E-01  0.13168084719E-02 -0.37760857012E-02  0.10195774270E+01  0.10192865553E+01 0.  0.
     999903    2    3    3    0    0  0.72268455935E-01  0.25731021743E-01 -0.10553322136E+00  0.13206500911E+00  0.20471702810E-01 0.  0.
         14    1    1    2    0    0 -0.24021969171E-01 -0.13168084719E-02  0.37760857012E-02  0.24352572978E-01  0.00000000000E+00 0.  1.
     999901    1    3    3    0    0 -0.48246486763E-01 -0.24414213271E-01  0.10175713566E+00  0.88751241791E+00  0.88000000000E+00 0.  1.
        -11    1    4    4    0    0  0.22921454762E-01  0.11505262495E-01 -0.51396274175E-01  0.57442164596E-01  0.51100000000E-03 0.  1.
         11    1    4    4    0    0  0.49347001173E-01  0.14225759249E-01 -0.54136947189E-01  0.74622844511E-01  0.51100000000E-03 0. -1.
</event>
<event>
 8    1  0.1088021E+005  0.1043930E+01  0.7957747E-01            NaN
         13   -1    0    0    0    0  0.00000000000E+00  0.00000000000E+00  0.74505805969E-08  0.10566000000E+00  0.10566000000E+00 0. -1.
     999900   -1    0    0    0    0 -0.00000000000E+00 -0.00000000000E+00 -0.74505805969E-08  0.93827000000E+00  0.93827000000E+00 0.  1.
     999902    2    1    2    0    0  0.22458783769E-01 -0.29879516256E-02 -0.56776310439E-02  0.10205727673E+01  0.10203054509E+01 0.  0.
     999903    2    3    3    0    0  0.24637806046E-01  0.35543387054E-01 -0.12319252869E+00  0.13192257555E+00  0.18889493492E-01 0.  0.
         14    1    1    2    0    0 -0.22458783769E-01  0.29879516256E-02  0.56776310439E-02  0.23357232661E-01  0.00000000000E+00 0. -1.
     999901    1    3    3    0    0 -0.21790222772E-02 -0.38531338680E-01  0.11751489765E+00  0.88865019179E+00  0.88000000000E+00 0. -1.
        -11    1    4    4    0    0  0.15342859842E-01  0.83699595151E-02 -0.34217471187E-01  0.38425981130E-01  0.51100000000E-03 0. -1.
         11    1    4    4    0    0  0.92949462038E-02  0.27173427539E-01 -0.88975057504E-01  0.93496594420E-01  0.51100000000E-03 0.  1.
</event>
<event>
 8    1  0.1088021E+005  0.1043930E+01  0.7957747E-01            NaN
         13   -1    0    0    0    0  0.00000000000E+00  0.00000000000E+00  0.74505805969E-08  0.10566000000E+00  0.10566000000E+00 0. -1.
     999900   -1    0    0    0    0 -0.00000000000E+00 -0.00000000000E+00 -0.74505805969E-08  0.93827000000E+00  0.93827000000E+00 0. -1.
     999902    2    1    2    0    0 -0.28965731237E-02  0.11627742595E-01  0.20387163187E-01  0.10202819355E+01  0.10200078416E+01 0.  0.
     999903    2    3    3    0    0 -0.66789019976E-01  0.63333654263E-01  0.94572042032E-01  0.13334386416E+00  0.19099477063E-01 0.  0.
         14    1    1    2    0    0  0.28965731237E-02 -0.11627742595E-01 -0.20387163187E-01  0.23648064541E-01  0.00000000000E+00 0.  1.
     999901    1    3    3    0    0  0.63892446852E-01 -0.51705911668E-01 -0.74184878845E-01  0.88693807130E+00  0.88000000000E+00 0. -1.
        -11    1    4    4    0    0 -0.36299430851E-01  0.21503451794E-01  0.44522074895E-01  0.61339411418E-01  0.51100000000E-03 0.  1.
         11    1    4    4    0    0 -0.30489589124E-01  0.41830202469E-01  0.50049967137E-01  0.72004452744E-01  0.51100000000E-03 0. -1.
</event>
<event>
 8    1  0.1088021E+005  0.1043930E+01  0.7957747E-01            NaN
         13   -1    0    0    0    0  0.00000000000E+00  0.00000000000E+00  0.74505805969E-08  0.10566000000E+00  0.10566000000E+00 0. -1.
     999900   -1    0    0    0    0 -0.00000000000E+00 -0.00000000000E+00 -0.74505805969E-08  0.93827000000E+00  0.93827000000E+00 0. -1.
     999902    2    1    2    0    0  0.10129695765E-01  0.18671035695E-01 -0.11821497279E-01  0.10196202055E+01  0.10193303671E+01 0.  0.
     999903    2    3    3    0    0  0.16377435127E-01  0.23639982465E-01 -0.12832768231E+00  0.13190549017E+00  0.10197800589E-01 0.  0.
         14    1    1    2    0    0 -0.10129695765E-01 -0.18671035695E-01  0.11821497279E-01  0.24309794489E-01  0.00000000000E+00 0. -1.
     999901    1    3    3    0    0 -0.62477393619E-02 -0.49689467698E-02  0.11650618504E+00  0.88771471534E+00  0.88000000000E+00 0.  1.
        -11    1    4    4    0    0  0.13983498927E-02  0.10425633624E-01 -0.43890273241E-01  0.45136087835E-01  0.51100000000E-03 0. -1.
         11    1    4    4    0    0  0.14979085234E-01  0.13214348840E-01 -0.84437409073E-01  0.86769402336E-01  0.51100000000E-03 0.  1.
</event>
<event>
 8    1  0.1088021E+005  0.1043930E+01  0.7957747E-01            NaN
         13   -1    0    0    0    0  0.00000000000E+00  0.00000000000E+00  0.74505805969E-08  0.10566000000E+00  0.10566000000E+00 0. -1.
     999900   -1    0    0    0    0 -0.00000000000E+00 -0.00000000000E+00 -0.74505805969E-08  0.93827000000E+00  0.93827000000E+00 0. -1.
     999902    2    1    2    0    0  0.94901829322E-03 -0.20373325241E-01  0.10969871203E-01  0.10207716086E+01  0.10205088759E+01 0.  0.
     999903    2    3    3    0    0 -0.11509703429E+00  0.31419797439E-01 -0.46526457341E-01  0.12978617570E+00  0.21099980994E-01 0.  0.
         14    1    1    2    0    0 -0.94901829322E-03  0.20373325241E-01 -0.10969871203E-01  0.23158391380E-01  0.00000000000E+00 0.  1.
     999901    1    3    3    0    0  0.11604605258E+00 -0.51793122680E-01  0.57496328544E-01  0.89098543292E+00  0.88000000000E+00 0.  1.
        -11    1    4    4    0    0 -0.82862259926E-01  0.20206407752E-01 -0.23026631618E-01  0.88345571021E-01  0.51100000000E-03 0.  1.
         11    1    4    4    0    0 -0.32234774361E-01  0.11213389687E-01 -0.23499825723E-01  0.41440604681E-01  0.51100000000E-03 0. -1.
</event>
<event>
 8    1  0.1088021E+005  0.1043930E+01  0.7957747E-01            NaN
         13   -1    0    0    0    0  0.00000000000E+00  0.00000000000E+00  0.74505805969E-08  0.10566000000E+00  0.10566000000E+00 0. -1.
     999900   -1    0    0    0    0 -0.00000000000E+00 -0.00000000000E+00 -0.74505805969E-08  0.93827000000E+00  0.93827000000E+00 0. -1.
     999902    2    1    2    0    0  0.11584642321E-01 -0.37521124729E-03  0.20667153205E-01  0.10202345164E+01  0.10199593092E+01 0.  0.
     999903    2    3    3    0    0  0.70676041925E-01 -0.30641345384E-01  0.10703820822E+00  0.13351709156E+00  0.20872009225E-01 0.  0.
         14    1    1    2    0    0 -0.11584642321E-01  0.37521124729E-03 -0.20667153205E-01  0.23695483595E-01  0.00000000000E+00 0.  1.
     999901    1    3    3    0    0 -0.59091399603E-01  0.30266134137E-01 -0.86371055020E-01  0.88671742485E+00  0.88000000000E+00 0. -1.
        -11    1    4    4    0    0  0.25444796041E-01 -0.22028159429E-02  0.44033119919E-01  0.50906451600E-01  0.51100000000E-03 0. -1.
         11    1    4    4    0    0  0.45231245883E-01 -0.28438529441E-01  0.63005088305E-01  0.82610639958E-01  0.51100000000E-03 0.  1.
</event>
<event>
 8    1  0.1088021E+005  0.1043930E+01  0.7957747E-01            NaN
         13   -1    0    0    0    0  0.00000000000E+00  0.00000000000E+00  0.74505805969E-08  0.10566000000E+00  0.10566000000E+00 0.  1.
     999900   -1    0    0    0    0 -0.00000000000E+00 -0.00000000000E+00 -0.74505805969E-08  0.93827000000E+00  0.93827000000E+00 0.  1.
     999902    2    1    2    0    0 -0.10092510566E-01  0.21936829713E-01 -0.15980707659E-01  0.10149737177E+01  0.10145605853E+01 0.  0.
     999903    2    3    3    0    0 -0.94730890971E-01 -0.38616111178E-01  0.68485030366E-01  0.12482498013E+00  0.20638084566E-01 0.  0.
         14    1    1    2    0    0  0.10092510566E-01 -0.21936829713E-01  0.15980707659E-01  0.28956282301E-01  0.00000000000E+00 0.  1.
     999901    1    3    3    0    0  0.84638380406E-01  0.60552940892E-01 -0.84465738025E-01  0.89014873756E+00  0.88000000000E+00 0.  1.
        -11    1    4    4    0    0 -0.56748421146E-01 -0.27461666532E-01  0.30801198100E-01  0.70167666035E-01  0.51100000000E-03 0. -1.
         11    1    4    4    0    0 -0.37982469825E-01 -0.11154444646E-01  0.37683832266E-01  0.54657314100E-01  0.51100000000E-03 0.  1.
</event>
<event>
 8    1  0.1088021E+005  0.1043930E+01  0.7957747E-01            NaN
         13   -1    0    0    0    0  0.00000000000E+00  0.00000000000E+00  0.74505805969E-08  0.10566000000E+00  0.10566000000E+00 0.  1.
     999900   -1    0    0    0    0 -0.00000000000E+00 -0.00000000000E+00 -0.74505805969E-08  0.93827000000E+00  0.93827000000E+00 0. -1.
     999902    2    1    2    0    0  0.22752642136E-01  0.18091389149E-02  0.78919216286E-02  0.10197796763E+01  0.10194936734E+01 0.  0.
     999903    2    3    3    0    0  0.75720184060E-01  0.80248367212E-01 -0.68591129663E-01  0.13140592040E+00  0.19733882899E-01 0.  0.
         14    1    1    2    0    0 -0.22752642136E-01 -0.18091389149E-02 -0.78919216286E-02  0.24150323699E-01  0.00000000000E+00 0. -1.
     999901    1    3    3    0    0 -0.52967541924E-01 -0.78439228297E-01  0.76483051292E-01  0.88837375590E+00  0.88000000000E+00 0.  1.
        -11    1    4    4    0    0  0.23770237545E-01  0.36835243799E-01 -0.33313799119E-01  0.55062961339E-01  0.51100000000E-03 0.  1.
         11    1    4    4    0    0  0.51949946514E-01  0.43413123413E-01 -0.35277330545E-01  0.76342959064E-01  0.51100000000E-03 0. -1.
</event>
<event>
 8    1  0.1088021E+005  0.1043930E+01  0.7957747E-01            NaN
         13   -1    0    0    0    0  0.00000000000E+00  0.00000000000E+00  0.74505805969E-08  0.10566000000E+00  0.10566000000E+00 0. -1.
     999900   -1    0    0    0    0 -0.00000000000E+00 -0.00000000000E+00 -0.74505805969E-08  0.93827000000E+00  0.93827000000E+00 0.  1.
     999902    2    1    2    0    0  0.23308360375E-01 -0.37674861014E-02 -0.16725314030E-02  0.10202599561E+01  0.10199853465E+01 0.  0.
     999903    2    3    3    0    0 -0.11914272437E+00 -0.41670131358E-01 -0.58238843523E-02  0.12798973037E+00  0.20397667394E-01 0.  0.
         14    1    1    2    0    0 -0.23308360375E-01  0.37674861014E-02  0.16725314030E-02  0.23670043857E-01  0.00000000000E+00 0.  1.
     999901    1    3    3    0    0  0.14245108474E+00  0.37902645256E-01  0.41513529494E-02  0.89227022577E+00  0.88000000000E+00 0. -1.
        -11    1    4    4    0    0 -0.10639521454E+00 -0.36409733375E-01  0.12964453637E-02  0.11246133670E+00  0.51100000000E-03 0. -1.
         11    1    4    4    0    0 -0.12747509830E-01 -0.52603979829E-02 -0.71203297160E-02  0.15528393673E-01  0.51100000000E-03 0.  1.
</event>
<event>
 8    1  0.1088021E+005  0.1043930E+01  0.7957747E-01            NaN
         13   -1    0    0    0    0  0.00000000000E+00  0.00000000000E+00  0.74505805969E-08  0.10566000000E+00  0.10566000000E+00 0.  1.
     999900   -1    0    0    0    0 -0.00000000000E+00 -0.00000000000E+00 -0.74505805969E-08  0.93827000000E+00  0.93827000000E+00 0. -1.
     999902    2    1    2    0    0  0.22810672690E-01  0.36486363122E-03 -0.16126547318E-01  0.10159921146E+01  0.10156079221E+01 0.  0.
     999903    2    3    3    0    0  0.12072345840E+00  0.39249061236E-01  0.13551400413E-01  0.12921160339E+00  0.19933784882E-01 0.  0.
         14    1    1    2    0    0 -0.22810672690E-01 -0.36486363122E-03  0.16126547318E-01  0.27937885433E-01  0.00000000000E+00 0.  1.
     999901    1    3    3    0    0 -0.97912785712E-01 -0.38884197605E-01 -0.29677947731E-01  0.88678051118E+00  0.88000000000E+00 0.  1.
        -11    1    4    4    0    0  0.52018631728E-01  0.25682982509E-01  0.76492039023E-03  0.58020684774E-01  0.51100000000E-03 0.  1.
         11    1    4    4    0    0  0.68704826675E-01  0.13566078727E-01  0.12786480022E-01  0.71190918612E-01  0.51100000000E-03 0. -1.
</event>
<event>
 8    1  0.1088021E+005  0.1043930E+01  0.7957747E-01            NaN
         13   -1    0    0    0    0  0.00000000000E+00  0.00000000000E+00  0.74505805969E-08  0.10566000000E+00  0.10566000000E+00 0.  1.
     999900   -1    0    0    0    0 -0.00000000000E+00 -0.00000000000E+00 -0.74505805969E-08  0.93827000000E+00  0.93827000000E+00 0. -1.
     999902    2    1    2    0    0 -0.19907192192E-01 -0.68438091238E-02 -0.12498091328E-01  0.10194486538E+01  0.10191546602E+01 0.  0.
     999903    2    3    3    0    0 -0.32089064622E-01  0.12190693262E+00  0.21127884626E-01  0.12936109757E+00  0.19922293258E-01 0.  0.
         14    1    1    2    0    0  0.19907192192E-01  0.68438091238E-02  0.12498091328E-01  0.24481346187E-01  0.00000000000E+00 0.  1.
     999901    1    3    3    0    0  0.12181872430E-01 -0.12875074174E+00 -0.33625975954E-01  0.89008755624E+00  0.88000000000E+00 0.  1.
        -11    1    4    4    0    0 -0.31473655884E-02  0.28211712052E-01 -0.24655367334E-02  0.28498185897E-01  0.51100000000E-03 0. -1.
         11    1    4    4    0    0 -0.28941699033E-01  0.93695220563E-01  0.23593421359E-01  0.10086291168E+00  0.51100000000E-03 0.  1.
</event>
<event>
 8    1  0.1088021E+005  0.1043930E+01  0.7957747E-01            NaN
         13   -1    0    0    0    0  0.00000000000E+00  0.00000000000E+00  0.74505805969E-08  0.10566000000E+00  0.10566000000E+00 0.  1.
     999900   -1    0    0    0    0 -0.00000000000E+00 -0.00000000000E+00 -0.74505805969E-08  0.93827000000E+00  0.93827000000E+00 0.  1.
     999902    2    1    2    0    0  0.26700033205E-01  0.10648720210E-01 -0.22394030250E-01  0.10074912897E+01  0.10068321207E+01 0.  0.
     999903    2    3    3    0    0 -0.57236373259E-01  0.45679482795E-01  0.87798130833E-01  0.11596743306E+00  0.19424628168E-01 0.  0.
         14    1    1    2    0    0 -0.26700033205E-01 -0.10648720210E-01  0.22394030250E-01  0.36438710269E-01  0.00000000000E+00 0.  1.
     999901    1    3    3    0    0  0.83936406464E-01 -0.35030762585E-01 -0.11019216108E+00  0.89152385668E+00  0.88000000000E+00 0.  1.
        -11    1    4    4    0    0 -0.10993738143E-01  0.19980121626E-01  0.24634809431E-01  0.33573836469E-01  0.51100000000E-03 0.  1.
         11    1    4    4    0    0 -0.46242635115E-01  0.25699361169E-01  0.63163321402E-01  0.82393596587E-01  0.51100000000E-03 0. -1.
</event>
<event>
 8    1  0.1088021E+005  0.1043930E+01  0.7957747E-01            NaN
         13   -1    0    0    0    0  0.00000000000E+00  0.00000000000E+00  0.74505805969E-08  0.10566000000E+00  0.10566000000E+00 0.  1.
     999900   -1    0    0    0    0 -0.00000000000E+00 -0.00000000000E+00 -0.74505805969E-08  0.93827000000E+00  0.93827000000E+00 0. -1.
     999902    2    1    2    0    0  0.11691474706E-01 -0.14621094198E-01 -0.14228498718E-01  0.10204158096E+01  0.10201448462E+01 0.  0.
     999903    2    3    3    0    0  0.52310871202E-01 -0.11032197818E+00 -0.50258392569E-01  0.13356365287E+00  0.20148876660E-01 0.  0.
         14    1    1    2    0    0 -0.11691474706E-01  0.14621094198E-01  0.14228498718E-01  0.23514190441E-01  0.00000000000E+00 0.  1.
     999901    1    3    3    0    0 -0.40619396496E-01  0.95700883979E-01  0.36029893851E-01  0.88685215669E+00  0.88000000000E+00 0.  1.
        -11    1    4    4    0    0  0.27526013084E-01 -0.50651141884E-01 -0.13443506555E-01  0.59196355968E-01  0.51100000000E-03 0.  1.
         11    1    4    4    0    0  0.24784858118E-01 -0.59670836293E-01 -0.36814886014E-01  0.74367296905E-01  0.51100000000E-03 0. -1.
</event>
<event>
 8    1  0.1088021E+005  0.1043930E+01  0.7957747E-01            NaN
         13   -1    0    0    0    0  0.00000000000E+00  0.00000000000E+00  0.74505805969E-08  0.10566000000E+00  0.10566000000E+00 0. -1.
     999900   -1    0    0    0    0 -0.00000000000E+00 -0.00000000000E+00 -0.74505805969E-08  0.93827000000E+00  0.93827000000E+00 0.  1.
     999902    2    1    2    0    0  0.17194103689E-01 -0.14816216483E-01 -0.55064182877E-02  0.10205745271E+01  0.10203072514E+01 0.  0.
     999903    2    3    3    0    0 -0.96855843871E-01 -0.48311599723E-01  0.68231226205E-01  0.12952650849E+00  0.20163110178E-01 0.  0.
         14    1    1    2    0    0 -0.17194103689E-01  0.14816216483E-01  0.55064182877E-02  0.23355472911E-01  0.00000000000E+00 0. -1.
     999901    1    3    3    0    0  0.11404994756E+00  0.33495383240E-01 -0.73737644493E-01  0.89104801860E+00  0.88000000000E+00 0.  1.
        -11    1    4    4    0    0 -0.71257830025E-01 -0.26956186401E-01  0.41260144115E-01  0.86642800847E-01  0.51100000000E-03 0.  1.
         11    1    4    4    0    0 -0.25598013846E-01 -0.21355413321E-01  0.26971082090E-01  0.42883707642E-01  0.51100000000E-03 0. -1.
</event>
<event>
 8    1  0.1088021E+005  0.1043930E+01  0.7957747E-01            NaN
         13   -1    0    0    0    0  0.00000000000E+00  0.00000000000E+00  0.74505805969E-08  0.10566000000E+00  0.10566000000E+00 0.  1.
     999900   -1    0    0    0    0 -0.00000000000E+00 -0.00000000000E+00 -0.74505805969E-08  0.93827000000E+00  0.93827000000E+00 0.  1.
     999902    2    1    2    0    0  0.35781250472E-02 -0.63224998039E-02  0.21343952778E-01  0.10213835745E+01  0.10211346948E+01 0.  0.
     999903    2    3    3    0    0 -0.35452799376E-01 -0.11980104383E+00 -0.35483920230E-01  0.13142278875E+00  0.20091035855E-01 0.  0.
         14    1    1    2    0    0 -0.35781250472E-02  0.63224998039E-02 -0.21343952778E-01  0.22546425500E-01  0.00000000000E+00 0. -1.
     999901    1    3    3    0    0  0.39030924423E-01  0.11347854403E+00  0.56827873008E-01  0.88996078575E+00  0.88000000000E+00 0. -1.
        -11    1    4    4    0    0 -0.20701260594E-02 -0.36442475024E-01 -0.66071576585E-02  0.37097911816E-01  0.51100000000E-03 0.  1.
         11    1    4    4    0    0 -0.33382673317E-01 -0.83358568809E-01 -0.28876762572E-01  0.94324876937E-01  0.51100000000E-03 0. -1.
</event>
<event>
 8    1  0.1088021E+005  0.1043930E+01  0.7957747E-01            NaN
         13   -1    0    0    0    0  0.00000000000E+00  0.00000000000E+00  0.74505805969E-08  0.10566000000E+00  0.10566000000E+00 0. -1.
     999900   -1    0    0    0    0 -0.00000000000E+00 -0.00000000000E+00 -0.74505805969E-08  0.93827000000E+00  0.93827000000E+00 0. -1.
     999902    2    1    2    0    0  0.13176870946E-01  0.15681901073E-01  0.15594405007E-01  0.10181863131E+01  0.10178608111E+01 0.  0.
     999903    2    3    3    0    0  0.12349458754E+00  0.39096818343E-01  0.73446153784E-03  0.13086502128E+00  0.18591396010E-01 0.  0.
         14    1    1    2    0    0 -0.13176870946E-01 -0.15681901073E-01 -0.15594405007E-01  0.25743686929E-01  0.00000000000E+00 0. -1.
     999901    1    3    3    0    0 -0.11031771659E+00 -0.23414917270E-01  0.14859943469E-01  0.88732129179E+00  0.88000000000E+00 0. -1.
        -11    1    4    4    0    0  0.51018766490E-01  0.19881260189E-01 -0.81412372215E-02  0.55359912441E-01  0.51100000000E-03 0. -1.
         11    1    4    4    0    0  0.72475821046E-01  0.19215558154E-01  0.88756987593E-02  0.75505108840E-01  0.51100000000E-03 0.  1.
</event>
<event>
 8    1  0.1088021E+005  0.1043930E+01  0.7957747E-01            NaN
         13   -1    0    0    0    0  0.00000000000E+00  0.00000000000E+00  0.74505805969E-08  0.10566000000E+00  0.10566000000E+00 0. -1.
     999900   -1    0    0    0    0 -0.00000000000E+00 -0.00000000000E+00 -0.74505805969E-08  0.93827000000E+00  0.93827000000E+00 0.  1.
     999902    2    1    2    0    0 -0.15030975572E-01  0.13967964749E-01  0.10785027006E-01  0.10207491658E+01  0.10204859178E+01 0.  0.
     999903    2    3    3    0    0  0.49180915654E-01  0.12024663222E+00  0.98732031480E-02  0.13203146398E+00  0.21373168113E-01 0.  0.
         14    1    1    2    0    0  0.15030975572E-01 -0.13967964749E-01 -0.10785027006E-01  0.23180834182E-01  0.00000000000E+00 0.  1.
     999901    1    3    3    0    0 -0.64211891226E-01 -0.10627866747E+00  0.91182385785E-03  0.88871770184E+00  0.88000000000E+00 0. -1.
        -11    1    4    4    0    0  0.27410366297E-01  0.90975598107E-01  0.10062831104E-01  0.95547942533E-01  0.51100000000E-03 0.  1.
         11    1    4    4    0    0  0.21770549357E-01  0.29271034115E-01 -0.18962795626E-03  0.36483521448E-01  0.51100000000E-03 0. -1.
</event>
<event>
 8    1  0.1088021E+005  0.1043930E+01  0.7957747E-01            NaN
         13   -1    0    0    0    0  0.00000000000E+00  0.00000000000E+00  0.74505805969E-08  0.10566000000E+00  0.10566000000E+00 0.  1.
     999900   -1    0    0    0    0 -0.00000000000E+00 -0.00000000000E+00 -0.74505805969E-08  0.93827000000E+00  0.93827000000E+00 0. -1.
     999902    2    1    2    0    0 -0.13812790968E-01  0.18212895880E-01 -0.66725810028E-02  0.10201176900E+01  0.10198397302E+01 0.  0.
     999903    2    3    3    0    0  0.86364354429E-01 -0.57572736302E-03 -0.95403698133E-01  0.12980219312E+00  0.16959084394E-01 0.  0.
         14    1    1    2    0    0  0.13812790968E-01 -0.18212895880E-01  0.66725810028E-02  0.23812310007E-01  0.00000000000E+00 0.  1.
     999901    1    3    3    0    0 -0.10017714540E+00  0.18788623243E-01  0.88731117131E-01  0.89031549687E+00  0.88000000000E+00 0.  1.
        -11    1    4    4    0    0  0.57269853472E-01  0.72969903984E-02 -0.66047893539E-01  0.87724953961E-01  0.51100000000E-03 0.  1.
         11    1    4    4    0    0  0.29094500958E-01 -0.78727177615E-02 -0.29355804594E-01  0.42077239160E-01  0.51100000000E-03 0. -1.
</event>
<event>
 8    1  0.1088021E+005  0.1043930E+01  0.7957747E-01            NaN
         13   -1    0    0    0    0  0.00000000000E+00  0.00000000000E+00  0.74505805969E-08  0.10566000000E+00  0.10566000000E+00 0. -1.
     999900   -1    0    0    0    0 -0.00000000000E+00 -0.00000000000E+00 -0.74505805969E-08  0.93827000000E+00  0.93827000000E+00 0.  1.
     999902    2    1    2    0    0  0.18213497181E-01  0.91208768779E-02 -0.15644580644E-01  0.10182458652E+01  0.10179218866E+01 0.  0.
     999903    2    3    3    0    0  0.62499349593E-02 -0.60593534234E-01 -0.11310371458E+00  0.13004458810E+00  0.20211545340E-01 0.  0.
         14    1    1    2    0    0 -0.18213497181E-01 -0.91208768779E-02  0.15644580644E-01  0.25684134755E-01  0.00000000000E+00 0. -1.
     999901    1    3    3    0    0  0.11963562221E-01  0.69714411112E-01  0.97459133932E-01  0.88820127715E+00  0.88000000000E+00 0.  1.
        -11    1    4    4    0    0 -0.68777283737E-02 -0.21726996286E-01 -0.47156110401E-01  0.52376763782E-01  0.51100000000E-03 0.  1.
         11    1    4    4    0    0  0.13127663333E-01 -0.38866537948E-01 -0.65947604175E-01  0.77667824317E-01  0.51100000000E-03 0. -1.
</event>
<event>
 8    1  0.1088021E+005  0.1043930E+01  0.7957747E-01            NaN
         13   -1    0    0    0    0  0.00000000000E+00  0.00000000000E+00  0.74505805969E-08  0.10566000000E+00  0.10566000000E+00 0.  1.
     999900   -1    0    0    0    0 -0.00000000000E+00 -0.00000000000E+00 -0.74505805969E-08  0.93827000000E+00  0.93827000000E+00 0. -1.
     999902    2    1    2    0    0 -0.35183749234E-02 -0.11759942499E-01  0.20224412487E-01  0.10202719766E+01  0.10199976491E+01 0.  0.
     999903    2    3    3    0    0 -0.67798527198E-01  0.80695068682E-01 -0.70613012634E-01  0.12845848442E+00  0.20175486782E-01 0.  0.
         14    1    1    2    0    0  0.35183749234E-02  0.11759942499E-01 -0.20224412487E-01  0.23658023377E-01  0.00000000000E+00 0. -1.
     999901    1    3    3    0    0  0.64280152275E-01 -0.92455011180E-01  0.90837425121E-01  0.89181349220E+00  0.88000000000E+00 0.  1.
        -11    1    4    4    0    0 -0.23257569121E-01  0.14260691716E-01 -0.19461073000E-01  0.33515314901E-01  0.51100000000E-03 0.  1.
         11    1    4    4    0    0 -0.44540958078E-01  0.66434376966E-01 -0.51151939635E-01  0.94943169521E-01  0.51100000000E-03 0. -1.
</event>
<event>
 8    1  0.1088021E+005  0.1043930E+01  0.7957747E-01            NaN
         13   -1    0    0    0    0  0.00000000000E+00  0.00000000000E+00  0.74505805969E-08  0.10566000000E+00  0.10566000000E+00 0. -1.
     999900   -1    0    0    0    0 -0.00000000000E+00 -0.00000000000E+00 -0.74505805969E-08  0.93827000000E+00  0.93827000000E+00 0.  1.
     999902    2    1    2    0    0  0.56412020325E-02 -0.95199691065E-02 -0.21377273743E-01  0.10198584233E+01  0.10195743047E+01 0.  0.
     999903    2    3    3    0    0  0.10692880536E-01 -0.12966172356E+00 -0.62232414422E-02  0.13155149137E+00  0.18454427552E-01 0.  0.
         14    1    1    2    0    0 -0.56412020325E-02  0.95199691065E-02  0.21377273743E-01  0.24071576700E-01  0.00000000000E+00 0. -1.
     999901    1    3    3    0    0 -0.50516785033E-02  0.12014175446E+00 -0.15154032300E-01  0.88830693193E+00  0.88000000000E+00 0. -1.
        -11    1    4    4    0    0  0.14356000974E-02 -0.19849261254E-01 -0.76826911714E-02  0.21338673450E-01  0.51100000000E-03 0.  1.
         11    1    4    4    0    0  0.92572804384E-02 -0.10981246231E+00  0.14594497292E-02  0.11021281792E+00  0.51100000000E-03 0. -1.
</event>
<event>
 8    1  0.1088021E+005  0.1043930E+01  0.7957747E-01            NaN
         13   -1    0    0    0    0  0.00000000000E+00  0.00000000000E+00  0.74505805969E-08  0.10566000000E+00  0.10566000000E+00 0. -1.
     999900   -1    0    0    0    0 -0.00000000000E+00 -0.00000000000E+00 -0.74505805969E-08  0.93827000000E+00  0.93827000000E+00 0.  1.
     999902    2    1    2    0    0  0.21759235693E-01 -0.41428633170E-02  0.88956414862E-02  0.10200603521E+01  0.10197810362E+01 0.  0.
     999903    2    3    3    0    0 -0.94086016604E-01 -0.84869619072E-01  0.12859443728E-01  0.12879572061E+00  0.19181803710E-01 0.  0.
         14    1    1    2    0    0 -0.21759235693E-01  0.41428633170E-02 -0.88956414862E-02  0.23869647921E-01  0.00000000000E+00 0.  1.
     999901    1    3    3    0    0  0.11584525230E+00  0.80726755755E-01 -0.39638022417E-02  0.89126463147E+00  0.88000000000E+00 0. -1.
        -11    1    4    4    0    0 -0.32897801948E-01 -0.36088768962E-01 -0.30847970102E-02  0.48933032930E-01  0.51100000000E-03 0.  1.
         11    1    4    4    0    0 -0.61188214656E-01 -0.48780850110E-01  0.15944240738E-01  0.79862687683E-01  0.51100000000E-03 0. -1.
</event>
<event>
 7    1  0.1088021E+005  0.1043930E+01  0.7957747E-01            NaN
         13   -1    0    0    0    0  0.00000000000E+00  0.00000000000E+00  0.74505805969E-08  0.10566000000E+00  0.10566000000E+00 0.  1.
     999900   -1    0    0    0    0 -0.00000000000E+00 -0.00000000000E+00 -0.74505805969E-08  0.93827000000E+00  0.93827000000E+00 0. -1.
     999903    2    1    2    0    0  0.21719317278E-01  0.60384876960E-01  0.89245373826E-01  0.11163348704E+00  0.19473997295E-01 0.  0.
         14    1    1    2    0    0  0.30397299549E-01 -0.14691255825E-01  0.25274190493E-01  0.42173611686E-01  0.00000000000E+00 0.  1.
     999901    1    1    2    0    0 -0.52116616827E-01 -0.45693621135E-01 -0.11451956432E+00  0.89012290127E+00  0.88000000000E+00 0. -1.
        -11    1    3    3    0    0  0.19865399035E-01  0.26510312006E-01  0.43736185324E-01  0.54868440375E-01  0.51100000000E-03 0. -1.
         11    1    3    3    0    0  0.18539182433E-02  0.33874564954E-01  0.45509188502E-01  0.56765046665E-01  0.51100000000E-03 0.  1.
</event>
<event>
 8    1  0.1088021E+005  0.1043930E+01  0.7957747E-01            NaN
         13   -1    0    0    0    0  0.00000000000E+00  0.00000000000E+00  0.74505805969E-08  0.10566000000E+00  0.10566000000E+00 0. -1.
     999900   -1    0    0    0    0 -0.00000000000E+00 -0.00000000000E+00 -0.74505805969E-08  0.93827000000E+00  0.93827000000E+00 0. -1.
     999902    2    1    2    0    0  0.23628251901E-02 -0.99699729405E-02 -0.21404713875E-01  0.10201993220E+01  0.10199232871E+01 0.  0.
     999903    2    3    3    0    0  0.72717276198E-02 -0.12271016370E+00  0.40357764237E-01  0.13084615724E+00  0.19527043617E-01 0.  0.
         14    1    1    2    0    0 -0.23628251901E-02  0.99699729405E-02  0.21404713875E-01  0.23730678022E-01  0.00000000000E+00 0. -1.
     999901    1    3    3    0    0 -0.49089024297E-02  0.11274019075E+00 -0.61762478113E-01  0.88935316474E+00  0.88000000000E+00 0. -1.
        -11    1    4    4    0    0 -0.56524472624E-02 -0.65659347054E-01  0.23471433360E-01  0.69959054600E-01  0.51100000000E-03 0.  1.
         11    1    4    4    0    0  0.12924174882E-01 -0.57050816641E-01  0.16886330877E-01  0.60887102635E-01  0.51100000000E-03 0. -1.
</event>
<event>
 8    1  0.1088021E+005  0.1043930E+01  0.7957747E-01            NaN
         13   -1    0    0    0    0  0.00000000000E+00  0.00000000000E+00  0.74505805969E-08  0.10566000000E+00  0.10566000000E+00 0.  1.
     999900   -1    0    0    0    0 -0.00000000000E+00 -0.00000000000E+00 -0.74505805969E-08  0.93827000000E+00  0.93827000000E+00 0. -1.
     999902    2    1    2    0    0 -0.26564526898E-02  0.23506796595E-01  0.14824116701E-02  0.10202271780E+01  0.10199517983E+01 0.  0.
     999903    2    3    3    0    0  0.83855266226E-01 -0.64998204817E-01  0.70590291080E-01  0.12888363491E+00  0.19275109595E-01 0.  0.
         14    1    1    2    0    0  0.26564526898E-02 -0.23506796595E-01 -0.14824116701E-02  0.23702822014E-01  0.00000000000E+00 0. -1.
     999901    1    3    3    0    0 -0.86511718916E-01  0.88505001411E-01 -0.69107879410E-01  0.89134354307E+00  0.88000000000E+00 0. -1.
        -11    1    4    4    0    0  0.63433215960E-01 -0.40305714611E-01  0.55692193719E-01  0.93542530860E-01  0.51100000000E-03 0.  1.
         11    1    4    4    0    0  0.20422050266E-01 -0.24692490205E-01  0.14898097361E-01  0.35341104052E-01  0.51100000000E-03 0. -1.
</event>
<event>
 8    1  0.1088021E+005  0.1043930E+01  0.7957747E-01            NaN
         13   -1    0    0    0    0  0.00000000000E+00  0.00000000000E+00  0.74505805969E-08  0.10566000000E+00  0.10566000000E+00 0.  1.
     999900   -1    0    0    0    0 -0.00000000000E+00 -0.00000000000E+00 -0.74505805969E-08  0.93827000000E+00  0.93827000000E+00 0. -1.
     999902    2    1    2    0    0  0.40074893997E-02  0.21245930318E-01  0.40091156796E-02  0.10219408542E+01  0.10217042561E+01 0.  0.
     999903    2    3    3    0    0  0.52660923683E-01 -0.70288907100E-01  0.95017178171E-01  0.13119495854E+00  0.21682934606E-01 0.  0.
         14    1    1    2    0    0 -0.40074893997E-02 -0.21245930318E-01 -0.40091156796E-02  0.21989145843E-01  0.00000000000E+00 0.  1.
     999901    1    3    3    0    0 -0.48653434283E-01  0.91534837418E-01 -0.91008062491E-01  0.89074589562E+00  0.88000000000E+00 0.  1.
        -11    1    4    4    0    0  0.39765156804E-01 -0.35435402585E-01  0.54214681640E-01  0.76002817568E-01  0.51100000000E-03 0. -1.
         11    1    4    4    0    0  0.12895766879E-01 -0.34853504515E-01  0.40802496531E-01  0.55192140967E-01  0.51100000000E-03 0.  1.
</event>
<event>
 8    1  0.1088021E+005  0.1043930E+01  0.7957747E-01            NaN
         13   -1    0    0    0    0  0.00000000000E+00  0.00000000000E+00  0.74505805969E-08  0.10566000000E+00  0.10566000000E+00 0.  1.
     999900   -1    0    0    0    0 -0.00000000000E+00 -0.00000000000E+00 -0.74505805969E-08  0.93827000000E+00  0.93827000000E+00 0. -1.
     999902    2    1    2    0    0  0.21973955030E-01  0.14595457675E-02  0.62051594567E-02  0.10210501185E+01  0.10207937380E+01 0.  0.
     999903    2    3    3    0    0  0.86204698653E-01 -0.50716592402E-01  0.86033142014E-01  0.13357029078E+00  0.20878176127E-01 0.  0.
         14    1    1    2    0    0 -0.21973955030E-01 -0.14595457675E-02 -0.62051594567E-02  0.22879881499E-01  0.00000000000E+00 0. -1.
     999901    1    3    3    0    0 -0.64230743623E-01  0.52176138169E-01 -0.79827982557E-01  0.88747982773E+00  0.88000000000E+00 0. -1.
        -11    1    4    4    0    0  0.80444334051E-01 -0.46810830919E-01  0.71223751750E-01  0.11719909857E+00  0.51100000000E-03 0. -1.
         11    1    4    4    0    0  0.57603646020E-02 -0.39057614828E-02  0.14809390264E-01  0.16371192201E-01  0.51100000000E-03 0.  1.
</event>
<event>
 8    1  0.1088021E+005  0.1043930E+01  0.7957747E-01            NaN
         13   -1    0    0    0    0  0.00000000000E+00  0.00000000000E+00  0.74505805969E-08  0.10566000000E+00  0.10566000000E+00 0. -1.
     999900   -1    0    0    0    0 -0.00000000000E+00 -0.00000000000E+00 -0.74505805969E-08  0.93827000000E+00  0.93827000000E+00 0. -1.
     999902    2    1    2    0    0 -0.63622655780E-02 -0.61777654426E-02  0.22214166996E-01  0.10200111283E+01  0.10197306455E+01 0.  0.
     999903    2    3    3    0    0 -0.11643848022E+00 -0.48552261174E-01  0.33500944619E-01  0.13206982263E+00  0.20121705150E-01 0.  0.
         14    1    1    2    0    0  0.63622655780E-02  0.61777654426E-02 -0.22214166996E-01  0.23918871723E-01  0.00000000000E+00 0.  1.
     999901    1    3    3    0    0  0.11007621465E+00  0.42374495731E-01 -0.11286777623E-01  0.88794130564E+00  0.88000000000E+00 0. -1.
        -11    1    4    4    0    0 -0.25217873311E-01 -0.16097339765E-01  0.10056787663E-02  0.29938904333E-01  0.51100000000E-03 0. -1.
         11    1    4    4    0    0 -0.91220606913E-01 -0.32454921409E-01  0.32495265853E-01  0.10213091830E+00  0.51100000000E-03 0.  1.
</event>
<event>
 8    1  0.1088021E+005  0.1043930E+01  0.7957747E-01            NaN
         13   -1    0    0    0    0  0.00000000000E+00  0.00000000000E+00  0.74505805969E-08  0.10566000000E+00  0.10566000000E+00 0. -1.
     999900   -1    0    0    0    0 -0.00000000000E+00 -0.00000000000E+00 -0.74505805969E-08  0.93827000000E+00  0.93827000000E+00 0. -1.
     999902    2    1    2    0    0  0.16590366706E-01 -0.97671024682E-02  0.12477376628E-01  0.10209883025E+01  0.10207305189E+01 0.  0.
     999903    2    3    3    0    0 -0.76419890281E-01  0.13091357616E-01 -0.10018967056E+00  0.12865020476E+00  0.22394682930E-01 0.  0.
         14    1    1    2    0    0 -0.16590366706E-01  0.97671024682E-02 -0.12477376628E-01  0.22941697531E-01  0.00000000000E+00 0.  1.
     999901    1    3    3    0    0  0.93010256987E-01 -0.22858460084E-01  0.11266704719E+00  0.89233809771E+00  0.88000000000E+00 0. -1.
        -11    1    4    4    0    0 -0.39545101924E-01 -0.35331345115E-03 -0.64150531229E-01  0.75362402393E-01  0.51100000000E-03 0. -1.
         11    1    4    4    0    0 -0.36874788357E-01  0.13444671067E-01 -0.36039139329E-01  0.53287802367E-01  0.51100000000E-03 0.  1.
</event>
<event>
 8    1  0.1088021E+005  0.1043930E+01  0.7957747E-01            NaN
         13   -1    0    0    0    0  0.00000000000E+00  0.00000000000E+00  0.74505805969E-08  0.10566000000E+00  0.10566000000E+00 0. -1.
     999900   -1    0    0    0    0 -0.00000000000E+00 -0.00000000000E+00 -0.74505805969E-08  0.93827000000E+00  0.93827000000E+00 0.  1.
     999902    2    1    2    0    0  0.55247404097E-02  0.21064104079E-01 -0.74827429292E-02  0.10209036959E+01  0.10206439858E+01 0.  0.
     999903    2    3    3    0    0 -0.66217220083E-01  0.11476481036E-01  0.10971619500E+00  0.13018801601E+00  0.19870737625E-01 0.  0.
         14    1    1    2    0    0 -0.55247404097E-02 -0.21064104079E-01  0.74827429292E-02  0.23026304068E-01  0.00000000000E+00 0. -1.
     999901    1    3    3    0    0  0.71741960492E-01  0.95876230434E-02 -0.11719893793E+00  0.89071567992E+00  0.88000000000E+00 0.  1.
        -11    1    4    4    0    0 -0.24021820429E-01  0.48431956708E-03  0.23714328299E-01  0.33762596313E-01  0.51100000000E-03 0.  1.
         11    1    4    4    0    0 -0.42195399654E-01  0.10992161469E-01  0.86001866704E-01  0.96425419695E-01  0.51100000000E-03 0. -1.
</event>
<event>
 8    1  0.1088021E+005  0.1043930E+01  0.7957747E-01            NaN
         13   -1    0    0    0    0  0.00000000000E+00  0.00000000000E+00  0.74505805969E-08  0.10566000000E+00  0.10566000000E+00 0. -1.
     999900   -1    0    0    0    0 -0.00000000000E+00 -0.00000000000E+00 -0.74505805969E-08  0.93827000000E+00  0.93827000000E+00 0. -1.
     999902    2    1    2    0    0  0.16070808899E-01  0.17103190654E-01 -0.15574675902E-03  0.10204605670E+01  0.10201906461E+01 0.  0.
     999903    2    3    3    0    0 -0.24969187820E-01 -0.14102376020E-02 -0.12612733894E+00  0.13035053424E+00  0.21394088838E-01 0.  0.
         14    1    1    2    0    0 -0.16070808899E-01 -0.17103190654E-01  0.15574675902E-03  0.23469433019E-01  0.00000000000E+00 0. -1.
     999901    1    3    3    0    0  0.41039996719E-01  0.18513428256E-01  0.12597159218E+00  0.89011003274E+00  0.88000000000E+00 0.  1.
        -11    1    4    4    0    0 -0.13348578066E-01 -0.79493183689E-02 -0.97919787352E-01  0.99145963483E-01  0.51100000000E-03 0. -1.
         11    1    4    4    0    0 -0.11620609754E-01  0.65390807669E-02 -0.28207551587E-01  0.31204570753E-01  0.51100000000E-03 0.  1.
</event>
<event>
 8    1  0.1088021E+005  0.1043930E+01  0.7957747E-01            NaN
         13   -1    0    0    0    0  0.00000000000E+00  0.00000000000E+00  0.74505805969E-08  0.10566000000E+00  0.10566000000E+00 0. -1.
     999900   -1    0    0    0    0 -0.00000000000E+00 -0.00000000000E+00 -0.74505805969E-08  0.93827000000E+00  0.93827000000E+00 0.  1.
     999902    2    1    2    0    0  0.25486322034E-02 -0.22617378335E-01 -0.92047272731E-02  0.10193786592E+01  0.10190829616E+01 0.  0.
     999903    2    3    3    0    0  0.11014815967E+00 -0.32650840463E-01  0.58212591746E-01  0.13020858351E+00  0.19153979225E-01 0.  0.
         14    1    1    2    0    0 -0.25486322034E-02  0.22617378335E-01  0.92047272731E-02  0.24551340758E-01  0.00000000000E+00 0. -1.
     999901    1    3    3    0    0 -0.10759952747E+00  0.10033462128E-01 -0.67417319019E-01  0.88917007573E+00  0.88000000000E+00 0.  1.
        -11    1    4    4    0    0  0.72854396342E-01 -0.17517292334E-01  0.28459278861E-01  0.80154914206E-01  0.51100000000E-03 0. -1.
         11    1    4    4    0    0  0.37293763329E-01 -0.15133548129E-01  0.29753312885E-01  0.50053669304E-01  0.51100000000E-03 0.  1.
</event>
<event>
 8    1  0.1088021E+005  0.1043930E+01  0.7957747E-01            NaN
         13   -1    0    0    0    0  0.00000000000E+00  0.00000000000E+00  0.74505805969E-08  0.10566000000E+00  0.10566000000E+00 0. -1.
     999900   -1    0    0    0    0 -0.00000000000E+00 -0.00000000000E+00 -0.74505805969E-08  0.93827000000E+00  0.93827000000E+00 0. -1.
     999902    2    1    2    0    0  0.35166735010E-02 -0.96161882642E-02 -0.20859398841E-01  0.10206931201E+01  0.10204285829E+01 0.  0.
     999903    2    3    3    0    0  0.86374214869E-01  0.32174716712E-01  0.88222480280E-01  0.12911546879E+00  0.19795980996E-01 0.  0.
         14    1    1    2    0    0 -0.35166735010E-02  0.96161882642E-02  0.20859398841E-01  0.23236879938E-01  0.00000000000E+00 0. -1.
     999901    1    3    3    0    0 -0.82857541368E-01 -0.41790904976E-01 -0.10908187912E+00  0.89157765127E+00  0.88000000000E+00 0.  1.
        -11    1    4    4    0    0  0.67329278484E-01  0.18792326123E-01  0.74172006440E-01  0.10192218072E+00  0.51100000000E-03 0. -1.
         11    1    4    4    0    0  0.19044936385E-01  0.13382390589E-01  0.14050473839E-01  0.27193288067E-01  0.51100000000E-03 0.  1.
</event>
<event>
 8    1  0.1088021E+005  0.1043930E+01  0.7957747E-01            NaN
         13   -1    0    0    0    0  0.00000000000E+00  0.00000000000E+00  0.74505805969E-08  0.10566000000E+00  0.10566000000E+00 0.  1.
     999900   -1    0    0    0    0 -0.00000000000E+00 -0.00000000000E+00 -0.74505805969E-08  0.93827000000E+00  0.93827000000E+00 0.  1.
     999902    2    1    2    0    0  0.89795550450E-02  0.13850272200E-03 -0.22706207953E-01  0.10195123123E+01  0.10192198642E+01 0.  0.
     999903    2    3    3    0    0  0.10111111639E+00  0.64767291806E-01 -0.51321272074E-01  0.13188405293E+00  0.18473508211E-01 0.  0.
         14    1    1    2    0    0 -0.89795550450E-02 -0.13850272200E-03  0.22706207953E-01  0.24417687675E-01  0.00000000000E+00 0.  1.
     999901    1    3    3    0    0 -0.92131561344E-01 -0.64628789084E-01  0.28615064121E-01  0.88762825939E+00  0.88000000000E+00 0. -1.
        -11    1    4    4    0    0  0.66655489149E-01  0.52039800074E-01 -0.32373367604E-01  0.90550489101E-01  0.51100000000E-03 0.  1.
         11    1    4    4    0    0  0.34455627240E-01  0.12727491732E-01 -0.18947904470E-01  0.41333563833E-01  0.51100000000E-03 0. -1.
</event>
<event>
 8    1  0.1088021E+005  0.1043930E+01  0.7957747E-01            NaN
         13   -1    0    0    0    0  0.00000000000E+00  0.00000000000E+00  0.74505805969E-08  0.10566000000E+00  0.10566000000E+00 0.  1.
     999900   -1    0    0    0    0 -0.00000000000E+00 -0.00000000000E+00 -0.74505805969E-08  0.93827000000E+00  0.93827000000E+00 0. -1.
     999902    2    1    2    0    0  0.12328078361E-01  0.19053301365E-01  0.97473801814E-02  0.10192313922E+01  0.10189320927E+01 0.  0.
     999903    2    3    3    0    0  0.38738399717E-01 -0.92793415363E-01  0.78523782987E-01  0.12909803883E+00  0.19724035818E-01 0.  0.
         14    1    1    2    0    0 -0.12328078361E-01 -0.19053301365E-01 -0.97473801814E-02  0.24698607842E-01  0.00000000000E+00 0. -1.
     999901    1    3    3    0    0 -0.26410321356E-01  0.11184671673E+00 -0.68776402805E-01  0.89013335332E+00  0.88000000000E+00 0. -1.
        -11    1    4    4    0    0  0.16987602102E-01 -0.19230705265E-01  0.22118016150E-01  0.33880177236E-01  0.51100000000E-03 0. -1.
         11    1    4    4    0    0  0.21750797615E-01 -0.73562710097E-01  0.56405766837E-01  0.95217861597E-01  0.51100000000E-03 0.  1.
</event>
<event>
 8    1  0.1088021E+005  0.1043930E+01  0.7957747E-01            NaN
         13   -1    0    0    0    0  0.00000000000E+00  0.00000000000E+00  0.74505805969E-08  0.10566000000E+00  0.10566000000E+00 0. -1.
     999900   -1    0    0    0    0 -0.00000000000E+00 -0.00000000000E+00 -0.74505805969E-08  0.93827000000E+00  0.93827000000E+00 0. -1.
     999902    2    1    2    0    0  0.10394508168E-02  0.19004331194E-01 -0.89864508429E-02  0.10228824025E+01  0.10226658340E+01 0.  0.
     999903    2    3    3    0    0 -0.11446027767E+00 -0.61292670176E-01  0.69432484933E-02  0.13156789513E+00  0.20098650430E-01 0.  0.
         14    1    1    2    0    0 -0.10394508168E-02 -0.19004331194E-01  0.89864508429E-02  0.21047597508E-01  0.00000000000E+00 0.  1.
     999901    1    3    3    0    0  0.11549972848E+00  0.80297001370E-01 -0.15929699336E-01  0.89131450736E+00  0.88000000000E+00 0. -1.
        -11    1    4    4    0    0 -0.10758315927E+00 -0.55162010613E-01  0.11173931044E-01  0.12141705576E+00  0.51100000000E-03 0.  1.
         11    1    4    4    0    0 -0.68771183941E-02 -0.61306595628E-02 -0.42306825504E-02  0.10150839370E-01  0.51100000000E-03 0. -1.
</event>
<event>
 8    1  0.1088021E+005  0.1043930E+01  0.7957747E-01            NaN
         13   -1    0    0    0    0  0.00000000000E+00  0.00000000000E+00  0.74505805969E-08  0.10566000000E+00  0.10566000000E+00 0. -1.
     999900   -1    0    0    0    0 -0.00000000000E+00 -0.00000000000E+00 -0.74505805969E-08  0.93827000000E+00  0.93827000000E+00 0.  1.
     999902    2    1    2    0    0  0.77231942835E-02 -0.22124835118E-01  0.40233676353E-02  0.10201530459E+01  0.10198759207E+01 0.  0.
     999903    2    3    3    0    0  0.53988752345E-01  0.33721824799E-01  0.11230936919E+00  0.13055470428E+00  0.19472790084E-01 0.  0.
         14    1    1    2    0    0 -0.77231942835E-02  0.22124835118E-01 -0.40233676353E-02  0.23776954095E-01  0.00000000000E+00 0. -1.
     999901    1    3    3    0    0 -0.46265558061E-01 -0.55846659917E-01 -0.10828600156E+00  0.88959834162E+00  0.88000000000E+00 0.  1.
        -11    1    4    4    0    0  0.25926020004E-01  0.27326599813E-01  0.67325790725E-01  0.77148718644E-01  0.51100000000E-03 0. -1.
         11    1    4    4    0    0  0.28062732340E-01  0.63952249858E-02  0.44983578468E-01  0.53405985637E-01  0.51100000000E-03 0.  1.
</event>
<event>
 8    1  0.1088021E+005  0.1043930E+01  0.7957747E-01            NaN
         13   -1    0    0    0    0  0.00000000000E+00  0.00000000000E+00  0.74505805969E-08  0.10566000000E+00  0.10566000000E+00 0.  1.
     999900   -1    0    0    0    0 -0.00000000000E+00 -0.00000000000E+00 -0.74505805969E-08  0.93827000000E+00  0.93827000000E+00 0. -1.
     999902    2    1    2    0    0  0.20609205540E-01 -0.10752559927E-01  0.91628069540E-02  0.10189437252E+01  0.10186373256E+01 0.  0.
     999903    2    3    3    0    0  0.10686052346E+00  0.65915583220E-01  0.32281303072E-01  0.13110829061E+00  0.19577174277E-01 0.  0.
         14    1    1    2    0    0 -0.20609205540E-01  0.10752559927E-01 -0.91628069540E-02  0.24986274818E-01  0.00000000000E+00 0.  1.
     999901    1    3    3    0    0 -0.86251317924E-01 -0.76668143147E-01 -0.23118496118E-01  0.88783543457E+00  0.88000000000E+00 0.  1.
        -11    1    4    4    0    0  0.79373650629E-01  0.40335079027E-01  0.27882965456E-01  0.93299602882E-01  0.51100000000E-03 0.  1.
         11    1    4    4    0    0  0.27486872835E-01  0.25580504193E-01  0.43983376161E-02  0.37808687729E-01  0.51100000000E-03 0. -1.
</event>
<event>
 8    1  0.1088021E+005  0.1043930E+01  0.7957747E-01            NaN
         13   -1    0    0    0    0  0.00000000000E+00  0.00000000000E+00  0.74505805969E-08  0.10566000000E+00  0.10566000000E+00 0.  1.
     999900   -1    0    0    0    0 -0.00000000000E+00 -0.00000000000E+00 -0.74505805969E-08  0.93827000000E+00  0.93827000000E+00 0.  1.
     999902    2    1    2    0    0 -0.15043543326E-01 -0.18806452636E-01  0.41074933205E-02  0.10194992334E+01  0.10192064680E+01 0.  0.
     999903    2    3    3    0    0  0.15956943101E-01 -0.84458452977E-02 -0.12632138729E+00  0.12928573918E+00  0.20778670156E-01 0.  0.
         14    1    1    2    0    0  0.15043543326E-01  0.18806452636E-01 -0.41074933205E-02  0.24430766626E-01  0.00000000000E+00 0. -1.
     999901    1    3    3    0    0 -0.31000486427E-01 -0.10360607338E-01  0.13042888061E+00  0.89021349419E+00  0.88000000000E+00 0. -1.
        -11    1    4    4    0    0 -0.43900294980E-02  0.12930921633E-02 -0.30367810681E-01  0.30714971804E-01  0.51100000000E-03 0. -1.
         11    1    4    4    0    0  0.20346972599E-01 -0.97389374610E-02 -0.95953576608E-01  0.98570767379E-01  0.51100000000E-03 0.  1.
</event>
<event>
 8    1  0.1088021E+005  0.1043930E+01  0.7957747E-01            NaN
         13   -1    0    0    0    0  0.00000000000E+00  0.00000000000E+00  0.74505805969E-08  0.10566000000E+00  0.10566000000E+00 0. -1.
     999900   -1    0    0    0    0 -0.00000000000E+00 -0.00000000000E+00 -0.74505805969E-08  0.93827000000E+00  0.93827000000E+00 0. -1.
     999902    2    1    2    0    0  0.20217365246E-01 -0.11347981128E-01 -0.23603712155E-02  0.10206257110E+01  0.10203596190E+01 0.  0.
     999903    2    3    3    0    0  0.45786854998E-01 -0.58048236498E-01 -0.10839300227E+00  0.13266308144E+00  0.19606539375E-01 0.  0.
         14    1    1    2    0    0 -0.20217365246E-01  0.11347981128E-01  0.23603712155E-02  0.23304288993E-01  0.00000000000E+00 0. -1.
     999901    1    3    3    0    0 -0.25569489752E-01  0.46700255371E-01  0.10603263105E+00  0.88796262957E+00  0.88000000000E+00 0. -1.
        -11    1    4    4    0    0  0.10799509702E-01 -0.12876852176E-01 -0.12178291161E-01  0.20760891801E-01  0.51100000000E-03 0. -1.
         11    1    4    4    0    0  0.34987345295E-01 -0.45171384323E-01 -0.96214711105E-01  0.11190218964E+00  0.51100000000E-03 0.  1.
</event>
<event>
 8    1  0.1088021E+005  0.1043930E+01  0.7957747E-01            NaN
         13   -1    0    0    0    0  0.00000000000E+00  0.00000000000E+00  0.74505805969E-08  0.10566000000E+00  0.10566000000E+00 0. -1.
     999900   -1    0    0    0    0 -0.00000000000E+00 -0.00000000000E+00 -0.74505805969E-08  0.93827000000E+00  0.93827000000E+00 0. -1.
     999902    2    1    2    0    0  0.13669724640E-01  0.74649903787E-02  0.17917626273E-01  0.10201891326E+01  0.10199128578E+01 0.  0.
     999903    2    3    3    0    0 -0.11341440694E+00  0.31806200617E-01  0.51711761670E-01  0.13008525407E+00  0.19328862655E-01 0.  0.
         14    1    1    2    0    0 -0.13669724640E-01 -0.74649903787E-02 -0.17917626273E-01  0.23740867388E-01  0.00000000000E+00 0. -1.
     999901    1    3    3    0    0  0.12708413158E+00 -0.24341210239E-01 -0.33794135397E-01  0.89010387855E+00  0.88000000000E+00 0. -1.
        -11    1    4    4    0    0 -0.11087473605E+00  0.33759622371E-01  0.48911815595E-01  0.12579962648E+00  0.51100000000E-03 0.  1.
         11    1    4    4    0    0 -0.25396708834E-02 -0.19534217534E-02  0.27999460755E-02  0.42856275816E-02  0.51100000000E-03 0. -1.
</event>
<event>
 8    1  0.1088021E+005  0.1043930E+01  0.7957747E-01            NaN
         13   -1    0    0    0    0  0.00000000000E+00  0.00000000000E+00  0.74505805969E-08  0.10566000000E+00  0.10566000000E+00 0.  1.
     999900   -1    0    0    0    0 -0.00000000000E+00 -0.00000000000E+00 -0.74505805969E-08  0.93827000000E+00  0.93827000000E+00 0. -1.
     999902    2    1    2    0    0  0.19535723489E-01 -0.89185557558E-02  0.10045991176E-01  0.10202212027E+01  0.10199456826E+01 0.  0.
     999903    2    3    3    0    0  0.10519903838E+00  0.73989317217E-01 -0.16320241914E-01  0.13179163481E+00  0.23694471342E-01 0.  0.
         14    1    1    2    0    0 -0.19535723489E-01  0.89185557558E-02 -0.10045991176E-01  0.23708797264E-01  0.00000000000E+00 0. -1.
     999901    1    3    3    0    0 -0.85663314887E-01 -0.82907872973E-01  0.26366233090E-01  0.88842956793E+00  0.88000000000E+00 0.  1.
        -11    1    4    4    0    0  0.74651259873E-01  0.61659823122E-01 -0.19235527924E-01  0.98716822495E-01  0.51100000000E-03 0.  1.
         11    1    4    4    0    0  0.30547778503E-01  0.12329494095E-01  0.29152860100E-02  0.33074812314E-01  0.51100000000E-03 0. -1.
</event>
<event>
 8    1  0.1088021E+005  0.1043930E+01  0.7957747E-01            NaN
         13   -1    0    0    0    0  0.00000000000E+00  0.00000000000E+00  0.74505805969E-08  0.10566000000E+00  0.10566000000E+00 0.  1.
     999900   -1    0    0    0    0 -0.00000000000E+00 -0.00000000000E+00 -0.74505805969E-08  0.93827000000E+00  0.93827000000E+00 0. -1.
     999902    2    1    2    0    0  0.22271436115E-01 -0.23112323689E-02 -0.51278197360E-03  0.10215330893E+01  0.10212875359E+01 0.  0.
     999903    2    3    3    0    0  0.73590003574E-01  0.42042658064E-01  0.10056608490E+00  0.13315377830E+00  0.20816280170E-01 0.  0.
         14    1    1    2    0    0 -0.22271436115E-01  0.23112323689E-02  0.51278197360E-03  0.22396910659E-01  0.00000000000E+00 0. -1.
     999901    1    3    3    0    0 -0.51318567459E-01 -0.44353890433E-01 -0.10107886687E+00  0.88837931104E+00  0.88000000000E+00 0. -1.
        -11    1    4    4    0    0  0.11028373249E-01  0.75233799955E-02  0.60469600488E-02  0.14664689220E-01  0.51100000000E-03 0. -1.
         11    1    4    4    0    0  0.62561630325E-01  0.34519278068E-01  0.94519124849E-01  0.11848908908E+00  0.51100000000E-03 0.  1.
</event>
<event>
 8    1  0.1088021E+005  0.1043930E+01  0.7957747E-01            NaN
         13   -1    0    0    0    0  0.00000000000E+00  0.00000000000E+00  0.74505805969E-08  0.10566000000E+00  0.10566000000E+00 0. -1.
     999900   -1    0    0    0    0 -0.00000000000E+00 -0.00000000000E+00 -0.74505805969E-08  0.93827000000E+00  0.93827000000E+00 0.  1.
     999902    2    1    2    0    0  0.20366395307E-01 -0.11245467870E-01  0.73014660423E-02  0.10195463577E+01  0.10192547343E+01 0.  0.
     999903    2    3    3    0    0 -0.37249671941E-01  0.76052343141E-01 -0.90724540466E-01  0.12794688655E+00  0.31112161240E-01 0.  0.
         14    1    1    2    0    0 -0.20366395307E-01  0.11245467870E-01 -0.73014660423E-02  0.24383642299E-01  0.00000000000E+00 0.  1.
     999901    1    3    3    0    0  0.57616067248E-01 -0.87297811010E-01  0.98026006509E-01  0.89159947116E+00  0.88000000000E+00 0. -1.
        -11    1    4    4    0    0  0.48544343576E-03  0.31496854767E-01 -0.26720230945E-01  0.41310039679E-01  0.51100000000E-03 0.  1.
         11    1    4    4    0    0 -0.37735115377E-01  0.44555488374E-01 -0.64004309521E-01  0.86636846867E-01  0.51100000000E-03 0. -1.
</event>
<event>
 8    1  0.1088021E+005  0.1043930E+01  0.7957747E-01            NaN
         13   -1    0    0    0    0  0.00000000000E+00  0.00000000000E+00  0.74505805969E-08  0.10566000000E+00  0.10566000000E+00 0. -1.
     999900   -1    0    0    0    0 -0.00000000000E+00 -0.00000000000E+00 -0.74505805969E-08  0.93827000000E+00  0.93827000000E+00 0.  1.
     999902    2    1    2    0    0 -0.16088422710E-01  0.17300355950E-01  0.30973668071E-03  0.10203029901E+01  0.10200293897E+01 0.  0.
     999903    2    3    3    0    0 -0.88873476033E-01  0.37058657865E-01 -0.88734528845E-01  0.13259981012E+00  0.20905840540E-01 0.  0.
         14    1    1    2    0    0  0.16088422710E-01 -0.17300355950E-01 -0.30973668071E-03  0.23627009927E-01  0.00000000000E+00 0. -1.
     999901    1    3    3    0    0  0.72785053323E-01 -0.19758301915E-01  0.89044265525E-01  0.88770317996E+00  0.88000000000E+00 0. -1.
        -11    1    4    4    0    0 -0.79214340919E-01  0.25114961272E-01 -0.73130424813E-01  0.11069775626E+00  0.51100000000E-03 0. -1.
         11    1    4    4    0    0 -0.96591351142E-02  0.11943696592E-01 -0.15604104032E-01  0.21902053855E-01  0.51100000000E-03 0.  1.
</event>
<event>
 8    1  0.1088021E+005  0.1043930E+01  0.7957747E-01            NaN
         13   -1    0    0    0    0  0.00000000000E+00  0.00000000000E+00  0.74505805969E-08  0.10566000000E+00  0.10566000000E+00 0.  1.
     999900   -1    0    0    0    0 -0.00000000000E+00 -0.00000000000E+00 -0.74505805969E-08  0.93827000000E+00  0.93827000000E+00 0. -1.
     999902    2    1    2    0    0 -0.66360201519E-02 -0.19487121925E-01 -0.10008240678E-01  0.10210400554E+01  0.10207834467E+01 0.  0.
     999903    2    3    3    0    0  0.12007594357E+00 -0.44676432894E-01 -0.22370526439E-01  0.13152150623E+00  0.19576778785E-01 0.  0.
         14    1    1    2    0    0  0.66360201519E-02  0.19487121925E-01  0.10008240678E-01  0.22889944645E-01  0.00000000000E+00 0. -1.
     999901    1    3    3    0    0 -0.12671196372E+00  0.25189310970E-01  0.12362285760E-01  0.88951854913E+00  0.88000000000E+00 0.  1.
        -11    1    4    4    0    0  0.18476736569E-01 -0.12230244387E-01 -0.94201982397E-02  0.24082564811E-01  0.51100000000E-03 0.  1.
         11    1    4    4    0    0  0.10159920700E+00 -0.32446188508E-01 -0.12950328199E-01  0.10743894142E+00  0.51100000000E-03 0. -1.
</event>
<event>
 8    1  0.1088021E+005  0.1043930E+01  0.7957747E-01            NaN
         13   -1    0    0    0    0  0.00000000000E+00  0.00000000000E+00  0.74505805969E-08  0.10566000000E+00  0.10566000000E+00 0.  1.
     999900   -1    0    0    0    0 -0.00000000000E+00 -0.00000000000E+00 -0.74505805969E-08  0.93827000000E+00  0.93827000000E+00 0. -1.
     999902    2    1    2    0    0 -0.93610565365E-02 -0.20188439124E-01 -0.82172709977E-02  0.10202081536E+01  0.10199323265E+01 0.  0.
     999903    2    3    3    0    0 -0.48250488166E-03 -0.13013742217E+00 -0.20444756743E-01  0.13323739932E+00  0.19955827171E-01 0.  0.
         14    1    1    2    0    0  0.93610565365E-02  0.20188439124E-01  0.82172709977E-02  0.23721846395E-01  0.00000000000E+00 0.  1.
     999901    1    3    3    0    0 -0.88785516548E-02  0.10994898305E+00  0.12227485745E-01  0.88697075429E+00  0.88000000000E+00 0.  1.
        -11    1    4    4    0    0 -0.34422616053E-02 -0.78943527696E-01 -0.30266715544E-02  0.79078135991E-01  0.51100000000E-03 0.  1.
         11    1    4    4    0    0  0.29597567236E-02 -0.51193894476E-01 -0.17418085188E-01  0.54159263327E-01  0.51100000000E-03 0. -1.
</event>
<event>
 8    1  0.1088021E+005  0.1043930E+01  0.7957747E-01            NaN
         13   -1    0    0    0    0  0.00000000000E+00  0.00000000000E+00  0.74505805969E-08  0.10566000000E+00  0.10566000000E+00 0.  1.
     999900   -1    0    0    0    0 -0.00000000000E+00 -0.00000000000E+00 -0.74505805969E-08  0.93827000000E+00  0.93827000000E+00 0. -1.
     999902    2    1    2    0    0 -0.60908022958E-02  0.13116737437E-01 -0.18782285382E-01  0.10202251288E+01  0.10199497010E+01 0.  0.
     999903    2    3    3    0    0  0.18586919291E-01  0.70901984946E-01  0.10476896897E+00  0.12937551344E+00  0.19721094795E-01 0.  0.
         14    1    1    2    0    0  0.60908022958E-02 -0.13116737437E-01  0.18782285382E-01  0.23704871183E-01  0.00000000000E+00 0.  1.
     999901    1    3    3    0    0 -0.24677721587E-01 -0.57785247508E-01 -0.12355125435E+00  0.89084961538E+00  0.88000000000E+00 0.  1.
        -11    1    4    4    0    0  0.19729742193E-01  0.41085627299E-01  0.56058939650E-01  0.72250656282E-01  0.51100000000E-03 0.  1.
         11    1    4    4    0    0 -0.11428229018E-02  0.29816357647E-01  0.48710029320E-01  0.57124857154E-01  0.51100000000E-03 0. -1.
</event>
<event>
 8    1  0.1088021E+005  0.1043930E+01  0.7957747E-01            NaN
         13   -1    0    0    0    0  0.00000000000E+00  0.00000000000E+00  0.74505805969E-08  0.10566000000E+00  0.10566000000E+00 0.  1.
     999900   -1    0    0    0    0 -0.00000000000E+00 -0.00000000000E+00 -0.74505805969E-08  0.93827000000E+00  0.93827000000E+00 0.  1.
     999902    2    1    2    0    0  0.29256026990E-02 -0.14851472801E-01 -0.14048450724E-01  0.10232785022E+01  0.10230700898E+01 0.  0.
     999903    2    3    3    0    0  0.10285484129E+00  0.76790544388E-01  0.24544675228E-01  0.13205824800E+00  0.19000886799E-01 0.  0.
         14    1    1    2    0    0 -0.29256026990E-02  0.14851472801E-01  0.14048450724E-01  0.20651497846E-01  0.00000000000E+00 0.  1.
     999901    1    3    3    0    0 -0.99929238591E-01 -0.91642017189E-01 -0.38593125952E-01  0.89122025415E+00  0.88000000000E+00 0. -1.
        -11    1    4    4    0    0  0.53073135925E-01  0.39869871992E-01  0.30369070474E-02  0.66451850050E-01  0.51100000000E-03 0.  1.
         11    1    4    4    0    0  0.49781705365E-01  0.36920672396E-01  0.21507768180E-01  0.65606397953E-01  0.51100000000E-03 0. -1.
</event>
<event>
 8    1  0.1088021E+005  0.1043930E+01  0.7957747E-01            NaN
         13   -1    0    0    0    0  0.00000000000E+00  0.00000000000E+00  0.74505805969E-08  0.10566000000E+00  0.10566000000E+00 0. -1.
     999900   -1    0    0    0    0 -0.00000000000E+00 -0.00000000000E+00 -0.74505805969E-08  0.93827000000E+00  0.93827000000E+00 0. -1.
     999902    2    1    2    0    0  0.65630499749E-02 -0.13688075157E-01 -0.17781183525E-01  0.10205503611E+01  0.10202825256E+01 0.  0.
     999903    2    3    3    0    0  0.73748373166E-01  0.98703712355E-01  0.33373602128E-01  0.12939235401E+00  0.21150380113E-01 0.  0.
         14    1    1    2    0    0 -0.65630499749E-02  0.13688075157E-01  0.17781183525E-01  0.23379638877E-01  0.00000000000E+00 0.  1.
     999901    1    3    3    0    0 -0.67185323192E-01 -0.11239178751E+00 -0.51154785653E-01  0.89115800712E+00  0.88000000000E+00 0. -1.
        -11    1    4    4    0    0  0.29278795778E-01  0.44981615549E-01  0.43396845213E-02  0.53848747454E-01  0.51100000000E-03 0.  1.
         11    1    4    4    0    0  0.44469577388E-01  0.53722096806E-01  0.29033917607E-01  0.75543606552E-01  0.51100000000E-03 0. -1.
</event>
<event>
 8    1  0.1088021E+005  0.1043930E+01  0.7957747E-01            NaN
         13   -1    0    0    0    0  0.00000000000E+00  0.00000000000E+00  0.74505805969E-08  0.10566000000E+00  0.10566000000E+00 0. -1.
     999900   -1    0    0    0    0 -0.00000000000E+00 -0.00000000000E+00 -0.74505805969E-08  0.93827000000E+00  0.93827000000E+00 0. -1.
     999902    2    1    2    0    0 -0.16083051354E-02 -0.21024790024E-01  0.12253768364E-01  0.10195418209E+01  0.10192500877E+01 0.  0.
     999903    2    3    3    0    0  0.61954865510E-01  0.76993922239E-01 -0.77642783703E-01  0.12728102119E+00  0.20139192432E-01 0.  0.
         14    1    1    2    0    0  0.16083051354E-02  0.21024790024E-01 -0.12253768364E-01  0.24388179105E-01  0.00000000000E+00 0.  1.
     999901    1    3    3    0    0 -0.63563170645E-01 -0.98018712263E-01  0.89896552068E-01  0.89226079970E+00  0.88000000000E+00 0.  1.
        -11    1    4    4    0    0  0.32441658954E-01  0.55058431580E-01 -0.52840353943E-01  0.82923194883E-01  0.51100000000E-03 0.  1.
         11    1    4    4    0    0  0.29513206556E-01  0.21935490659E-01 -0.24802429760E-01  0.44357826307E-01  0.51100000000E-03 0. -1.
</event>
<event>
 8    1  0.1088021E+005  0.1043930E+01  0.7957747E-01            NaN
         13   -1    0    0    0    0  0.00000000000E+00  0.00000000000E+00  0.74505805969E-08  0.10566000000E+00  0.10566000000E+00 0.  1.
     999900   -1    0    0    0    0 -0.00000000000E+00 -0.00000000000E+00 -0.74505805969E-08  0.93827000000E+00  0.93827000000E+00 0.  1.
     999902    2    1    2    0    0 -0.15805641418E-01  0.18218858997E-01 -0.55975246751E-02  0.10191696000E+01  0.10188687826E+01 0.  0.
     999903    2    3    3    0    0 -0.11345620227E+00 -0.44155524669E-01 -0.43199541672E-01  0.13077773411E+00  0.20361609594E-01 0.  0.
         14    1    1    2    0    0  0.15805641418E-01 -0.18218858997E-01  0.55975246751E-02  0.24760399962E-01  0.00000000000E+00 0.  1.
     999901    1    3    3    0    0  0.97650560850E-01  0.62374383666E-01  0.37602016997E-01  0.88839186593E+00  0.88000000000E+00 0. -1.
        -11    1    4    4    0    0 -0.29724594334E-01 -0.26773630445E-02 -0.77791405840E-02  0.30846327665E-01  0.51100000000E-03 0. -1.
         11    1    4    4    0    0 -0.83731607934E-01 -0.41478161624E-01 -0.35420401088E-01  0.99931406441E-01  0.51100000000E-03 0.  1.
</event>
<event>
 8    1  0.1088021E+005  0.1043930E+01  0.7957747E-01            NaN
         13   -1    0    0    0    0  0.00000000000E+00  0.00000000000E+00  0.74505805969E-08  0.10566000000E+00  0.10566000000E+00 0. -1.
     999900   -1    0    0    0    0 -0.00000000000E+00 -0.00000000000E+00 -0.74505805969E-08  0.93827000000E+00  0.93827000000E+00 0.  1.
     999902    2    1    2    0    0  0.21273077745E-01 -0.11987195768E-01  0.27222896971E-02  0.10193607599E+01  0.10190646256E+01 0.  0.
     999903    2    3    3    0    0  0.14494093238E-01  0.94825357752E-01  0.84062590963E-01  0.12915228944E+00  0.20294517908E-01 0.  0.
         14    1    1    2    0    0 -0.21273077745E-01  0.11987195768E-01 -0.27222896971E-02  0.24569240125E-01  0.00000000000E+00 0. -1.
     999901    1    3    3    0    0  0.67789845069E-02 -0.10681255352E+00 -0.81340301266E-01  0.89020847043E+00  0.88000000000E+00 0.  1.
        -11    1    4    4    0    0  0.68273440890E-02  0.70496199490E-01  0.71761255746E-01  0.10082790148E+00  0.51100000000E-03 0.  1.
         11    1    4    4    0    0  0.76667491494E-02  0.24329158262E-01  0.12301335218E-01  0.28324387961E-01  0.51100000000E-03 0. -1.
</event>
<event>
 8    1  0.1088021E+005  0.1043930E+01  0.7957747E-01            NaN
         13   -1    0    0    0    0  0.00000000000E+00  0.00000000000E+00  0.74505805969E-08  0.10566000000E+00  0.10566000000E+00 0. -1.
     999900   -1    0    0    0    0 -0.00000000000E+00 -0.00000000000E+00 -0.74505805969E-08  0.93827000000E+00  0.93827000000E+00 0. -1.
     999902    2    1    2    0    0  0.85871452695E-02 -0.80786634793E-02  0.19763897337E-01  0.10209166233E+01  0.10206572080E+01 0.  0.
     999903    2    3    3    0    0 -0.83492347078E-01 -0.82007331164E-01 -0.53015328853E-01  0.13005137170E+00  0.20163328130E-01 0.  0.
         14    1    1    2    0    0 -0.85871452695E-02  0.80786634793E-02 -0.19763897337E-01  0.23013376663E-01  0.00000000000E+00 0.  1.
     999901    1    3    3    0    0  0.92079492348E-01  0.73928667684E-01  0.72779226190E-01  0.89086525164E+00  0.88000000000E+00 0.  1.
        -11    1    4    4    0    0 -0.47227485541E-01 -0.59632953076E-01 -0.36102223735E-01  0.84203065043E-01  0.51100000000E-03 0. -1.
         11    1    4    4    0    0 -0.36264861538E-01 -0.22374378087E-01 -0.16913105119E-01  0.45848306652E-01  0.51100000000E-03 0.  1.
</event>
<event>
 8    1  0.1088021E+005  0.1043930E+01  0.7957747E-01            NaN
         13   -1    0    0    0    0  0.00000000000E+00  0.00000000000E+00  0.74505805969E-08  0.10566000000E+00  0.10566000000E+00 0. -1.
     999900   -1    0    0    0    0 -0.00000000000E+00 -0.00000000000E+00 -0.74505805969E-08  0.93827000000E+00  0.93827000000E+00 0.  1.
     999902    2    1    2    0    0 -0.11481710035E-01  0.12732396012E-01  0.17104087860E-01  0.10197123743E+01  0.10194247559E+01 0.  0.
     999903    2    3    3    0    0 -0.31276166423E-01 -0.97581498123E-01  0.78310288225E-01  0.13049520469E+00  0.19903513351E-01 0.  0.
         14    1    1    2    0    0  0.11481710035E-01 -0.12732396012E-01 -0.17104087860E-01  0.24217625711E-01  0.00000000000E+00 0.  1.
     999901    1    3    3    0    0  0.19794456388E-01  0.11031389414E+00 -0.61206200366E-01  0.88921716960E+00  0.88000000000E+00 0.  1.
        -11    1    4    4    0    0 -0.10029229987E-01 -0.28942542674E-01  0.35351440780E-01  0.46778645948E-01  0.51100000000E-03 0. -1.
         11    1    4    4    0    0 -0.21246936436E-01 -0.68638955449E-01  0.42958847446E-01  0.83716558744E-01  0.51100000000E-03 0.  1.
</event>
<event>
 8    1  0.1088021E+005  0.1043930E+01  0.7957747E-01            NaN
         13   -1    0    0    0    0  0.00000000000E+00  0.00000000000E+00  0.74505805969E-08  0.10566000000E+00  0.10566000000E+00 0.  1.
     999900   -1    0    0    0    0 -0.00000000000E+00 -0.00000000000E+00 -0.74505805969E-08  0.93827000000E+00  0.93827000000E+00 0. -1.
     999902    2    1    2    0    0 -0.32046111718E-02  0.16325157560E-01 -0.16466909171E-01  0.10205218946E+01  0.10202533989E+01 0.  0.
     999903    2    3    3    0    0 -0.18051878014E-01  0.11263361602E+00 -0.66896728571E-01  0.13370797543E+00  0.19759773294E-01 0.  0.
         14    1    1    2    0    0  0.32046111718E-02 -0.16325157560E-01  0.16466909171E-01  0.23408105429E-01  0.00000000000E+00 0. -1.
     999901    1    3    3    0    0  0.14847266842E-01 -0.96308458464E-01  0.50429819400E-01  0.88681391914E+00  0.88000000000E+00 0.  1.
        -11    1    4    4    0    0 -0.19939733939E-01  0.62974059598E-01 -0.37133620395E-01  0.75779232356E-01  0.51100000000E-03 0. -1.
         11    1    4    4    0    0  0.18878559249E-02  0.49659556426E-01 -0.29763108176E-01  0.57928743071E-01  0.51100000000E-03 0.  1.
</event>
<event>
 8    1  0.1088021E+005  0.1043930E+01  0.7957747E-01            NaN
         13   -1    0    0    0    0  0.00000000000E+00  0.00000000000E+00  0.74505805969E-08  0.10566000000E+00  0.10566000000E+00 0. -1.
     999900   -1    0    0    0    0 -0.00000000000E+00 -0.00000000000E+00 -0.74505805969E-08  0.93827000000E+00  0.93827000000E+00 0.  1.
     999902    2    1    2    0    0  0.21915224447E-01  0.10373738298E-01 -0.39811249703E-02  0.10193588611E+01  0.10190626806E+01 0.  0.
     999903    2    3    3    0    0  0.33572565590E-01 -0.37317697405E-01  0.11784342788E+00  0.12961081348E+00  0.19803074933E-01 0.  0.
         14    1    1    2    0    0 -0.21915224447E-01 -0.10373738298E-01  0.39811249703E-02  0.24571138860E-01  0.00000000000E+00 0. -1.
     999901    1    3    3    0    0 -0.11657341143E-01  0.47691435702E-01 -0.12182455285E+00  0.88974804766E+00  0.88000000000E+00 0.  1.
        -11    1    4    4    0    0  0.17830375255E-01 -0.10364064023E-01  0.65424254996E-01  0.68599784020E-01  0.51100000000E-03 0. -1.
         11    1    4    4    0    0  0.15742190335E-01 -0.26953633382E-01  0.52419172881E-01  0.61011029458E-01  0.51100000000E-03 0.  1.
</event>
<event>
 8    1  0.1088021E+005  0.1043930E+01  0.7957747E-01            NaN
         13   -1    0    0    0    0  0.00000000000E+00  0.00000000000E+00  0.74505805969E-08  0.10566000000E+00  0.10566000000E+00 0.  1.
     999900   -1    0    0    0    0 -0.00000000000E+00 -0.00000000000E+00 -0.74505805969E-08  0.93827000000E+00  0.93827000000E+00 0.  1.
     999902    2    1    2    0    0  0.76762541178E-02 -0.21551682684E-01  0.56361993305E-02  0.10203680254E+01  0.10200959468E+01 0.  0.
     999903    2    3    3    0    0 -0.36304284313E-01 -0.77468372872E-01 -0.97421497162E-01  0.13150253907E+00  0.21968609805E-01 0.  0.
         14    1    1    2    0    0 -0.76762541178E-02  0.21551682684E-01 -0.56361993305E-02  0.23561974592E-01  0.00000000000E+00 0. -1.
     999901    1    3    3    0    0  0.43980538431E-01  0.55916690189E-01  0.10305769649E+00  0.88886548634E+00  0.88000000000E+00 0. -1.
        -11    1    4    4    0    0 -0.59666645377E-02 -0.35008465926E-01 -0.47249585199E-01  0.59109882378E-01  0.51100000000E-03 0.  1.
         11    1    4    4    0    0 -0.30337619775E-01 -0.42459906947E-01 -0.50171911962E-01  0.72392656689E-01  0.51100000000E-03 0. -1.
</event>
<event>
 8    1  0.1088021E+005  0.1043930E+01  0.7957747E-01            NaN
         13   -1    0    0    0    0  0.00000000000E+00  0.00000000000E+00  0.74505805969E-08  0.10566000000E+00  0.10566000000E+00 0.  1.
     999900   -1    0    0    0    0 -0.00000000000E+00 -0.00000000000E+00 -0.74505805969E-08  0.93827000000E+00  0.93827000000E+00 0.  1.
     999902    2    1    2    0    0  0.19014780640E-01  0.99798322192E-02 -0.18884247970E-01  0.10153332562E+01  0.10149304643E+01 0.  0.
     999903    2    3    3    0    0  0.59791446442E-01  0.51238030572E-01 -0.10102176972E+00  0.12960669125E+00  0.19802616351E-01 0.  0.
         14    1    1    2    0    0 -0.19014780640E-01 -0.99798322192E-02  0.18884247970E-01  0.28596743789E-01  0.00000000000E+00 0. -1.
     999901    1    3    3    0    0 -0.40776665801E-01 -0.41258198353E-01  0.82137521748E-01  0.88572656496E+00  0.88000000000E+00 0. -1.
        -11    1    4    4    0    0  0.46537283135E-01  0.27681276104E-01 -0.66429994580E-01  0.85704008478E-01  0.51100000000E-03 0.  1.
         11    1    4    4    0    0  0.13254163307E-01  0.23556754469E-01 -0.34591775138E-01  0.43902682768E-01  0.51100000000E-03 0. -1.
</event>
<event>
 8    1  0.1088021E+005  0.1043930E+01  0.7957747E-01            NaN
         13   -1    0    0    0    0  0.00000000000E+00  0.00000000000E+00  0.74505805969E-08  0.10566000000E+00  0.10566000000E+00 0. -1.
     999900   -1    0    0    0    0 -0.00000000000E+00 -0.00000000000E+00 -0.74505805969E-08  0.93827000000E+00  0.93827000000E+00 0.  1.
     999902    2    1    2    0    0 -0.23634499571E-01  0.28011570729E-02  0.54056822756E-04  0.10201300216E+01  0.10198523530E+01 0.  0.
     999903    2    3    3    0    0  0.10290563224E+00 -0.14224961442E-01 -0.72068577584E-01  0.12799552047E+00  0.19926231743E-01 0.  0.
         14    1    1    2    0    0  0.23634499571E-01 -0.28011570729E-02 -0.54056822756E-04  0.23799978425E-01  0.00000000000E+00 0. -1.
     999901    1    3    3    0    0 -0.12654013181E+00  0.17026118515E-01  0.72122634407E-01  0.89213450111E+00  0.88000000000E+00 0. -1.
        -11    1    4    4    0    0  0.22720413544E-01  0.13236661291E-02 -0.24628119537E-01  0.33537660571E-01  0.51100000000E-03 0.  1.
         11    1    4    4    0    0  0.80185218691E-01 -0.15548627571E-01 -0.47440458047E-01  0.94457859898E-01  0.51100000000E-03 0. -1.
</event>
<event>
 8    1  0.1088021E+005  0.1043930E+01  0.7957747E-01            NaN
         13   -1    0    0    0    0  0.00000000000E+00  0.00000000000E+00  0.74505805969E-08  0.10566000000E+00  0.10566000000E+00 0. -1.
     999900   -1    0    0    0    0 -0.00000000000E+00 -0.00000000000E+00 -0.74505805969E-08  0.93827000000E+00  0.93827000000E+00 0. -1.
     999902    2    1    2    0    0 -0.90374463639E-02 -0.67082910565E-02 -0.21079048473E-01  0.10200343332E+01  0.10197544009E+01 0.  0.
     999903    2    3    3    0    0  0.99820762239E-01 -0.23881530245E-01 -0.77996071180E-01  0.13133608456E+00  0.25125045804E-01 0.  0.
         14    1    1    2    0    0  0.90374463639E-02  0.67082910565E-02  0.21079048473E-01  0.23895666766E-01  0.00000000000E+00 0. -1.
     999901    1    3    3    0    0 -0.10885820860E+00  0.17173239189E-01  0.56917022707E-01  0.88869824868E+00  0.88000000000E+00 0.  1.
        -11    1    4    4    0    0  0.81651377648E-01 -0.12339003286E-01 -0.52030915752E-01  0.97604691429E-01  0.51100000000E-03 0.  1.
         11    1    4    4    0    0  0.18169384591E-01 -0.11542526960E-01 -0.25965155429E-01  0.33731393130E-01  0.51100000000E-03 0. -1.
</event>
<event>
 8    1  0.1088021E+005  0.1043930E+01  0.7957747E-01            NaN
         13   -1    0    0    0    0  0.00000000000E+00  0.00000000000E+00  0.74505805969E-08  0.10566000000E+00  0.10566000000E+00 0.  1.
     999900   -1    0    0    0    0 -0.00000000000E+00 -0.00000000000E+00 -0.74505805969E-08  0.93827000000E+00  0.93827000000E+00 0.  1.
     999902    2    1    2    0    0 -0.16568527534E-01 -0.80185053896E-02  0.12446844629E-01  0.10217098183E+01  0.10214681671E+01 0.  0.
     999903    2    3    3    0    0 -0.12097004998E+00  0.50542603498E-01 -0.19033795881E-01  0.13304783977E+00  0.12293678138E-01 0.  0.
         14    1    1    2    0    0  0.16568527534E-01  0.80185053896E-02 -0.12446844629E-01  0.22220181695E-01  0.00000000000E+00 0.  1.
     999901    1    3    3    0    0  0.10440152244E+00 -0.58561108888E-01  0.31480640510E-01  0.88866197853E+00  0.88000000000E+00 0. -1.
        -11    1    4    4    0    0 -0.10776164520E+00  0.41694948539E-01 -0.19249472144E-01  0.11714027577E+00  0.51100000000E-03 0. -1.
         11    1    4    4    0    0 -0.13208404783E-01  0.88476549589E-02  0.21567626345E-03  0.15907564001E-01  0.51100000000E-03 0.  1.
</event>
<event>
 8    1  0.1092042E+005  0.1043930E+01  0.7957747E-01            NaN
         13   -1    0    0    0    0  0.00000000000E+00  0.00000000000E+00  0.74505805969E-08  0.10566000000E+00  0.10566000000E+00 0. -1.
     999900   -1    0    0    0    0 -0.00000000000E+00 -0.00000000000E+00 -0.74505805969E-08  0.93827000000E+00  0.93827000000E+00 0. -1.
     999902    2    1    2    0    0 -0.83894631336E-02 -0.17048701636E-01  0.16347062933E-01  0.10188647295E+01  0.10185563653E+01 0.  0.
     999903    2    3    3    0    0  0.11224636487E+00 -0.17424710610E-01 -0.54748432642E-01  0.12779362466E+00  0.20759399288E-01 0.  0.
         14    1    1    2    0    0  0.83894631336E-02  0.17048701636E-01 -0.16347062933E-01  0.25065270509E-01  0.00000000000E+00 0.  1.
     999901    1    3    3    0    0 -0.12063582801E+00  0.37600897385E-03  0.71095495575E-01  0.89107110484E+00  0.88000000000E+00 0.  1.
        -11    1    4    4    0    0  0.41297174084E-01  0.29254452977E-02 -0.23794598018E-01  0.47754149907E-01  0.51100000000E-03 0. -1.
         11    1    4    4    0    0  0.70949190790E-01 -0.20350155908E-01 -0.30953834624E-01  0.80039474749E-01  0.51100000000E-03 0.  1.
</event>
<event>
 8    1  0.1088021E+005  0.1043930E+01  0.7957747E-01            NaN
         13   -1    0    0    0    0  0.00000000000E+00  0.00000000000E+00  0.74505805969E-08  0.10566000000E+00  0.10566000000E+00 0. -1.
     999900   -1    0    0    0    0 -0.00000000000E+00 -0.00000000000E+00 -0.74505805969E-08  0.93827000000E+00  0.93827000000E+00 0. -1.
     999902    2    1    2    0    0  0.15582995076E-01 -0.47160974302E-02 -0.17892139807E-01  0.10197390931E+01  0.10194521166E+01 0.  0.
     999903    2    3    3    0    0 -0.43500134445E-01  0.49164074769E-01  0.10726478586E+00  0.12729405545E+00  0.19714824992E-01 0.  0.
         14    1    1    2    0    0 -0.15582995076E-01  0.47160974302E-02  0.17892139807E-01  0.24190906916E-01  0.00000000000E+00 0. -1.
     999901    1    3    3    0    0  0.59083129521E-01 -0.53880172200E-01 -0.12515692566E+00  0.89244503763E+00  0.88000000000E+00 0.  1.
        -11    1    4    4    0    0 -0.53528433694E-02  0.18524097282E-01  0.24990119566E-01  0.31568375143E-01  0.51100000000E-03 0.  1.
         11    1    4    4    0    0 -0.38147291076E-01  0.30639977488E-01  0.82274666290E-01  0.95725680311E-01  0.51100000000E-03 0. -1.
</event>
<event>
 8    1  0.1088021E+005  0.1043930E+01  0.7957747E-01            NaN
         13   -1    0    0    0    0  0.00000000000E+00  0.00000000000E+00  0.74505805969E-08  0.10566000000E+00  0.10566000000E+00 0.  1.
     999900   -1    0    0    0    0 -0.00000000000E+00 -0.00000000000E+00 -0.74505805969E-08  0.93827000000E+00  0.93827000000E+00 0.  1.
     999902    2    1    2    0    0 -0.69051005343E-02  0.62409909944E-02 -0.21842329498E-01  0.10201872592E+01  0.10199109403E+01 0.  0.
     999903    2    3    3    0    0 -0.10798593398E+00  0.72541337232E-01  0.13398225752E-02  0.13162072655E+00  0.19975309470E-01 0.  0.
         14    1    1    2    0    0  0.69051005343E-02 -0.62409909944E-02  0.21842329498E-01  0.23742740783E-01  0.00000000000E+00 0.  1.
     999901    1    3    3    0    0  0.10108083344E+00 -0.66300346237E-01 -0.23182152073E-01  0.88856653267E+00  0.88000000000E+00 0.  1.
        -11    1    4    4    0    0 -0.82141016254E-01  0.45060995401E-01  0.42006475816E-02  0.93784574525E-01  0.51100000000E-03 0. -1.
         11    1    4    4    0    0 -0.25844917725E-01  0.27480341831E-01 -0.28608250065E-02  0.37836152025E-01  0.51100000000E-03 0.  1.
</event>
<event>
 8    1  0.1088021E+005  0.1043930E+01  0.7957747E-01            NaN
         13   -1    0    0    0    0  0.00000000000E+00  0.00000000000E+00  0.74505805969E-08  0.10566000000E+00  0.10566000000E+00 0.  1.
     999900   -1    0    0    0    0 -0.00000000000E+00 -0.00000000000E+00 -0.74505805969E-08  0.93827000000E+00  0.93827000000E+00 0.  1.
     999902    2    1    2    0    0 -0.16575031132E-01  0.13587979095E-01  0.77825246706E-02  0.10211279711E+01  0.10208733520E+01 0.  0.
     999903    2    3    3    0    0  0.11086292915E+00 -0.58230363916E-01  0.22906888068E-01  0.12892448841E+00  0.20382194411E-01 0.  0.
         14    1    1    2    0    0  0.16575031132E-01 -0.13587979095E-01 -0.77825246706E-02  0.22802028926E-01  0.00000000000E+00 0.  1.
     999901    1    3    3    0    0 -0.12743796028E+00  0.71818343011E-01 -0.15124363397E-01  0.89220348267E+00  0.88000000000E+00 0. -1.
        -11    1    4    4    0    0  0.41401941941E-01 -0.12710352341E-01  0.13374652676E-01  0.45330081716E-01  0.51100000000E-03 0. -1.
         11    1    4    4    0    0  0.69460987208E-01 -0.45520011575E-01  0.95322353916E-02  0.83594406692E-01  0.51100000000E-03 0.  1.
</event>
<event>
 8    1  0.1088021E+005  0.1043930E+01  0.7957747E-01            NaN
         13   -1    0    0    0    0  0.00000000000E+00  0.00000000000E+00  0.74505805969E-08  0.10566000000E+00  0.10566000000E+00 0.  1.
     999900   -1    0    0    0    0 -0.00000000000E+00 -0.00000000000E+00 -0.74505805969E-08  0.93827000000E+00  0.93827000000E+00 0.  1.
     999902    2    1    2    0    0 -0.18477956614E-01 -0.12193233733E-01 -0.82532236968E-02  0.10203032031E+01  0.10200296078E+01 0.  0.
     999903    2    3    3    0    0 -0.29595001216E-01  0.67785340472E-01 -0.10646893085E+00  0.13116514514E+00  0.19948573486E-01 0.  0.
         14    1    1    2    0    0  0.18477956614E-01  0.12193233733E-01  0.82532236968E-02  0.23626796882E-01  0.00000000000E+00 0.  1.
     999901    1    3    3    0    0  0.11117044602E-01 -0.79978574205E-01  0.98215707151E-01  0.88913805798E+00  0.88000000000E+00 0. -1.
        -11    1    4    4    0    0 -0.70602614644E-02  0.23667527494E-01 -0.51790216645E-01  0.57380195283E-01  0.51100000000E-03 0.  1.
         11    1    4    4    0    0 -0.22534739751E-01  0.44117812978E-01 -0.54678714203E-01  0.73784949858E-01  0.51100000000E-03 0. -1.
</event>
<event>
 8    1  0.1088021E+005  0.1043930E+01  0.7957747E-01            NaN
         13   -1    0    0    0    0  0.00000000000E+00  0.00000000000E+00  0.74505805969E-08  0.10566000000E+00  0.10566000000E+00 0.  1.
     999900   -1    0    0    0    0 -0.00000000000E+00 -0.00000000000E+00 -0.74505805969E-08  0.93827000000E+00  0.93827000000E+00 0.  1.
     999902    2    1    2    0    0 -0.71161432913E-02 -0.70461168289E-02  0.21808479635E-01  0.10199321451E+01  0.10196497847E+01 0.  0.
     999903    2    3    3    0    0  0.12068339592E+00  0.21133319467E-02  0.45400377858E-01  0.13034055597E+00  0.18934571522E-01 0.  0.
         14    1    1    2    0    0  0.71161432913E-02  0.70461168289E-02 -0.21808479635E-01  0.23997854940E-01  0.00000000000E+00 0. -1.
     999901    1    3    3    0    0 -0.12779953921E+00 -0.91594487756E-02 -0.23591898223E-01  0.88959158909E+00  0.88000000000E+00 0.  1.
        -11    1    4    4    0    0  0.77148507136E-01 -0.77037761721E-02  0.29734265122E-01  0.83039917895E-01  0.51100000000E-03 0.  1.
         11    1    4    4    0    0  0.43534888779E-01  0.98171081188E-02  0.15666112735E-01  0.47300638072E-01  0.51100000000E-03 0. -1.
</event>
<event>
 8    1  0.1088021E+005  0.1043930E+01  0.7957747E-01            NaN
         13   -1    0    0    0    0  0.00000000000E+00  0.00000000000E+00  0.74505805969E-08  0.10566000000E+00  0.10566000000E+00 0. -1.
     999900   -1    0    0    0    0 -0.00000000000E+00 -0.00000000000E+00 -0.74505805969E-08  0.93827000000E+00  0.93827000000E+00 0. -1.
     999902    2    1    2    0    0 -0.18730987729E-01  0.11489945990E-01 -0.79380089930E-02  0.10205659090E+01  0.10202984338E+01 0.  0.
     999903    2    3    3    0    0 -0.93751212363E-01  0.81927495912E-01 -0.44449057991E-01  0.13381761371E+00  0.20737178641E-01 0.  0.
         14    1    1    2    0    0  0.18730987729E-01 -0.11489945990E-01  0.79380089930E-02  0.23364090971E-01  0.00000000000E+00 0. -1.
     999901    1    3    3    0    0  0.75020224634E-01 -0.70437549922E-01  0.36511048998E-01  0.88674829531E+00  0.88000000000E+00 0.  1.
        -11    1    4    4    0    0 -0.43335851730E-01  0.36072001025E-01 -0.93437568193E-02  0.57155509058E-01  0.51100000000E-03 0.  1.
         11    1    4    4    0    0 -0.50415360633E-01  0.45855494887E-01 -0.35105301172E-01  0.76662104657E-01  0.51100000000E-03 0. -1.
</event>
<event>
 8    1  0.1088021E+005  0.1043930E+01  0.7957747E-01            NaN
         13   -1    0    0    0    0  0.00000000000E+00  0.00000000000E+00  0.74505805969E-08  0.10566000000E+00  0.10566000000E+00 0. -1.
     999900   -1    0    0    0    0 -0.00000000000E+00 -0.00000000000E+00 -0.74505805969E-08  0.93827000000E+00  0.93827000000E+00 0.  1.
     999902    2    1    2    0    0  0.14408010317E-01  0.19137479270E-01 -0.33822117867E-02  0.10197375791E+01  0.10194505662E+01 0.  0.
     999903    2    3    3    0    0  0.42892732912E-01  0.72099527446E-01 -0.10052903991E+00  0.13235160657E+00  0.19306255533E-01 0.  0.
         14    1    1    2    0    0 -0.14408010317E-01 -0.19137479270E-01  0.33822117867E-02  0.24192420935E-01  0.00000000000E+00 0.  1.
     999901    1    3    3    0    0 -0.28484722595E-01 -0.52962048176E-01  0.97146828119E-01  0.88738597250E+00  0.88000000000E+00 0. -1.
        -11    1    4    4    0    0  0.21567597777E-01  0.23735355019E-01 -0.27819526726E-01  0.42458397756E-01  0.51100000000E-03 0. -1.
         11    1    4    4    0    0  0.21325135135E-01  0.48364172428E-01 -0.72709513179E-01  0.89893208814E-01  0.51100000000E-03 0.  1.
</event>
<event>
 8    1  0.1088021E+005  0.1043930E+01  0.7957747E-01            NaN
         13   -1    0    0    0    0  0.00000000000E+00  0.00000000000E+00  0.74505805969E-08  0.10566000000E+00  0.10566000000E+00 0. -1.
     999900   -1    0    0    0    0 -0.00000000000E+00 -0.00000000000E+00 -0.74505805969E-08  0.93827000000E+00  0.93827000000E+00 0. -1.
     999902    2    1    2    0    0 -0.19442910223E-01 -0.11483789021E-01 -0.94100081593E-02  0.10194667128E+01  0.10191731580E+01 0.  0.
     999903    2    3    3    0    0  0.62718627453E-01 -0.94777462783E-01 -0.60308139832E-01  0.13026540027E+00  0.20386492967E-01 0.  0.
         14    1    1    2    0    0  0.19442910223E-01  0.11483789021E-01  0.94100081593E-02  0.24463287223E-01  0.00000000000E+00 0.  1.
     999901    1    3    3    0    0 -0.82161537676E-01  0.83293673762E-01  0.50898131672E-01  0.88920131251E+00  0.88000000000E+00 0.  1.
        -11    1    4    4    0    0  0.29662287718E-01 -0.54771020533E-01 -0.42454437052E-01  0.75381405859E-01  0.51100000000E-03 0.  1.
         11    1    4    4    0    0  0.33056339735E-01 -0.40006442250E-01 -0.17853702779E-01  0.54883994407E-01  0.51100000000E-03 0. -1.
</event>
<event>
 8    1  0.1088021E+005  0.1043930E+01  0.7957747E-01            NaN
         13   -1    0    0    0    0  0.00000000000E+00  0.00000000000E+00  0.74505805969E-08  0.10566000000E+00  0.10566000000E+00 0.  1.
     999900   -1    0    0    0    0 -0.00000000000E+00 -0.00000000000E+00 -0.74505805969E-08  0.93827000000E+00  0.93827000000E+00 0. -1.
     999902    2    1    2    0    0  0.18016426626E-01  0.88267712565E-02  0.12539036033E-01  0.10202713664E+01  0.10199970246E+01 0.  0.
     999903    2    3    3    0    0 -0.21987887516E-01  0.12766960450E+00 -0.54531182147E-02  0.13120011966E+00  0.20018486229E-01 0.  0.
         14    1    1    2    0    0 -0.18016426626E-01 -0.88267712565E-02 -0.12539036033E-01  0.23658633600E-01  0.00000000000E+00 0. -1.
     999901    1    3    3    0    0  0.40004314142E-01 -0.11884283324E+00  0.17992154247E-01  0.88907124674E+00  0.88000000000E+00 0.  1.
        -11    1    4    4    0    0 -0.22500959473E-01  0.97602446014E-01  0.21169097967E-02  0.10018619203E+00  0.51100000000E-03 0. -1.
         11    1    4    4    0    0  0.51307195740E-03  0.30067158483E-01 -0.75700280113E-02  0.31013927632E-01  0.51100000000E-03 0.  1.
</event>
<event>
 8    1  0.1088021E+005  0.1043930E+01  0.7957747E-01            NaN
         13   -1    0    0    0    0  0.00000000000E+00  0.00000000000E+00  0.74505805969E-08  0.10566000000E+00  0.10566000000E+00 0.  1.
     999900   -1    0    0    0    0 -0.00000000000E+00 -0.00000000000E+00 -0.74505805969E-08  0.93827000000E+00  0.93827000000E+00 0. -1.
     999902    2    1    2    0    0  0.19374217620E-02 -0.21763074328E-01  0.11878885511E-01  0.10190604819E+01  0.10187569744E+01 0.  0.
     999903    2    3    3    0    0  0.27114636228E-01  0.11759549734E+00 -0.33042821334E-01  0.12660731042E+00  0.19330766075E-01 0.  0.
         14    1    1    2    0    0 -0.19374217620E-02  0.21763074328E-01 -0.11878885511E-01  0.24869518055E-01  0.00000000000E+00 0. -1.
     999901    1    3    3    0    0 -0.25177214466E-01 -0.13935857167E+00  0.44921706845E-01  0.89245317153E+00  0.88000000000E+00 0.  1.
        -11    1    4    4    0    0  0.17210482181E-01  0.91278770464E-01 -0.17661901121E-01  0.94552728710E-01  0.51100000000E-03 0.  1.
         11    1    4    4    0    0  0.99041540461E-02  0.26316726876E-01 -0.15380920213E-01  0.32054581707E-01  0.51100000000E-03 0. -1.
</event>
<event>
 8    1  0.1088021E+005  0.1043930E+01  0.7957747E-01            NaN
         13   -1    0    0    0    0  0.00000000000E+00  0.00000000000E+00  0.74505805969E-08  0.10566000000E+00  0.10566000000E+00 0. -1.
     999900   -1    0    0    0    0 -0.00000000000E+00 -0.00000000000E+00 -0.74505805969E-08  0.93827000000E+00  0.93827000000E+00 0.  1.
     999902    2    1    2    0    0  0.14937750347E-01 -0.62730836544E-03  0.17385478791E-01  0.10210000027E+01  0.10207424851E+01 0.  0.
     999903    2    3    3    0    0  0.30384475707E-01 -0.92439709992E-01  0.89292494496E-01  0.13317190152E+00  0.17125695156E-01 0.  0.
         14    1    1    2    0    0 -0.14937750347E-01  0.62730836544E-03 -0.17385478791E-01  0.22929997252E-01  0.00000000000E+00 0.  1.
     999901    1    3    3    0    0 -0.15446725360E-01  0.91812401626E-01 -0.71907015705E-01  0.88782810122E+00  0.88000000000E+00 0.  1.
        -11    1    4    4    0    0  0.29360729921E-01 -0.65045961685E-01  0.63432861264E-01  0.95483080188E-01  0.51100000000E-03 0.  1.
         11    1    4    4    0    0  0.10237457858E-02 -0.27393748307E-01  0.25859633232E-01  0.37688821335E-01  0.51100000000E-03 0. -1.
</event>
<event>
 8    1  0.1088021E+005  0.1043930E+01  0.7957747E-01            NaN
         13   -1    0    0    0    0  0.00000000000E+00  0.00000000000E+00  0.74505805969E-08  0.10566000000E+00  0.10566000000E+00 0. -1.
     999900   -1    0    0    0    0 -0.00000000000E+00 -0.00000000000E+00 -0.74505805969E-08  0.93827000000E+00  0.93827000000E+00 0. -1.
     999902    2    1    2    0    0 -0.46971056948E-02  0.12420575025E-01 -0.18857199919E-01  0.10208664471E+01  0.10206058863E+01 0.  0.
     999903    2    3    3    0    0 -0.83043962047E-01 -0.98016711210E-01  0.55724225935E-02  0.13017490081E+00  0.20270115890E-01 0.  0.
         14    1    1    2    0    0  0.46971056948E-02 -0.12420575025E-01  0.18857199919E-01  0.23063552949E-01  0.00000000000E+00 0. -1.
     999901    1    3    3    0    0  0.78346856352E-01  0.11043728623E+00 -0.24429622513E-01  0.89069154624E+00  0.88000000000E+00 0. -1.
        -11    1    4    4    0    0 -0.27215272428E-01 -0.45976708059E-01 -0.20662752602E-02  0.53470172542E-01  0.51100000000E-03 0.  1.
         11    1    4    4    0    0 -0.55828689619E-01 -0.52040003151E-01  0.76386978538E-02  0.76704728267E-01  0.51100000000E-03 0. -1.
</event>
<event>
 8    1  0.1249205E+005  0.1043930E+01  0.7957747E-01            NaN
         13   -1    0    0    0    0  0.00000000000E+00  0.00000000000E+00  0.74505805969E-08  0.10566000000E+00  0.10566000000E+00 0.  1.
     999900   -1    0    0    0    0 -0.00000000000E+00 -0.00000000000E+00 -0.74505805969E-08  0.93827000000E+00  0.93827000000E+00 0.  1.
     999902    2    1    2    0    0  0.17392813843E-01  0.10806760773E-01  0.12927839578E-01  0.10197137846E+01  0.10194262001E+01 0.  0.
     999903    2    3    3    0    0 -0.74781382545E-02 -0.66126928460E-01 -0.10727720797E+00  0.12786928569E+00  0.20333756501E-01 0.  0.
         14    1    1    2    0    0 -0.17392813843E-01 -0.10806760773E-01 -0.12927839578E-01  0.24216215393E-01  0.00000000000E+00 0. -1.
     999901    1    3    3    0    0  0.24870952098E-01  0.76933689233E-01  0.12020504755E+00  0.89184449892E+00  0.88000000000E+00 0. -1.
        -11    1    4    4    0    0 -0.11153996350E-01 -0.32050232250E-01 -0.40768220629E-01  0.53046564037E-01  0.51100000000E-03 0.  1.
         11    1    4    4    0    0  0.36758580950E-02 -0.34076696210E-01 -0.66508987339E-01  0.74822721651E-01  0.51100000000E-03 0. -1.
</event>
<event>
 8    1  0.1088021E+005  0.1043930E+01  0.7957747E-01            NaN
         13   -1    0    0    0    0  0.00000000000E+00  0.00000000000E+00  0.74505805969E-08  0.10566000000E+00  0.10566000000E+00 0.  1.
     999900   -1    0    0    0    0 -0.00000000000E+00 -0.00000000000E+00 -0.74505805969E-08  0.93827000000E+00  0.93827000000E+00 0.  1.
     999902    2    1    2    0    0 -0.41346606618E-02 -0.24515240285E-01 -0.15734436744E-01  0.10145078158E+01  0.10140810832E+01 0.  0.
     999903    2    3    3    0    0 -0.27408196119E-01  0.10815016826E+00  0.45585546446E-01  0.12215031543E+00  0.19874340418E-01 0.  0.
         14    1    1    2    0    0  0.41346606618E-02  0.24515240285E-01  0.15734436744E-01  0.29422184227E-01  0.00000000000E+00 0. -1.
     999901    1    3    3    0    0  0.23273535458E-01 -0.13266540854E+00 -0.61319983190E-01  0.89235750034E+00  0.88000000000E+00 0. -1.
        -11    1    4    4    0    0 -0.87822721815E-02  0.73026150293E-01  0.28776122126E-01  0.78982740247E-01  0.51100000000E-03 0. -1.
         11    1    4    4    0    0 -0.18625923938E-01  0.35124017963E-01  0.16809424321E-01  0.43167575186E-01  0.51100000000E-03 0.  1.
</event>
<event>
 8    1  0.1088021E+005  0.1043930E+01  0.7957747E-01            NaN
         13   -1    0    0    0    0  0.00000000000E+00  0.00000000000E+00  0.74505805969E-08  0.10566000000E+00  0.10566000000E+00 0. -1.
     999900   -1    0    0    0    0 -0.00000000000E+00 -0.00000000000E+00 -0.74505805969E-08  0.93827000000E+00  0.93827000000E+00 0.  1.
     999902    2    1    2    0    0  0.23999164454E-02  0.29209547982E-01  0.56816337062E-03  0.10146165201E+01  0.10141929811E+01 0.  0.
     999903    2    3    3    0    0  0.98709422059E-01  0.67104207057E-01 -0.40055155989E-01  0.12762058997E+00  0.20882405370E-01 0.  0.
         14    1    1    2    0    0 -0.23999164454E-02 -0.29209547982E-01 -0.56816337062E-03  0.29313479867E-01  0.00000000000E+00 0. -1.
     999901    1    3    3    0    0 -0.96309505614E-01 -0.37894659075E-01  0.40623319359E-01  0.88699593017E+00  0.88000000000E+00 0. -1.
        -11    1    4    4    0    0  0.24040420016E-01  0.79314958387E-02 -0.13601874980E-01  0.28742347586E-01  0.51100000000E-03 0. -1.
         11    1    4    4    0    0  0.74669002043E-01  0.59172711218E-01 -0.26453281008E-01  0.98878242380E-01  0.51100000000E-03 0.  1.
</event>
<event>
 8    1  0.1088021E+005  0.1043930E+01  0.7957747E-01            NaN
         13   -1    0    0    0    0  0.00000000000E+00  0.00000000000E+00  0.74505805969E-08  0.10566000000E+00  0.10566000000E+00 0. -1.
     999900   -1    0    0    0    0 -0.00000000000E+00 -0.00000000000E+00 -0.74505805969E-08  0.93827000000E+00  0.93827000000E+00 0.  1.
     999902    2    1    2    0    0 -0.62899137333E-02  0.23105703902E-01  0.79893611086E-02  0.10186858629E+01  0.10183730263E+01 0.  0.
     999903    2    3    3    0    0  0.10300108262E-01  0.54124599644E-01  0.11751919630E+00  0.13119829367E+00  0.19148531135E-01 0.  0.
         14    1    1    2    0    0  0.62899137333E-02 -0.23105703902E-01 -0.79893611086E-02  0.25244137112E-01  0.00000000000E+00 0. -1.
     999901    1    3    3    0    0 -0.16590021996E-01 -0.31018895742E-01 -0.10952983520E+00  0.88748756922E+00  0.88000000000E+00 0.  1.
        -11    1    4    4    0    0  0.15399752152E-01  0.30763713006E-01  0.68442130205E-01  0.76603816565E-01  0.51100000000E-03 0.  1.
         11    1    4    4    0    0 -0.50996438900E-02  0.23360886638E-01  0.49077066099E-01  0.54594477103E-01  0.51100000000E-03 0. -1.
</event>
<event>
 8    1  0.1088021E+005  0.1043930E+01  0.7957747E-01            NaN
         13   -1    0    0    0    0  0.00000000000E+00  0.00000000000E+00  0.74505805969E-08  0.10566000000E+00  0.10566000000E+00 0. -1.
     999900   -1    0    0    0    0 -0.00000000000E+00 -0.00000000000E+00 -0.74505805969E-08  0.93827000000E+00  0.93827000000E+00 0. -1.
     999902    2    1    2    0    0  0.57229865320E-02 -0.11053849793E-01 -0.20633089859E-01  0.10198330175E+01  0.10195482916E+01 0.  0.
     999903    2    3    3    0    0  0.12248676889E+00  0.40169441939E-01 -0.77287576739E-02  0.13055008820E+00  0.19157223599E-01 0.  0.
         14    1    1    2    0    0 -0.57229865320E-02  0.11053849793E-01  0.20633089859E-01  0.24096982534E-01  0.00000000000E+00 0. -1.
     999901    1    3    3    0    0 -0.11676378236E+00 -0.51223291733E-01 -0.12904332185E-01  0.88928292926E+00  0.88000000000E+00 0. -1.
        -11    1    4    4    0    0  0.98586533806E-01  0.24121684590E-01 -0.48078939960E-02  0.10160973025E+00  0.51100000000E-03 0.  1.
         11    1    4    4    0    0  0.23900235085E-01  0.16047757349E-01 -0.29208636779E-02  0.28940357957E-01  0.51100000000E-03 0. -1.
</event>
<event>
 8    1  0.1088021E+005  0.1043930E+01  0.7957747E-01            NaN
         13   -1    0    0    0    0  0.00000000000E+00  0.00000000000E+00  0.74505805969E-08  0.10566000000E+00  0.10566000000E+00 0. -1.
     999900   -1    0    0    0    0 -0.00000000000E+00 -0.00000000000E+00 -0.74505805969E-08  0.93827000000E+00  0.93827000000E+00 0. -1.
     999902    2    1    2    0    0 -0.55997272460E-02 -0.18219925233E-01 -0.21029424357E-01  0.10155476233E+01  0.10151509325E+01 0.  0.
     999903    2    3    3    0    0  0.38152630196E-01 -0.13459937253E-01 -0.12113602460E+00  0.12877918805E+00  0.16533291216E-01 0.  0.
         14    1    1    2    0    0  0.55997272460E-02  0.18219925233E-01  0.21029424357E-01  0.28382376742E-01  0.00000000000E+00 0. -1.
     999901    1    3    3    0    0 -0.43752357442E-01 -0.47599879798E-02  0.10010660024E+00  0.88676843521E+00  0.88000000000E+00 0.  1.
        -11    1    4    4    0    0  0.25504102198E-01 -0.14922247314E-01 -0.98082863061E-01  0.10243847832E+00  0.51100000000E-03 0.  1.
         11    1    4    4    0    0  0.12648527998E-01  0.14623100612E-02 -0.23053161536E-01  0.26340709729E-01  0.51100000000E-03 0. -1.
</event>
<event>
 8    1  0.1088021E+005  0.1043930E+01  0.7957747E-01            NaN
         13   -1    0    0    0    0  0.00000000000E+00  0.00000000000E+00  0.74505805969E-08  0.10566000000E+00  0.10566000000E+00 0. -1.
     999900   -1    0    0    0    0 -0.00000000000E+00 -0.00000000000E+00 -0.74505805969E-08  0.93827000000E+00  0.93827000000E+00 0. -1.
     999902    2    1    2    0    0 -0.37971171843E-02  0.22151578701E-01  0.67495194722E-02  0.10204637146E+01  0.10201938670E+01 0.  0.
     999903    2    3    3    0    0  0.88521799284E-01  0.88662865927E-01 -0.36607885296E-01  0.13207956445E+00  0.20190624990E-01 0.  0.
         14    1    1    2    0    0  0.37971171843E-02 -0.22151578701E-01 -0.67495194722E-02  0.23466285410E-01  0.00000000000E+00 0.  1.
     999901    1    3    3    0    0 -0.92318916468E-01 -0.66511287226E-01  0.43357404768E-01  0.88838415014E+00  0.88000000000E+00 0. -1.
        -11    1    4    4    0    0  0.25739080212E-01  0.32138652994E-01 -0.34409260026E-02  0.41321838769E-01  0.51100000000E-03 0.  1.
         11    1    4    4    0    0  0.62782719072E-01  0.56524212932E-01 -0.33166959293E-01  0.90757725684E-01  0.51100000000E-03 0. -1.
</event>
<event>
 8    1  0.1088021E+005  0.1043930E+01  0.7957747E-01            NaN
         13   -1    0    0    0    0  0.00000000000E+00  0.00000000000E+00  0.74505805969E-08  0.10566000000E+00  0.10566000000E+00 0. -1.
     999900   -1    0    0    0    0 -0.00000000000E+00 -0.00000000000E+00 -0.74505805969E-08  0.93827000000E+00  0.93827000000E+00 0.  1.
     999902    2    1    2    0    0  0.12264738930E-03  0.18310827568E-01 -0.83259165322E-02  0.10238147736E+01  0.10236171492E+01 0.  0.
     999903    2    3    3    0    0 -0.56231193103E-01 -0.38153328208E-01 -0.11383460424E+00  0.13392936554E+00  0.19003533925E-01 0.  0.
         14    1    1    2    0    0 -0.12264738930E-03 -0.18310827568E-01  0.83259165322E-02  0.20115226439E-01  0.00000000000E+00 0. -1.
     999901    1    3    3    0    0  0.56353840492E-01  0.56464155776E-01  0.10550868770E+00  0.88988540802E+00  0.88000000000E+00 0.  1.
        -11    1    4    4    0    0 -0.31142711232E-01 -0.15778181987E-01 -0.42008858861E-01  0.54624397786E-01  0.51100000000E-03 0. -1.
         11    1    4    4    0    0 -0.25088481871E-01 -0.22375146221E-01 -0.71825745374E-01  0.79304967754E-01  0.51100000000E-03 0.  1.
</event>
<event>
 8    1  0.1088021E+005  0.1043930E+01  0.7957747E-01            NaN
         13   -1    0    0    0    0  0.00000000000E+00  0.00000000000E+00  0.74505805969E-08  0.10566000000E+00  0.10566000000E+00 0.  1.
     999900   -1    0    0    0    0 -0.00000000000E+00 -0.00000000000E+00 -0.74505805969E-08  0.93827000000E+00  0.93827000000E+00 0.  1.
     999902    2    1    2    0    0 -0.47453898119E-02  0.61008361361E-02 -0.19419790780E-01  0.10230286316E+01  0.10228150927E+01 0.  0.
     999903    2    3    3    0    0 -0.47922775190E-01 -0.11484014740E+00  0.38616883679E-01  0.13181638772E+00  0.19986108378E-01 0.  0.
         14    1    1    2    0    0  0.47453898119E-02 -0.61008361361E-02  0.19419790780E-01  0.20901368375E-01  0.00000000000E+00 0.  1.
     999901    1    3    3    0    0  0.43177385378E-01  0.12094098354E+00 -0.58036674459E-01  0.89121224391E+00  0.88000000000E+00 0.  1.
        -11    1    4    4    0    0 -0.19442705411E-01 -0.49561584842E-01  0.63266069660E-02  0.53615823806E-01  0.51100000000E-03 0.  1.
         11    1    4    4    0    0 -0.28480069779E-01 -0.65278562562E-01  0.32290276713E-01  0.78200563911E-01  0.51100000000E-03 0. -1.
</event>
<event>
 7    1  0.1088021E+005  0.1043930E+01  0.7957747E-01            NaN
         13   -1    0    0    0    0  0.00000000000E+00  0.00000000000E+00  0.74505805969E-08  0.10566000000E+00  0.10566000000E+00 0. -1.
     999900   -1    0    0    0    0 -0.00000000000E+00 -0.00000000000E+00 -0.74505805969E-08  0.93827000000E+00  0.93827000000E+00 0.  1.
     999903    2    1    2    0    0  0.84606163242E-01  0.26272814989E-01 -0.29455195239E-01  0.95237252888E-01  0.18816539136E-01 0.  0.
         14    1    1    2    0    0  0.56157767791E-01 -0.65975612146E-02  0.72991380432E-02  0.57013157371E-01  0.00000000000E+00 0. -1.
     999901    1    1    2    0    0 -0.14076393103E+00 -0.19675253774E-01  0.22156057196E-01  0.89167958974E+00  0.88000000000E+00 0.  1.
        -11    1    3    3    0    0  0.52403949341E-01  0.16448070930E-01 -0.27709221673E-01  0.61520525279E-01  0.51100000000E-03 0. -1.
         11    1    3    3    0    0  0.32202213901E-01  0.98247440594E-02 -0.17459735655E-02  0.33716727609E-01  0.51100000000E-03 0.  1.
</event>
<event>
 8    1  0.1088021E+005  0.1043930E+01  0.7957747E-01            NaN
         13   -1    0    0    0    0  0.00000000000E+00  0.00000000000E+00  0.74505805969E-08  0.10566000000E+00  0.10566000000E+00 0.  1.
     999900   -1    0    0    0    0 -0.00000000000E+00 -0.00000000000E+00 -0.74505805969E-08  0.93827000000E+00  0.93827000000E+00 0.  1.
     999902    2    1    2    0    0  0.12481938040E-01 -0.40130736887E-02 -0.19888365608E-01  0.10201087779E+01  0.10198306075E+01 0.  0.
     999903    2    3    3    0    0  0.39407973639E-01 -0.76248541476E-01  0.94672067267E-01  0.12934109379E+00  0.19987239913E-01 0.  0.
         14    1    1    2    0    0 -0.12481938040E-01  0.40130736887E-02  0.19888365608E-01  0.23821222139E-01  0.00000000000E+00 0.  1.
     999901    1    3    3    0    0 -0.26926035599E-01  0.72235467787E-01 -0.11456043287E+00  0.89076768407E+00  0.88000000000E+00 0.  1.
        -11    1    4    4    0    0  0.57238257724E-02 -0.22472526172E-01  0.15593086257E-01  0.27949634596E-01  0.51100000000E-03 0.  1.
         11    1    4    4    0    0  0.33684147867E-01 -0.53776015304E-01  0.79078981010E-01  0.10139145920E+00  0.51100000000E-03 0. -1.
</event>
<event>
 8    1  0.1088021E+005  0.1043930E+01  0.7957747E-01            NaN
         13   -1    0    0    0    0  0.00000000000E+00  0.00000000000E+00  0.74505805969E-08  0.10566000000E+00  0.10566000000E+00 0. -1.
     999900   -1    0    0    0    0 -0.00000000000E+00 -0.00000000000E+00 -0.74505805969E-08  0.93827000000E+00  0.93827000000E+00 0. -1.
     999902    2    1    2    0    0  0.18645487292E-01  0.10988527714E-01 -0.11245463600E-01  0.10195401991E+01  0.10192484266E+01 0.  0.
     999903    2    3    3    0    0 -0.11402904049E+00  0.17076985703E-02 -0.54808507528E-01  0.12848105238E+00  0.22313000990E-01 0.  0.
         14    1    1    2    0    0 -0.18645487292E-01 -0.10988527714E-01  0.11245463600E-01  0.24389800927E-01  0.00000000000E+00 0.  1.
     999901    1    3    3    0    0  0.13267452778E+00  0.92808291436E-02  0.43563043927E-01  0.89105914669E+00  0.88000000000E+00 0.  1.
        -11    1    4    4    0    0 -0.38767978776E-01  0.10729413730E-01 -0.15682043761E-01  0.43177124903E-01  0.51100000000E-03 0.  1.
         11    1    4    4    0    0 -0.75261061715E-01 -0.90217151594E-02 -0.39126463767E-01  0.85303927475E-01  0.51100000000E-03 0. -1.
</event>
<event>
 8    1  0.1088021E+005  0.1043930E+01  0.7957747E-01            NaN
         13   -1    0    0    0    0  0.00000000000E+00  0.00000000000E+00  0.74505805969E-08  0.10566000000E+00  0.10566000000E+00 0. -1.
     999900   -1    0    0    0    0 -0.00000000000E+00 -0.00000000000E+00 -0.74505805969E-08  0.93827000000E+00  0.93827000000E+00 0.  1.
     999902    2    1    2    0    0  0.89137027181E-02 -0.19360944510E-01  0.10036728277E-01  0.10203707941E+01  0.10200987801E+01 0.  0.
     999903    2    3    3    0    0 -0.44630229363E-01  0.10167463737E+00 -0.59907347125E-01  0.12772935520E+00  0.19907503167E-01 0.  0.
         14    1    1    2    0    0 -0.89137027181E-02  0.19360944510E-01 -0.10036728277E-01  0.23559205907E-01  0.00000000000E+00 0.  1.
     999901    1    3    3    0    0  0.53543932082E-01 -0.12103558188E+00  0.69944075402E-01  0.89264143889E+00  0.88000000000E+00 0. -1.
        -11    1    4    4    0    0 -0.28824705789E-02  0.26180941578E-01 -0.10885539842E-01  0.28504498543E-01  0.51100000000E-03 0. -1.
         11    1    4    4    0    0 -0.41747758785E-01  0.75493695795E-01 -0.49021807283E-01  0.99224856657E-01  0.51100000000E-03 0.  1.
</event>
<event>
 8    1  0.1088021E+005  0.1043930E+01  0.7957747E-01            NaN
         13   -1    0    0    0    0  0.00000000000E+00  0.00000000000E+00  0.74505805969E-08  0.10566000000E+00  0.10566000000E+00 0. -1.
     999900   -1    0    0    0    0 -0.00000000000E+00 -0.00000000000E+00 -0.74505805969E-08  0.93827000000E+00  0.93827000000E+00 0. -1.
     999902    2    1    2    0    0  0.11098620974E-03  0.30359138392E-02  0.24218977033E-01  0.10195212323E+01  0.10192290004E+01 0.  0.
     999903    2    3    3    0    0  0.84628173775E-01 -0.95295562730E-01  0.13474866514E-01  0.12995523130E+00  0.21531791413E-01 0.  0.
         14    1    1    2    0    0 -0.11098620974E-03 -0.30359138392E-02 -0.24218977033E-01  0.24408767673E-01  0.00000000000E+00 0.  1.
     999901    1    3    3    0    0 -0.84517187565E-01  0.98331476569E-01  0.10744110519E-01  0.88956600103E+00  0.88000000000E+00 0.  1.
        -11    1    4    4    0    0  0.32987503794E-01 -0.52840621582E-01  0.91374800026E-02  0.62960792224E-01  0.51100000000E-03 0.  1.
         11    1    4    4    0    0  0.51640669980E-01 -0.42454941148E-01  0.43373865111E-02  0.66994439073E-01  0.51100000000E-03 0. -1.
</event>
<event>
 8    1  0.1088021E+005  0.1043930E+01  0.7957747E-01            NaN
         13   -1    0    0    0    0  0.00000000000E+00  0.00000000000E+00  0.74505805969E-08  0.10566000000E+00  0.10566000000E+00 0.  1.
     999900   -1    0    0    0    0 -0.00000000000E+00 -0.00000000000E+00 -0.74505805969E-08  0.93827000000E+00  0.93827000000E+00 0. -1.
     999902    2    1    2    0    0  0.20599303144E-01  0.14516418831E-02 -0.54476732384E-02  0.10225731346E+01  0.10223500868E+01 0.  0.
     999903    2    3    3    0    0 -0.85669963415E-02  0.63089075482E-01 -0.11519438966E+00  0.13313837705E+00  0.20061285184E-01 0.  0.
         14    1    1    2    0    0 -0.20599303144E-01 -0.14516418831E-02  0.54476732384E-02  0.21356865357E-01  0.00000000000E+00 0.  1.
     999901    1    3    3    0    0  0.29166299485E-01 -0.61637433599E-01  0.10974671642E+00  0.88943475759E+00  0.88000000000E+00 0.  1.
        -11    1    4    4    0    0  0.31482988500E-02  0.43312249564E-01 -0.68827629873E-01  0.81384067869E-01  0.51100000000E-03 0. -1.
         11    1    4    4    0    0 -0.11715295192E-01  0.19776825918E-01 -0.46366759787E-01  0.51754309183E-01  0.51100000000E-03 0.  1.
</event>
<event>
 8    1  0.1088021E+005  0.1043930E+01  0.7957747E-01            NaN
         13   -1    0    0    0    0  0.00000000000E+00  0.00000000000E+00  0.74505805969E-08  0.10566000000E+00  0.10566000000E+00 0.  1.
     999900   -1    0    0    0    0 -0.00000000000E+00 -0.00000000000E+00 -0.74505805969E-08  0.93827000000E+00  0.93827000000E+00 0.  1.
     999902    2    1    2    0    0 -0.86555354582E-02  0.14900160884E-01  0.16097881496E-01  0.10203487601E+01  0.10200762311E+01 0.  0.
     999903    2    3    3    0    0 -0.73077503641E-01  0.67228039371E-01  0.83546142002E-01  0.13387390723E+00  0.32898850711E-01 0.  0.
         14    1    1    2    0    0  0.86555354582E-02 -0.14900160884E-01 -0.16097881496E-01  0.23581239939E-01  0.00000000000E+00 0. -1.
     999901    1    3    3    0    0  0.64421968183E-01 -0.52327878487E-01 -0.67448260506E-01  0.88647485283E+00  0.88000000000E+00 0.  1.
        -11    1    4    4    0    0 -0.50122505359E-01  0.63448388051E-01  0.69992585572E-01  0.10694478316E+00  0.51100000000E-03 0.  1.
         11    1    4    4    0    0 -0.22954998282E-01  0.37796513204E-02  0.13553556430E-01  0.26929124069E-01  0.51100000000E-03 0. -1.
</event>
<event>
 8    1  0.1088021E+005  0.1043930E+01  0.7957747E-01            NaN
         13   -1    0    0    0    0  0.00000000000E+00  0.00000000000E+00  0.74505805969E-08  0.10566000000E+00  0.10566000000E+00 0.  1.
     999900   -1    0    0    0    0 -0.00000000000E+00 -0.00000000000E+00 -0.74505805969E-08  0.93827000000E+00  0.93827000000E+00 0. -1.
     999902    2    1    2    0    0 -0.16079183781E-02  0.16503780382E-01 -0.16596994449E-01  0.10204689601E+01  0.10201992345E+01 0.  0.
     999903    2    3    3    0    0 -0.35994599985E-01 -0.11523809004E+00 -0.43111849223E-01  0.12960342489E+00  0.19052232849E-01 0.  0.
         14    1    1    2    0    0  0.16079183781E-02 -0.16503780382E-01  0.16596994449E-01  0.23461039899E-01  0.00000000000E+00 0. -1.
     999901    1    3    3    0    0  0.34386681607E-01  0.13174187042E+00  0.26514854773E-01  0.89086553521E+00  0.88000000000E+00 0.  1.
        -11    1    4    4    0    0 -0.88200425435E-02 -0.26966583485E-01 -0.18988252225E-01  0.34143881134E-01  0.51100000000E-03 0.  1.
         11    1    4    4    0    0 -0.27174557442E-01 -0.88271506556E-01 -0.24123596997E-01  0.95459543760E-01  0.51100000000E-03 0. -1.
</event>
<event>
 8    1  0.1088021E+005  0.1043930E+01  0.7957747E-01            NaN
         13   -1    0    0    0    0  0.00000000000E+00  0.00000000000E+00  0.74505805969E-08  0.10566000000E+00  0.10566000000E+00 0.  1.
     999900   -1    0    0    0    0 -0.00000000000E+00 -0.00000000000E+00 -0.74505805969E-08  0.93827000000E+00  0.93827000000E+00 0.  1.
     999902    2    1    2    0    0 -0.77826214964E-02 -0.22298262673E-01  0.56344632450E-03  0.10203058770E+01  0.10200323443E+01 0.  0.
     999903    2    3    3    0    0 -0.40936813966E-01 -0.12264700907E+00 -0.26796631096E-01  0.13356034123E+00  0.20054768495E-01 0.  0.
         14    1    1    2    0    0  0.77826214964E-02  0.22298262673E-01 -0.56344632450E-03  0.23624122997E-01  0.00000000000E+00 0. -1.
     999901    1    3    3    0    0  0.33154192470E-01  0.10034874640E+00  0.27360077421E-01  0.88674553578E+00  0.88000000000E+00 0.  1.
        -11    1    4    4    0    0 -0.14452342301E-01 -0.69894784556E-01 -0.92112644953E-02  0.71967073171E-01  0.51100000000E-03 0. -1.
         11    1    4    4    0    0 -0.26484471665E-01 -0.52752224514E-01 -0.17585366601E-01  0.61593268057E-01  0.51100000000E-03 0.  1.
</event>
<event>
 8    1  0.1088021E+005  0.1043930E+01  0.7957747E-01            NaN
         13   -1    0    0    0    0  0.00000000000E+00  0.00000000000E+00  0.74505805969E-08  0.10566000000E+00  0.10566000000E+00 0. -1.
     999900   -1    0    0    0    0 -0.00000000000E+00 -0.00000000000E+00 -0.74505805969E-08  0.93827000000E+00  0.93827000000E+00 0.  1.
     999902    2    1    2    0    0 -0.63326755095E-02  0.21950559946E-01  0.76698086159E-02  0.10198311240E+01  0.10195463529E+01 0.  0.
     999903    2    3    3    0    0  0.11437774894E+00  0.59092114585E-01  0.63457633463E-02  0.13081354556E+00  0.22310704397E-01 0.  0.
         14    1    1    2    0    0  0.63326755095E-02 -0.21950559946E-01 -0.76698086159E-02  0.24098876016E-01  0.00000000000E+00 0. -1.
     999901    1    3    3    0    0 -0.12071042445E+00 -0.37141554639E-01  0.13240452696E-02  0.88901757842E+00  0.88000000000E+00 0.  1.
        -11    1    4    4    0    0  0.72294206066E-01  0.39850228057E-01  0.14524776148E-01  0.83819586912E-01  0.51100000000E-03 0. -1.
         11    1    4    4    0    0  0.42083542873E-01  0.19241886528E-01 -0.81790128016E-02  0.46993958647E-01  0.51100000000E-03 0.  1.
</event>
<event>
 8    1  0.1088021E+005  0.1043930E+01  0.7957747E-01            NaN
         13   -1    0    0    0    0  0.00000000000E+00  0.00000000000E+00  0.74505805969E-08  0.10566000000E+00  0.10566000000E+00 0.  1.
     999900   -1    0    0    0    0 -0.00000000000E+00 -0.00000000000E+00 -0.74505805969E-08  0.93827000000E+00  0.93827000000E+00 0.  1.
     999902    2    1    2    0    0  0.98923398393E-02  0.18308413904E-01 -0.10847850729E-01  0.10204623143E+01  0.10201924341E+01 0.  0.
     999903    2    3    3    0    0  0.11759139309E+00 -0.35081006472E-01  0.40513214088E-01  0.13080649586E+00  0.20263417785E-01 0.  0.
         14    1    1    2    0    0 -0.98923398393E-02 -0.18308413904E-01  0.10847850729E-01  0.23467685710E-01  0.00000000000E+00 0.  1.
     999901    1    3    3    0    0 -0.10769905325E+00  0.53389420376E-01 -0.51361064817E-01  0.88965581843E+00  0.88000000000E+00 0. -1.
        -11    1    4    4    0    0  0.70409978103E-01 -0.27208172774E-01  0.16444722655E-01  0.77256324702E-01  0.51100000000E-03 0.  1.
         11    1    4    4    0    0  0.47181414987E-01 -0.78728336987E-02  0.24068491433E-01  0.53550171162E-01  0.51100000000E-03 0. -1.
</event>
<event>
 8    1  0.1088021E+005  0.1043930E+01  0.7957747E-01            NaN
         13   -1    0    0    0    0  0.00000000000E+00  0.00000000000E+00  0.74505805969E-08  0.10566000000E+00  0.10566000000E+00 0. -1.
     999900   -1    0    0    0    0 -0.00000000000E+00 -0.00000000000E+00 -0.74505805969E-08  0.93827000000E+00  0.93827000000E+00 0.  1.
     999902    2    1    2    0    0  0.12163019287E-01 -0.51753796265E-02 -0.20632351666E-01  0.10194265813E+01  0.10191320509E+01 0.  0.
     999903    2    3    3    0    0 -0.12545715011E+00  0.16601030408E-01 -0.48708400164E-02  0.12832504483E+00  0.20700273492E-01 0.  0.
         14    1    1    2    0    0 -0.12163019287E-01  0.51753796265E-02  0.20632351666E-01  0.24503418695E-01  0.00000000000E+00 0. -1.
     999901    1    3    3    0    0  0.13762016940E+00 -0.21776410034E-01 -0.15761511650E-01  0.89110153648E+00  0.88000000000E+00 0. -1.
        -11    1    4    4    0    0 -0.43835662879E-01  0.15488017979E-01 -0.42978124840E-02  0.46692358626E-01  0.51100000000E-03 0.  1.
         11    1    4    4    0    0 -0.81621487236E-01  0.11130124287E-02 -0.57302753239E-03  0.81632686203E-01  0.51100000000E-03 0. -1.
</event>
<event>
 8    1  0.1088021E+005  0.1043930E+01  0.7957747E-01            NaN
         13   -1    0    0    0    0  0.00000000000E+00  0.00000000000E+00  0.74505805969E-08  0.10566000000E+00  0.10566000000E+00 0.  1.
     999900   -1    0    0    0    0 -0.00000000000E+00 -0.00000000000E+00 -0.74505805969E-08  0.93827000000E+00  0.93827000000E+00 0.  1.
     999902    2    1    2    0    0 -0.95252357881E-03  0.97823949830E-02 -0.25950814732E-01  0.10161802732E+01  0.10158013095E+01 0.  0.
     999903    2    3    3    0    0  0.79468284323E-01 -0.17203520276E-01  0.91760366007E-01  0.12429930129E+00  0.20473939735E-01 0.  0.
         14    1    1    2    0    0  0.95252357881E-03 -0.97823949830E-02  0.25950814732E-01  0.27749726810E-01  0.00000000000E+00 0.  1.
     999901    1    3    3    0    0 -0.80420807902E-01  0.26985915259E-01 -0.11771118074E+00  0.89188097190E+00  0.88000000000E+00 0.  1.
        -11    1    4    4    0    0  0.50204597363E-01 -0.17081045137E-01  0.70035139920E-01  0.87848993415E-01  0.51100000000E-03 0. -1.
         11    1    4    4    0    0  0.29263686960E-01 -0.12247513875E-03  0.21725226087E-01  0.36450307875E-01  0.51100000000E-03 0.  1.
</event>
<event>
 8    1  0.1088021E+005  0.1043930E+01  0.7957747E-01            NaN
         13   -1    0    0    0    0  0.00000000000E+00  0.00000000000E+00  0.74505805969E-08  0.10566000000E+00  0.10566000000E+00 0.  1.
     999900   -1    0    0    0    0 -0.00000000000E+00 -0.00000000000E+00 -0.74505805969E-08  0.93827000000E+00  0.93827000000E+00 0.  1.
     999902    2    1    2    0    0  0.17567323944E-01 -0.10866291952E-01  0.13306168076E-01  0.10193588527E+01  0.10190626719E+01 0.  0.
     999903    2    3    3    0    0  0.84174711508E-01 -0.29804528650E-01  0.96567224745E-01  0.13272047971E+00  0.17770899044E-01 0.  0.
         14    1    1    2    0    0 -0.17567323944E-01  0.10866291952E-01 -0.13306168076E-01  0.24571147312E-01  0.00000000000E+00 0. -1.
     999901    1    3    3    0    0 -0.66607387565E-01  0.18938236698E-01 -0.83261056668E-01  0.88663837298E+00  0.88000000000E+00 0.  1.
        -11    1    4    4    0    0  0.97061646287E-02  0.12807836435E-02  0.15462802874E-01  0.18308725577E-01  0.51100000000E-03 0. -1.
         11    1    4    4    0    0  0.74468546880E-01 -0.31085312294E-01  0.81104421871E-01  0.11441175413E+00  0.51100000000E-03 0.  1.
</event>
<event>
 8    1  0.1088021E+005  0.1043930E+01  0.7957747E-01            NaN
         13   -1    0    0    0    0  0.00000000000E+00  0.00000000000E+00  0.74505805969E-08  0.10566000000E+00  0.10566000000E+00 0. -1.
     999900   -1    0    0    0    0 -0.00000000000E+00 -0.00000000000E+00 -0.74505805969E-08  0.93827000000E+00  0.93827000000E+00 0.  1.
     999902    2    1    2    0    0 -0.13022707578E-01  0.18973974814E-01 -0.55847104502E-02  0.10202489607E+01  0.10199740929E+01 0.  0.
     999903    2    3    3    0    0 -0.16229889194E-01  0.88202806563E-01 -0.96008092349E-01  0.13290499965E+00  0.20075874765E-01 0.  0.
         14    1    1    2    0    0  0.13022707578E-01 -0.18973974814E-01  0.55847104502E-02  0.23681039329E-01  0.00000000000E+00 0.  1.
     999901    1    3    3    0    0  0.32071816164E-02 -0.69228831749E-01  0.90423381899E-01  0.88734396102E+00  0.88000000000E+00 0. -1.
        -11    1    4    4    0    0  0.27710912456E-02  0.28395014156E-01 -0.23137016616E-01  0.36736064494E-01  0.51100000000E-03 0. -1.
         11    1    4    4    0    0 -0.19000980440E-01  0.59807792408E-01 -0.72871075733E-01  0.96168935160E-01  0.51100000000E-03 0.  1.
</event>
<event>
 8    1  0.1088021E+005  0.1043930E+01  0.7957747E-01            NaN
         13   -1    0    0    0    0  0.00000000000E+00  0.00000000000E+00  0.74505805969E-08  0.10566000000E+00  0.10566000000E+00 0.  1.
     999900   -1    0    0    0    0 -0.00000000000E+00 -0.00000000000E+00 -0.74505805969E-08  0.93827000000E+00  0.93827000000E+00 0.  1.
     999902    2    1    2    0    0 -0.43095122459E-02  0.20095753783E-01  0.12167742991E-01  0.10200455870E+01  0.10197659213E+01 0.  0.
     999903    2    3    3    0    0  0.46031245613E-01  0.12167206672E+00  0.36852214242E-02  0.13273285044E+00  0.26104814451E-01 0.  0.
         14    1    1    2    0    0  0.43095122459E-02 -0.20095753783E-01 -0.12167742991E-01  0.23884413022E-01  0.00000000000E+00 0. -1.
     999901    1    3    3    0    0 -0.50340757858E-01 -0.10157631293E+00  0.84825215669E-02  0.88731273654E+00  0.88000000000E+00 0.  1.
        -11    1    4    4    0    0  0.14079750367E-01  0.52215827522E-01 -0.10174720570E-01  0.55031973197E-01  0.51100000000E-03 0. -1.
         11    1    4    4    0    0  0.31951495246E-01  0.69456239193E-01  0.13859941994E-01  0.77700877243E-01  0.51100000000E-03 0.  1.
</event>
<event>
 8    1  0.1088021E+005  0.1043930E+01  0.7957747E-01            NaN
         13   -1    0    0    0    0  0.00000000000E+00  0.00000000000E+00  0.74505805969E-08  0.10566000000E+00  0.10566000000E+00 0.  1.
     999900   -1    0    0    0    0 -0.00000000000E+00 -0.00000000000E+00 -0.74505805969E-08  0.93827000000E+00  0.93827000000E+00 0.  1.
     999902    2    1    2    0    0 -0.20638567006E-01  0.11488904277E-01  0.39749855396E-02  0.10199770069E+01  0.10196957138E+01 0.  0.
     999903    2    3    3    0    0 -0.49163812461E-01  0.15579149087E-01  0.11974849307E+00  0.13192637500E+00  0.20126511999E-01 0.  0.
         14    1    1    2    0    0  0.20638567006E-01 -0.11488904277E-01 -0.39749855396E-02  0.23952993124E-01  0.00000000000E+00 0. -1.
     999901    1    3    3    0    0  0.28525245455E-01 -0.40902448104E-02 -0.11577350753E+00  0.88805063188E+00  0.88000000000E+00 0.  1.
        -11    1    4    4    0    0 -0.21317475268E-01  0.80484889208E-03  0.30105764466E-01  0.36901229094E-01  0.51100000000E-03 0.  1.
         11    1    4    4    0    0 -0.27846337193E-01  0.14774300195E-01  0.89642728606E-01  0.95025145905E-01  0.51100000000E-03 0. -1.
</event>
<event>
 8    1  0.1088021E+005  0.1043930E+01  0.7957747E-01            NaN
         13   -1    0    0    0    0  0.00000000000E+00  0.00000000000E+00  0.74505805969E-08  0.10566000000E+00  0.10566000000E+00 0.  1.
     999900   -1    0    0    0    0 -0.00000000000E+00 -0.00000000000E+00 -0.74505805969E-08  0.93827000000E+00  0.93827000000E+00 0. -1.
     999902    2    1    2    0    0 -0.14107113885E-01 -0.13611612878E-01 -0.11047129096E-01  0.10214283172E+01  0.10211804353E+01 0.  0.
     999903    2    3    3    0    0 -0.89728630803E-01 -0.30046763803E-01  0.89994374582E-01  0.13227247402E+00  0.21047202330E-01 0.  0.
         14    1    1    2    0    0  0.14107113885E-01  0.13611612878E-01  0.11047129096E-01  0.22501682794E-01  0.00000000000E+00 0. -1.
     999901    1    3    3    0    0  0.75621516918E-01  0.16435150925E-01 -0.10104150368E+00  0.88915584319E+00  0.88000000000E+00 0. -1.
        -11    1    4    4    0    0 -0.85266981619E-02 -0.10438865517E-02  0.17960235797E-01  0.19915458105E-01  0.51100000000E-03 0. -1.
         11    1    4    4    0    0 -0.81201932641E-01 -0.29002877251E-01  0.72034138785E-01  0.11235701591E+00  0.51100000000E-03 0.  1.
</event>
<event>
 8    1  0.1088021E+005  0.1043930E+01  0.7957747E-01            NaN
         13   -1    0    0    0    0  0.00000000000E+00  0.00000000000E+00  0.74505805969E-08  0.10566000000E+00  0.10566000000E+00 0.  1.
     999900   -1    0    0    0    0 -0.00000000000E+00 -0.00000000000E+00 -0.74505805969E-08  0.93827000000E+00  0.93827000000E+00 0.  1.
     999902    2    1    2    0    0  0.69573183032E-02  0.57802530966E-02 -0.22328300976E-01  0.10198391588E+01  0.10195545798E+01 0.  0.
     999903    2    3    3    0    0  0.19625334707E-01 -0.94516477200E-01  0.81700464122E-01  0.12796366488E+00  0.19524739842E-01 0.  0.
         14    1    1    2    0    0 -0.69573183032E-02 -0.57802530966E-02  0.22328300976E-01  0.24090841171E-01  0.00000000000E+00 0.  1.
     999901    1    3    3    0    0 -0.12668016404E-01  0.10029673030E+00 -0.10402876510E+00  0.89187549395E+00  0.88000000000E+00 0.  1.
        -11    1    4    4    0    0  0.23177448753E-02 -0.44546491613E-01  0.28423370493E-01  0.52895283037E-01  0.51100000000E-03 0.  1.
         11    1    4    4    0    0  0.17307589832E-01 -0.49969985587E-01  0.53277093629E-01  0.75068381839E-01  0.51100000000E-03 0. -1.
</event>
<event>
 8    1  0.1088021E+005  0.1043930E+01  0.7957747E-01            NaN
         13   -1    0    0    0    0  0.00000000000E+00  0.00000000000E+00  0.74505805969E-08  0.10566000000E+00  0.10566000000E+00 0. -1.
     999900   -1    0    0    0    0 -0.00000000000E+00 -0.00000000000E+00 -0.74505805969E-08  0.93827000000E+00  0.93827000000E+00 0. -1.
     999902    2    1    2    0    0 -0.15294691288E-01  0.17829850969E-01  0.21351252770E-01  0.10121855964E+01  0.10116876862E+01 0.  0.
     999903    2    3    3    0    0 -0.47684923276E-01  0.35357334553E-01  0.11035692360E+00  0.12692950390E+00  0.20210278568E-01 0.  0.
         14    1    1    2    0    0  0.15294691288E-01 -0.17829850969E-01 -0.21351252770E-01  0.31744403633E-01  0.00000000000E+00 0.  1.
     999901    1    3    3    0    0  0.32390231989E-01 -0.17527483584E-01 -0.89005670828E-01  0.88525609247E+00  0.88000000000E+00 0. -1.
        -11    1    4    4    0    0 -0.20586019495E-01  0.67817403246E-02  0.53857398378E-01  0.58057356825E-01  0.51100000000E-03 0. -1.
         11    1    4    4    0    0 -0.27098903781E-01  0.28575594228E-01  0.56499525220E-01  0.68872147075E-01  0.51100000000E-03 0.  1.
</event>
<event>
 8    1  0.1088021E+005  0.1043930E+01  0.7957747E-01            NaN
         13   -1    0    0    0    0  0.00000000000E+00  0.00000000000E+00  0.74505805969E-08  0.10566000000E+00  0.10566000000E+00 0.  1.
     999900   -1    0    0    0    0 -0.00000000000E+00 -0.00000000000E+00 -0.74505805969E-08  0.93827000000E+00  0.93827000000E+00 0.  1.
     999902    2    1    2    0    0  0.58989179812E-02 -0.28990151383E-01  0.11639813378E-01  0.10121383129E+01  0.10116388946E+01 0.  0.
     999903    2    3    3    0    0  0.13247318568E-01 -0.11859290080E+00  0.40166252033E-01  0.12709796957E+00  0.17343543355E-01 0.  0.
         14    1    1    2    0    0 -0.58989179812E-02  0.28990151383E-01 -0.11639813378E-01  0.31791687059E-01  0.00000000000E+00 0. -1.
     999901    1    3    3    0    0 -0.73484005871E-02  0.89602749420E-01 -0.28526438655E-01  0.88504034337E+00  0.88000000000E+00 0.  1.
        -11    1    4    4    0    0 -0.93947350006E-03 -0.32495346755E-01  0.44693756112E-02  0.32818693005E-01  0.51100000000E-03 0. -1.
         11    1    4    4    0    0  0.14186792068E-01 -0.86097554048E-01  0.35696876422E-01  0.94279276564E-01  0.51100000000E-03 0.  1.
</event>
<event>
 8    1  0.1088021E+005  0.1043930E+01  0.7957747E-01            NaN
         13   -1    0    0    0    0  0.00000000000E+00  0.00000000000E+00  0.74505805969E-08  0.10566000000E+00  0.10566000000E+00 0.  1.
     999900   -1    0    0    0    0 -0.00000000000E+00 -0.00000000000E+00 -0.74505805969E-08  0.93827000000E+00  0.93827000000E+00 0. -1.
     999902    2    1    2    0    0 -0.48254804072E-02  0.21678993276E-01  0.86383779523E-02  0.10200996499E+01  0.10198212639E+01 0.  0.
     999903    2    3    3    0    0 -0.12006852234E+00 -0.15354113718E-01 -0.43737953980E-01  0.13027062710E+00  0.20130295643E-01 0.  0.
         14    1    1    2    0    0  0.48254804072E-02 -0.21678993276E-01 -0.86383779523E-02  0.23830350066E-01  0.00000000000E+00 0. -1.
     999901    1    3    3    0    0  0.11524304193E+00  0.37033106993E-01  0.52376331933E-01  0.88982902283E+00  0.88000000000E+00 0.  1.
        -11    1    4    4    0    0 -0.10183340581E+00 -0.57997556316E-02 -0.38483331904E-01  0.10901792357E+00  0.51100000000E-03 0.  1.
         11    1    4    4    0    0 -0.18235116529E-01 -0.95543580860E-02 -0.52546220765E-02  0.21252703532E-01  0.51100000000E-03 0. -1.
</event>
<event>
 8    1  0.1088021E+005  0.1043930E+01  0.7957747E-01            NaN
         13   -1    0    0    0    0  0.00000000000E+00  0.00000000000E+00  0.74505805969E-08  0.10566000000E+00  0.10566000000E+00 0.  1.
     999900   -1    0    0    0    0 -0.00000000000E+00 -0.00000000000E+00 -0.74505805969E-08  0.93827000000E+00  0.93827000000E+00 0. -1.
     999902    2    1    2    0    0 -0.54562903130E-02  0.17216926767E-01  0.13580601086E-01  0.10213329560E+01  0.10210829450E+01 0.  0.
     999903    2    3    3    0    0 -0.69070462791E-01  0.85052870357E-01 -0.70991341183E-01  0.13240051111E+00  0.22031913944E-01 0.  0.
         14    1    1    2    0    0  0.54562903130E-02 -0.17216926767E-01 -0.13580601086E-01  0.22597043991E-01  0.00000000000E+00 0. -1.
     999901    1    3    3    0    0  0.63614172478E-01 -0.67835943590E-01  0.84571942269E-01  0.88893244490E+00  0.88000000000E+00 0. -1.
        -11    1    4    4    0    0 -0.52069146022E-01  0.61984395429E-01 -0.40379887685E-01  0.90465781899E-01  0.51100000000E-03 0.  1.
         11    1    4    4    0    0 -0.17001316770E-01  0.23068474927E-01 -0.30611453498E-01  0.41934729207E-01  0.51100000000E-03 0. -1.
</event>
<event>
 8    1  0.1088021E+005  0.1043930E+01  0.7957747E-01            NaN
         13   -1    0    0    0    0  0.00000000000E+00  0.00000000000E+00  0.74505805969E-08  0.10566000000E+00  0.10566000000E+00 0. -1.
     999900   -1    0    0    0    0 -0.00000000000E+00 -0.00000000000E+00 -0.74505805969E-08  0.93827000000E+00  0.93827000000E+00 0. -1.
     999902    2    1    2    0    0 -0.24532004324E-01  0.33729555758E-02 -0.71132013597E-03  0.10191569897E+01  0.10188558620E+01 0.  0.
     999903    2    3    3    0    0 -0.81408397922E-01 -0.10952631313E-01  0.10053605496E+00  0.13141199386E+00  0.20355009184E-01 0.  0.
         14    1    1    2    0    0  0.24532004324E-01 -0.33729555758E-02  0.71132013597E-03  0.24773010350E-01  0.00000000000E+00 0.  1.
     999901    1    3    3    0    0  0.56876393599E-01  0.14325586889E-01 -0.10124737509E+00  0.88774499579E+00  0.88000000000E+00 0. -1.
        -11    1    4    4    0    0 -0.54386835417E-01 -0.16846849846E-01  0.69182472857E-01  0.89600334195E-01  0.51100000000E-03 0.  1.
         11    1    4    4    0    0 -0.27021562506E-01  0.58942185325E-02  0.31353582100E-01  0.41811659664E-01  0.51100000000E-03 0. -1.
</event>
<event>
 8    1  0.1088021E+005  0.1043930E+01  0.7957747E-01            NaN
         13   -1    0    0    0    0  0.00000000000E+00  0.00000000000E+00  0.74505805969E-08  0.10566000000E+00  0.10566000000E+00 0.  1.
     999900   -1    0    0    0    0 -0.00000000000E+00 -0.00000000000E+00 -0.74505805969E-08  0.93827000000E+00  0.93827000000E+00 0.  1.
     999902    2    1    2    0    0  0.28299177023E-02  0.12134429156E-01 -0.20374574783E-01  0.10200474519E+01  0.10197678305E+01 0.  0.
     999903    2    3    3    0    0 -0.87640533104E-01 -0.31440781530E-01 -0.90742940731E-01  0.13154567456E+00  0.20014929825E-01 0.  0.
         14    1    1    2    0    0 -0.28299177023E-02 -0.12134429156E-01  0.20374574783E-01  0.23882548079E-01  0.00000000000E+00 0.  1.
     999901    1    3    3    0    0  0.90470450806E-01  0.43575210686E-01  0.70368365948E-01  0.88850177737E+00  0.88000000000E+00 0. -1.
        -11    1    4    4    0    0 -0.39965032162E-01 -0.16012087365E-01 -0.55676313451E-01  0.70382552795E-01  0.51100000000E-03 0.  1.
         11    1    4    4    0    0 -0.47675500942E-01 -0.15428694165E-01 -0.35066627280E-01  0.61163121761E-01  0.51100000000E-03 0. -1.
</event>
<event>
 8    1  0.1088021E+005  0.1043930E+01  0.7957747E-01            NaN
         13   -1    0    0    0    0  0.00000000000E+00  0.00000000000E+00  0.74505805969E-08  0.10566000000E+00  0.10566000000E+00 0. -1.
     999900   -1    0    0    0    0 -0.00000000000E+00 -0.00000000000E+00 -0.74505805969E-08  0.93827000000E+00  0.93827000000E+00 0. -1.
     999902    2    1    2    0    0 -0.15112651825E-01  0.16562141751E-01  0.88248909643E-02  0.10198348659E+01  0.10195501843E+01 0.  0.
     999903    2    3    3    0    0 -0.29830498678E-01 -0.55939680916E-01 -0.11035498775E+00  0.12872489922E+00  0.19307247517E-01 0.  0.
         14    1    1    2    0    0  0.15112651825E-01 -0.16562141751E-01 -0.88248909643E-02  0.24095134054E-01  0.00000000000E+00 0. -1.
     999901    1    3    3    0    0  0.14717846853E-01  0.72501822667E-01  0.11917987871E+00  0.89110996672E+00  0.88000000000E+00 0.  1.
        -11    1    4    4    0    0 -0.27214157006E-01 -0.34110020408E-01 -0.64590549443E-01  0.77950651262E-01  0.51100000000E-03 0.  1.
         11    1    4    4    0    0 -0.26163416720E-02 -0.21829660508E-01 -0.45764438303E-01  0.50774247959E-01  0.51100000000E-03 0. -1.
</event>
<event>
 8    1  0.1088021E+005  0.1043930E+01  0.7957747E-01            NaN
         13   -1    0    0    0    0  0.00000000000E+00  0.00000000000E+00  0.74505805969E-08  0.10566000000E+00  0.10566000000E+00 0. -1.
     999900   -1    0    0    0    0 -0.00000000000E+00 -0.00000000000E+00 -0.74505805969E-08  0.93827000000E+00  0.93827000000E+00 0. -1.
     999902    2    1    2    0    0 -0.13901156145E-01 -0.83520852519E-02  0.17275498787E-01  0.10202352257E+01  0.10199600352E+01 0.  0.
     999903    2    3    3    0    0 -0.11879890297E+00  0.32149496834E-01 -0.40735576382E-01  0.13118562064E+00  0.20087567920E-01 0.  0.
         14    1    1    2    0    0  0.13901156145E-01  0.83520852519E-02 -0.17275498787E-01  0.23694774289E-01  0.00000000000E+00 0.  1.
     999901    1    3    3    0    0  0.10489774683E+00 -0.40501582086E-01  0.58011075169E-01  0.88904960507E+00  0.88000000000E+00 0.  1.
        -11    1    4    4    0    0 -0.54418222695E-01  0.24835673582E-01 -0.21962241755E-01  0.63724052190E-01  0.51100000000E-03 0. -1.
         11    1    4    4    0    0 -0.64380680276E-01  0.73138232524E-02 -0.18773334626E-01  0.67461568447E-01  0.51100000000E-03 0.  1.
</event>
<event>
 8    1  0.1088021E+005  0.1043930E+01  0.7957747E-01            NaN
         13   -1    0    0    0    0  0.00000000000E+00  0.00000000000E+00  0.74505805969E-08  0.10566000000E+00  0.10566000000E+00 0. -1.
     999900   -1    0    0    0    0 -0.00000000000E+00 -0.00000000000E+00 -0.74505805969E-08  0.93827000000E+00  0.93827000000E+00 0.  1.
     999902    2    1    2    0    0  0.41076723961E-02 -0.27153223730E-02  0.22734057538E-01  0.10206688023E+01  0.10204037047E+01 0.  0.
     999903    2    3    3    0    0 -0.98501784857E-01  0.73872986915E-01  0.40769098691E-01  0.13121968480E+00  0.19916487040E-01 0.  0.
         14    1    1    2    0    0 -0.41076723961E-02  0.27153223730E-02 -0.22734057538E-01  0.23261197739E-01  0.00000000000E+00 0.  1.
     999901    1    3    3    0    0  0.10260945725E+00 -0.76588309288E-01 -0.18035041152E-01  0.88944911746E+00  0.88000000000E+00 0.  1.
        -11    1    4    4    0    0 -0.35245089966E-01  0.15759155929E-01  0.16223504096E-01  0.41881148127E-01  0.51100000000E-03 0.  1.
         11    1    4    4    0    0 -0.63256694891E-01  0.58113830986E-01  0.24545594595E-01  0.89338536676E-01  0.51100000000E-03 0. -1.
</event>
<event>
 8    1  0.1088021E+005  0.1043930E+01  0.7957747E-01            NaN
         13   -1    0    0    0    0  0.00000000000E+00  0.00000000000E+00  0.74505805969E-08  0.10566000000E+00  0.10566000000E+00 0.  1.
     999900   -1    0    0    0    0 -0.00000000000E+00 -0.00000000000E+00 -0.74505805969E-08  0.93827000000E+00  0.93827000000E+00 0. -1.
     999902    2    1    2    0    0  0.15196318983E-01  0.16922094370E-01 -0.31157300110E-02  0.10209736684E+01  0.10207155521E+01 0.  0.
     999903    2    3    3    0    0 -0.18557980772E-01  0.12758289725E+00 -0.26528953405E-01  0.13309228830E+00  0.19697144846E-01 0.  0.
         14    1    1    2    0    0 -0.15196318983E-01 -0.16922094370E-01  0.31157300110E-02  0.22956331632E-01  0.00000000000E+00 0.  1.
     999901    1    3    3    0    0  0.33754299754E-01 -0.11066080288E+00  0.23413223394E-01  0.88788138007E+00  0.88000000000E+00 0.  1.
        -11    1    4    4    0    0 -0.12905188779E-01  0.10101681916E+00 -0.28796624303E-01  0.10583217065E+00  0.51100000000E-03 0.  1.
         11    1    4    4    0    0 -0.56527919927E-02  0.26566078083E-01  0.22676708980E-02  0.27260117651E-01  0.51100000000E-03 0. -1.
</event>
<event>
 8    1  0.1088021E+005  0.1043930E+01  0.7957747E-01            NaN
         13   -1    0    0    0    0  0.00000000000E+00  0.00000000000E+00  0.74505805969E-08  0.10566000000E+00  0.10566000000E+00 0.  1.
     999900   -1    0    0    0    0 -0.00000000000E+00 -0.00000000000E+00 -0.74505805969E-08  0.93827000000E+00  0.93827000000E+00 0. -1.
     999902    2    1    2    0    0 -0.20745148471E-01 -0.93711749161E-03  0.10379864901E-01  0.10207140363E+01  0.10204499806E+01 0.  0.
     999903    2    3    3    0    0  0.11722105647E+00  0.48993355559E-01  0.13341202172E-02  0.12852036265E+00  0.19354037553E-01 0.  0.
         14    1    1    2    0    0  0.20745148471E-01  0.93711749161E-03 -0.10379864901E-01  0.23215963681E-01  0.00000000000E+00 0. -1.
     999901    1    3    3    0    0 -0.13796620494E+00 -0.49930473051E-01  0.90457446840E-02  0.89219367367E+00  0.88000000000E+00 0.  1.
        -11    1    4    4    0    0  0.42437641298E-01  0.80507306362E-02  0.22532345027E-02  0.43256281040E-01  0.51100000000E-03 0.  1.
         11    1    4    4    0    0  0.74783415170E-01  0.40942624923E-01 -0.91911428549E-03  0.85264081607E-01  0.51100000000E-03 0. -1.
</event>
<event>
 8    1  0.1088021E+005  0.1043930E+01  0.7957747E-01            NaN
         13   -1    0    0    0    0  0.00000000000E+00  0.00000000000E+00  0.74505805969E-08  0.10566000000E+00  0.10566000000E+00 0.  1.
     999900   -1    0    0    0    0 -0.00000000000E+00 -0.00000000000E+00 -0.74505805969E-08  0.93827000000E+00  0.93827000000E+00 0. -1.
     999902    2    1    2    0    0 -0.21641651902E-01  0.68668580021E-02 -0.65793371592E-02  0.10202909959E+01  0.10200171145E+01 0.  0.
     999903    2    3    3    0    0 -0.12690085764E+00  0.20393864310E-01 -0.30358986030E-01  0.13359603599E+00  0.20161731781E-01 0.  0.
         14    1    1    2    0    0  0.21641651902E-01 -0.68668580021E-02  0.65793371592E-02  0.23639004068E-01  0.00000000000E+00 0. -1.
     999901    1    3    3    0    0  0.10525920573E+00 -0.13527006308E-01  0.23779648871E-01  0.88669495995E+00  0.88000000000E+00 0.  1.
        -11    1    4    4    0    0 -0.53411663312E-01  0.18673768657E-01 -0.12594798882E-01  0.57969004593E-01  0.51100000000E-03 0.  1.
         11    1    4    4    0    0 -0.73489194324E-01  0.17200956531E-02 -0.17764187148E-01  0.75627031394E-01  0.51100000000E-03 0. -1.
</event>
<event>
 8    1  0.1088021E+005  0.1043930E+01  0.7957747E-01            NaN
         13   -1    0    0    0    0  0.00000000000E+00  0.00000000000E+00  0.74505805969E-08  0.10566000000E+00  0.10566000000E+00 0.  1.
     999900   -1    0    0    0    0 -0.00000000000E+00 -0.00000000000E+00 -0.74505805969E-08  0.93827000000E+00  0.93827000000E+00 0. -1.
     999902    2    1    2    0    0  0.17289152906E-01 -0.10079939257E-01  0.15203859010E-02  0.10238593359E+01  0.10236625949E+01 0.  0.
     999903    2    3    3    0    0 -0.12109295998E+00  0.46141918455E-01 -0.61821471758E-02  0.13123968821E+00  0.19825620313E-01 0.  0.
         14    1    1    2    0    0 -0.17289152906E-01  0.10079939257E-01 -0.15203859010E-02  0.20070664088E-01  0.00000000000E+00 0. -1.
     999901    1    3    3    0    0  0.13838211289E+00 -0.56221857712E-01  0.77025330767E-02  0.89261964770E+00  0.88000000000E+00 0.  1.
        -11    1    4    4    0    0 -0.75332655945E-01  0.38641335990E-01 -0.21974357976E-02  0.84695051473E-01  0.51100000000E-03 0.  1.
         11    1    4    4    0    0 -0.45760304039E-01  0.75005824642E-02 -0.39847113782E-02  0.46544636735E-01  0.51100000000E-03 0. -1.
</event>
<event>
 8    1  0.1088021E+005  0.1043930E+01  0.7957747E-01            NaN
         13   -1    0    0    0    0  0.00000000000E+00  0.00000000000E+00  0.74505805969E-08  0.10566000000E+00  0.10566000000E+00 0.  1.
     999900   -1    0    0    0    0 -0.00000000000E+00 -0.00000000000E+00 -0.74505805969E-08  0.93827000000E+00  0.93827000000E+00 0. -1.
     999902    2    1    2    0    0 -0.15679328575E-01  0.17292426612E-01  0.41253767030E-02  0.10202258211E+01  0.10199504096E+01 0.  0.
     999903    2    3    3    0    0  0.17885234386E-02 -0.96593764552E-01 -0.82255842080E-01  0.12852132673E+00  0.20448806827E-01 0.  0.
         14    1    1    2    0    0  0.15679328575E-01 -0.17292426612E-01 -0.41253767030E-02  0.23704178864E-01  0.00000000000E+00 0. -1.
     999901    1    3    3    0    0 -0.17467852013E-01  0.11388619116E+00  0.86381218783E-01  0.89170449441E+00  0.88000000000E+00 0.  1.
        -11    1    4    4    0    0 -0.26885866275E-02 -0.21185381092E-01 -0.29324749964E-01  0.36280172981E-01  0.51100000000E-03 0.  1.
         11    1    4    4    0    0  0.44771100661E-02 -0.75408383460E-01 -0.52931092116E-01  0.92241153745E-01  0.51100000000E-03 0. -1.
</event>
<event>
 8    1  0.1088021E+005  0.1043930E+01  0.7957747E-01            NaN
         13   -1    0    0    0    0  0.00000000000E+00  0.00000000000E+00  0.74505805969E-08  0.10566000000E+00  0.10566000000E+00 0.  1.
     999900   -1    0    0    0    0 -0.00000000000E+00 -0.00000000000E+00 -0.74505805969E-08  0.93827000000E+00  0.93827000000E+00 0. -1.
     999902    2    1    2    0    0  0.31064232938E-02  0.11688878596E-01  0.20524827640E-01  0.10201067278E+01  0.10198285090E+01 0.  0.
     999903    2    3    3    0    0  0.56864211062E-01  0.94399056979E-01  0.71951731488E-01  0.13310300752E+00  0.19865510034E-01 0.  0.
         14    1    1    2    0    0 -0.31064232938E-02 -0.11688878596E-01 -0.20524827640E-01  0.23823272197E-01  0.00000000000E+00 0. -1.
     999901    1    3    3    0    0 -0.53757787769E-01 -0.82710178383E-01 -0.51426903847E-01  0.88700372028E+00  0.88000000000E+00 0. -1.
        -11    1    4    4    0    0  0.37429494772E-01  0.55989693942E-01  0.54546129551E-01  0.86668069533E-01  0.51100000000E-03 0.  1.
         11    1    4    4    0    0  0.19434716290E-01  0.38409363037E-01  0.17405601937E-01  0.46434937989E-01  0.51100000000E-03 0. -1.
</event>
<event>
 8    1  0.1088021E+005  0.1043930E+01  0.7957747E-01            NaN
         13   -1    0    0    0    0  0.00000000000E+00  0.00000000000E+00  0.74505805969E-08  0.10566000000E+00  0.10566000000E+00 0. -1.
     999900   -1    0    0    0    0 -0.00000000000E+00 -0.00000000000E+00 -0.74505805969E-08  0.93827000000E+00  0.93827000000E+00 0. -1.
     999902    2    1    2    0    0 -0.70209117018E-03 -0.14798682045E-01  0.19463036607E-01  0.10194697523E+01  0.10191762714E+01 0.  0.
     999903    2    3    3    0    0 -0.66735274077E-01  0.52826391875E-01 -0.94084926306E-01  0.12715440910E+00  0.84879863425E-02 0.  0.
         14    1    1    2    0    0  0.70209117018E-03  0.14798682045E-01 -0.19463036607E-01  0.24460247674E-01  0.00000000000E+00 0.  1.
     999901    1    3    3    0    0  0.66033182907E-01 -0.67625073920E-01  0.11354796291E+00  0.89231534322E+00  0.88000000000E+00 0.  1.
        -11    1    4    4    0    0 -0.48650184398E-01  0.38820445654E-01 -0.63048905515E-01  0.88596236096E-01  0.51100000000E-03 0.  1.
         11    1    4    4    0    0 -0.18085089679E-01  0.14005946220E-01 -0.31036020791E-01  0.38558173009E-01  0.51100000000E-03 0. -1.
</event>
<event>
 8    1  0.1088021E+005  0.1043930E+01  0.7957747E-01            NaN
         13   -1    0    0    0    0  0.00000000000E+00  0.00000000000E+00  0.74505805969E-08  0.10566000000E+00  0.10566000000E+00 0.  1.
     999900   -1    0    0    0    0 -0.00000000000E+00 -0.00000000000E+00 -0.74505805969E-08  0.93827000000E+00  0.93827000000E+00 0.  1.
     999902    2    1    2    0    0  0.27320141475E-02  0.17807683467E-01  0.15049471326E-01  0.10204552459E+01  0.10201852013E+01 0.  0.
     999903    2    3    3    0    0  0.14129939329E-01 -0.61646717253E-03  0.13028854417E+00  0.13267745507E+00  0.20692199617E-01 0.  0.
         14    1    1    2    0    0 -0.27320141475E-02 -0.17807683467E-01 -0.15049471326E-01  0.23474754077E-01  0.00000000000E+00 0. -1.
     999901    1    3    3    0    0 -0.11397925181E-01  0.18424150640E-01 -0.11523907284E+00  0.88777779085E+00  0.88000000000E+00 0.  1.
        -11    1    4    4    0    0  0.11017731435E-01  0.84079660167E-02  0.52393973992E-01  0.54198467969E-01  0.51100000000E-03 0.  1.
         11    1    4    4    0    0  0.31122078943E-02 -0.90244331892E-02  0.77894570176E-01  0.78478987100E-01  0.51100000000E-03 0. -1.
</event>
<event>
 8    1  0.1088021E+005  0.1043930E+01  0.7957747E-01            NaN
         13   -1    0    0    0    0  0.00000000000E+00  0.00000000000E+00  0.74505805969E-08  0.10566000000E+00  0.10566000000E+00 0.  1.
     999900   -1    0    0    0    0 -0.00000000000E+00 -0.00000000000E+00 -0.74505805969E-08  0.93827000000E+00  0.93827000000E+00 0. -1.
     999902    2    1    2    0    0 -0.18469475863E-01 -0.36360704956E-02 -0.16646814089E-01  0.10188011527E+01  0.10184912026E+01 0.  0.
     999903    2    3    3    0    0 -0.44072795044E-01 -0.10896901404E+00  0.51072587280E-01  0.12956750721E+00  0.19043961483E-01 0.  0.
         14    1    1    2    0    0  0.18469475863E-01  0.36360704956E-02  0.16646814089E-01  0.25128847300E-01  0.00000000000E+00 0. -1.
     999901    1    3    3    0    0  0.25603319181E-01  0.10533294355E+00 -0.67719401370E-01  0.88923364549E+00  0.88000000000E+00 0. -1.
        -11    1    4    4    0    0 -0.37894327169E-01 -0.85761039876E-01  0.48049404965E-01  0.10535626432E+00  0.51100000000E-03 0. -1.
         11    1    4    4    0    0 -0.61784678752E-02 -0.23207974166E-01  0.30231823155E-02  0.24211242894E-01  0.51100000000E-03 0.  1.
</event>
<event>
 8    1  0.1088021E+005  0.1043930E+01  0.7957747E-01            NaN
         13   -1    0    0    0    0  0.00000000000E+00  0.00000000000E+00  0.74505805969E-08  0.10566000000E+00  0.10566000000E+00 0. -1.
     999900   -1    0    0    0    0 -0.00000000000E+00 -0.00000000000E+00 -0.74505805969E-08  0.93827000000E+00  0.93827000000E+00 0. -1.
     999902    2    1    2    0    0  0.45496157338E-02  0.14132188440E-01  0.18961567582E-01  0.10198476663E+01  0.10195632906E+01 0.  0.
     999903    2    3    3    0    0  0.34196370932E-01  0.11968962022E+00  0.41446423841E-01  0.13275867959E+00  0.20299359190E-01 0.  0.
         14    1    1    2    0    0 -0.45496157338E-02 -0.14132188440E-01 -0.18961567582E-01  0.24082333744E-01  0.00000000000E+00 0. -1.
     999901    1    3    3    0    0 -0.29646755199E-01 -0.10555743178E+00 -0.22484856259E-01  0.88708898666E+00  0.88000000000E+00 0.  1.
        -11    1    4    4    0    0  0.19507692627E-01  0.64657776845E-01  0.11858102089E-01  0.68571523859E-01  0.51100000000E-03 0. -1.
         11    1    4    4    0    0  0.14688678305E-01  0.55031843379E-01  0.29588321751E-01  0.64187155733E-01  0.51100000000E-03 0.  1.
</event>
<event>
 8    1  0.1088021E+005  0.1043930E+01  0.7957747E-01            NaN
         13   -1    0    0    0    0  0.00000000000E+00  0.00000000000E+00  0.74505805969E-08  0.10566000000E+00  0.10566000000E+00 0.  1.
     999900   -1    0    0    0    0 -0.00000000000E+00 -0.00000000000E+00 -0.74505805969E-08  0.93827000000E+00  0.93827000000E+00 0.  1.
     999902    2    1    2    0    0 -0.46121541037E-02 -0.23149688318E-01  0.60697518539E-02  0.10195574350E+01  0.10192660798E+01 0.  0.
     999903    2    3    3    0    0 -0.62490990006E-02 -0.37520056918E-01  0.12522001855E+00  0.13140993990E+00  0.11904341593E-01 0.  0.
         14    1    1    2    0    0  0.46121541037E-02  0.23149688318E-01 -0.60697518539E-02  0.24372564950E-01  0.00000000000E+00 0.  1.
     999901    1    3    3    0    0  0.16369448969E-02  0.14370368600E-01 -0.11915026670E+00  0.88814749515E+00  0.88000000000E+00 0.  1.
        -11    1    4    4    0    0 -0.26015268757E-02 -0.12131474960E-02  0.15743884685E-01  0.16011580026E-01  0.51100000000E-03 0.  1.
         11    1    4    4    0    0 -0.36475721249E-02 -0.36306909422E-01  0.10947613387E+00  0.11539835988E+00  0.51100000000E-03 0. -1.
</event>
<event>
 8    1  0.1088021E+005  0.1043930E+01  0.7957747E-01            NaN
         13   -1    0    0    0    0  0.00000000000E+00  0.00000000000E+00  0.74505805969E-08  0.10566000000E+00  0.10566000000E+00 0.  1.
     999900   -1    0    0    0    0 -0.00000000000E+00 -0.00000000000E+00 -0.74505805969E-08  0.93827000000E+00  0.93827000000E+00 0. -1.
     999902    2    1    2    0    0 -0.21704143209E-01  0.63169409255E-02 -0.37745424386E-02  0.10210123050E+01  0.10207550667E+01 0.  0.
     999903    2    3    3    0    0 -0.37547829442E-01 -0.12318201758E+00  0.16026784271E-01  0.13117350204E+00  0.19130626552E-01 0.  0.
         14    1    1    2    0    0  0.21704143209E-01 -0.63169409255E-02  0.37745424386E-02  0.22917695035E-01  0.00000000000E+00 0.  1.
     999901    1    3    3    0    0  0.15843686233E-01  0.12949895851E+00 -0.19801326709E-01  0.88983880292E+00  0.88000000000E+00 0. -1.
        -11    1    4    4    0    0 -0.19646116365E-01 -0.80761002905E-01  0.18156697357E-01  0.85077824716E-01  0.51100000000E-03 0.  1.
         11    1    4    4    0    0 -0.17901713077E-01 -0.42421014677E-01 -0.21299130866E-02  0.46095677326E-01  0.51100000000E-03 0. -1.
</event>
<event>
 8    1  0.1088021E+005  0.1043930E+01  0.7957747E-01            NaN
         13   -1    0    0    0    0  0.00000000000E+00  0.00000000000E+00  0.74505805969E-08  0.10566000000E+00  0.10566000000E+00 0.  1.
     999900   -1    0    0    0    0 -0.00000000000E+00 -0.00000000000E+00 -0.74505805969E-08  0.93827000000E+00  0.93827000000E+00 0. -1.
     999902    2    1    2    0    0 -0.21072110180E-01  0.98951095208E-03 -0.48282309892E-02  0.10222891873E+01  0.10220601047E+01 0.  0.
     999903    2    3    3    0    0 -0.51644460450E-01  0.11865507852E+00 -0.26570952608E-01  0.13366519465E+00  0.20351677654E-01 0.  0.
         14    1    1    2    0    0  0.21072110180E-01 -0.98951095208E-03  0.48282309892E-02  0.21640812689E-01  0.00000000000E+00 0.  1.
     999901    1    3    3    0    0  0.30572350270E-01 -0.11766556757E+00  0.21742721619E-01  0.88862399266E+00  0.88000000000E+00 0.  1.
        -11    1    4    4    0    0 -0.40232120849E-01  0.91419306674E-01 -0.11600504658E-01  0.10055319990E+00  0.51100000000E-03 0.  1.
         11    1    4    4    0    0 -0.11412339600E-01  0.27235771849E-01 -0.14970447950E-01  0.33111994748E-01  0.51100000000E-03 0. -1.
</event>
<event>
 8    1  0.1088021E+005  0.1043930E+01  0.7957747E-01            NaN
         13   -1    0    0    0    0  0.00000000000E+00  0.00000000000E+00  0.74505805969E-08  0.10566000000E+00  0.10566000000E+00 0. -1.
     999900   -1    0    0    0    0 -0.00000000000E+00 -0.00000000000E+00 -0.74505805969E-08  0.93827000000E+00  0.93827000000E+00 0.  1.
     999902    2    1    2    0    0  0.21573372664E-01  0.61515647154E-02 -0.84912916058E-02  0.10199434582E+01  0.10196613671E+01 0.  0.
     999903    2    3    3    0    0 -0.10607282974E+00 -0.38702756851E-01  0.55366479313E-01  0.12731628063E+00  0.19865540155E-01 0.  0.
         14    1    1    2    0    0 -0.21573372664E-01 -0.61515647154E-02  0.84912916058E-02  0.23986541845E-01  0.00000000000E+00 0. -1.
     999901    1    3    3    0    0  0.12764620240E+00  0.44854321566E-01 -0.63857770919E-01  0.89262717753E+00  0.88000000000E+00 0.  1.
        -11    1    4    4    0    0 -0.56170887064E-02 -0.34507381419E-02 -0.12593719670E-02  0.67310042349E-02  0.51100000000E-03 0. -1.
         11    1    4    4    0    0 -0.10045574103E+00 -0.35252018709E-01  0.56625851280E-01  0.12058527639E+00  0.51100000000E-03 0.  1.
</event>
<event>
 8    1  0.1088021E+005  0.1043930E+01  0.7957747E-01            NaN
         13   -1    0    0    0    0  0.00000000000E+00  0.00000000000E+00  0.74505805969E-08  0.10566000000E+00  0.10566000000E+00 0.  1.
     999900   -1    0    0    0    0 -0.00000000000E+00 -0.00000000000E+00 -0.74505805969E-08  0.93827000000E+00  0.93827000000E+00 0. -1.
     999902    2    1    2    0    0  0.10035248958E-01 -0.96665326335E-02  0.18978117099E-01  0.10203860623E+01  0.10201144049E+01 0.  0.
     999903    2    3    3    0    0  0.82691451494E-01  0.85102708043E-01 -0.48102639565E-01  0.12979077784E+00  0.21247000099E-01 0.  0.
         14    1    1    2    0    0 -0.10035248958E-01  0.96665326335E-02 -0.18978117099E-01  0.23543937722E-01  0.00000000000E+00 0. -1.
     999901    1    3    3    0    0 -0.72656202536E-01 -0.94769240677E-01  0.67080756665E-01  0.89059528444E+00  0.88000000000E+00 0.  1.
        -11    1    4    4    0    0  0.80384451436E-01  0.74419694879E-01 -0.44903474503E-01  0.11839144463E+00  0.51100000000E-03 0.  1.
         11    1    4    4    0    0  0.23070000574E-02  0.10683013165E-01 -0.31991650627E-02  0.11399333210E-01  0.51100000000E-03 0. -1.
</event>
<event>
 8    1  0.1315152E+005  0.1043930E+01  0.7957747E-01            NaN
         13   -1    0    0    0    0  0.00000000000E+00  0.00000000000E+00  0.74505805969E-08  0.10566000000E+00  0.10566000000E+00 0.  1.
     999900   -1    0    0    0    0 -0.00000000000E+00 -0.00000000000E+00 -0.74505805969E-08  0.93827000000E+00  0.93827000000E+00 0. -1.
     999902    2    1    2    0    0  0.99239416124E-02 -0.14919658990E-01  0.14863512221E-01  0.10206490027E+01  0.10203834484E+01 0.  0.
     999903    2    3    3    0    0  0.32818877054E-01  0.55564443518E-01  0.11338659590E+00  0.13205517824E+00  0.20434380290E-01 0.  0.
         14    1    1    2    0    0 -0.99239416124E-02  0.14919658990E-01 -0.14863512221E-01  0.23280997338E-01  0.00000000000E+00 0. -1.
     999901    1    3    3    0    0 -0.22894935442E-01 -0.70484102508E-01 -0.98523083675E-01  0.88859382442E+00  0.88000000000E+00 0. -1.
        -11    1    4    4    0    0  0.29077668467E-01  0.36552106366E-01  0.65995198240E-01  0.80852919520E-01  0.51100000000E-03 0. -1.
         11    1    4    4    0    0  0.37412085870E-02  0.19012337152E-01  0.47391397656E-01  0.51202258725E-01  0.51100000000E-03 0.  1.
</event>
<event>
 8    1  0.1088021E+005  0.1043930E+01  0.7957747E-01            NaN
         13   -1    0    0    0    0  0.00000000000E+00  0.00000000000E+00  0.74505805969E-08  0.10566000000E+00  0.10566000000E+00 0.  1.
     999900   -1    0    0    0    0 -0.00000000000E+00 -0.00000000000E+00 -0.74505805969E-08  0.93827000000E+00  0.93827000000E+00 0.  1.
     999902    2    1    2    0    0  0.18660361376E-02  0.26708880340E-01  0.57857801753E-02  0.10165380006E+01  0.10161688762E+01 0.  0.
     999903    2    3    3    0    0  0.22794747997E-01 -0.11375649569E+00  0.41131374265E-01  0.12445176940E+00  0.18338814278E-01 0.  0.
         14    1    1    2    0    0 -0.18660361376E-02 -0.26708880340E-01 -0.57857801753E-02  0.27391999418E-01  0.00000000000E+00 0.  1.
     999901    1    3    3    0    0 -0.20928711859E-01  0.14046537603E+00 -0.35345594090E-01  0.89208623118E+00  0.88000000000E+00 0.  1.
        -11    1    4    4    0    0  0.93341785994E-02 -0.49592217141E-01  0.27553567622E-01  0.57497609523E-01  0.51100000000E-03 0. -1.
         11    1    4    4    0    0  0.13460569397E-01 -0.64164278552E-01  0.13577806643E-01  0.66954159877E-01  0.51100000000E-03 0.  1.
</event>
<event>
 8    1  0.1088021E+005  0.1043930E+01  0.7957747E-01            NaN
         13   -1    0    0    0    0  0.00000000000E+00  0.00000000000E+00  0.74505805969E-08  0.10566000000E+00  0.10566000000E+00 0. -1.
     999900   -1    0    0    0    0 -0.00000000000E+00 -0.00000000000E+00 -0.74505805969E-08  0.93827000000E+00  0.93827000000E+00 0. -1.
     999902    2    1    2    0    0 -0.63033524160E-02 -0.19583730448E-01  0.87946008757E-02  0.10215559133E+01  0.10213108657E+01 0.  0.
     999903    2    3    3    0    0  0.88496520697E-02 -0.13078201842E+00 -0.18918056594E-01  0.13399596370E+00  0.20365970125E-01 0.  0.
         14    1    1    2    0    0  0.63033524160E-02  0.19583730448E-01 -0.87946008757E-02  0.22374086674E-01  0.00000000000E+00 0.  1.
     999901    1    3    3    0    0 -0.15153004486E-01  0.11119828797E+00  0.27712657470E-01  0.88755994962E+00  0.88000000000E+00 0.  1.
        -11    1    4    4    0    0 -0.30044606814E-02 -0.74316146570E-01 -0.44551387628E-02  0.74511917217E-01  0.51100000000E-03 0.  1.
         11    1    4    4    0    0  0.11854112751E-01 -0.56465871851E-01 -0.14462917831E-01  0.59484046485E-01  0.51100000000E-03 0. -1.
</event>
<event>
 8    1  0.1088021E+005  0.1043930E+01  0.7957747E-01            NaN
         13   -1    0    0    0    0  0.00000000000E+00  0.00000000000E+00  0.74505805969E-08  0.10566000000E+00  0.10566000000E+00 0.  1.
     999900   -1    0    0    0    0 -0.00000000000E+00 -0.00000000000E+00 -0.74505805969E-08  0.93827000000E+00  0.93827000000E+00 0.  1.
     999902    2    1    2    0    0 -0.18757238362E-01  0.12383557161E-01  0.63753610742E-03  0.10214446063E+01  0.10211970871E+01 0.  0.
     999903    2    3    3    0    0  0.73877842305E-01  0.10656764076E+00 -0.87400509187E-02  0.13153458896E+00  0.20257392782E-01 0.  0.
         14    1    1    2    0    0  0.18757238362E-01 -0.12383557161E-01 -0.63753610742E-03  0.22485393730E-01  0.00000000000E+00 0.  1.
     999901    1    3    3    0    0 -0.92635080666E-01 -0.94184083596E-01  0.93775870261E-02  0.88991001731E+00  0.88000000000E+00 0. -1.
        -11    1    4    4    0    0  0.49024206154E-01  0.53136990442E-01 -0.38513237496E-02  0.72401701347E-01  0.51100000000E-03 0.  1.
         11    1    4    4    0    0  0.24853636151E-01  0.53430650315E-01 -0.48887271691E-02  0.59132887612E-01  0.51100000000E-03 0. -1.
</event>
<event>
 8    1  0.1088021E+005  0.1043930E+01  0.7957747E-01            NaN
         13   -1    0    0    0    0  0.00000000000E+00  0.00000000000E+00  0.74505805969E-08  0.10566000000E+00  0.10566000000E+00 0. -1.
     999900   -1    0    0    0    0 -0.00000000000E+00 -0.00000000000E+00 -0.74505805969E-08  0.93827000000E+00  0.93827000000E+00 0.  1.
     999902    2    1    2    0    0 -0.22866381585E-01  0.24222077975E-02  0.46336096049E-02  0.10204734692E+01  0.10202038485E+01 0.  0.
     999903    2    3    3    0    0 -0.35677977192E-01 -0.46756256452E-01  0.11642692067E+00  0.13194637189E+00  0.19888479658E-01 0.  0.
         14    1    1    2    0    0  0.22866381585E-01 -0.24222077975E-02 -0.46336096049E-02  0.23456530762E-01  0.00000000000E+00 0.  1.
     999901    1    3    3    0    0  0.12811595606E-01  0.49178464250E-01 -0.11179331107E+00  0.88852709735E+00  0.88000000000E+00 0.  1.
        -11    1    4    4    0    0 -0.37980726039E-01 -0.41264731709E-01  0.10625018916E+00  0.12014440249E+00  0.51100000000E-03 0. -1.
         11    1    4    4    0    0  0.23027488468E-02 -0.54915247431E-02  0.10176731512E-01  0.11801969392E-01  0.51100000000E-03 0.  1.
</event>
<event>
 8    1  0.1088021E+005  0.1043930E+01  0.7957747E-01            NaN
         13   -1    0    0    0    0  0.00000000000E+00  0.00000000000E+00  0.74505805969E-08  0.10566000000E+00  0.10566000000E+00 0. -1.
     999900   -1    0    0    0    0 -0.00000000000E+00 -0.00000000000E+00 -0.74505805969E-08  0.93827000000E+00  0.93827000000E+00 0.  1.
     999902    2    1    2    0    0  0.47211215907E-02  0.16788974893E-01  0.17803395909E-01  0.10190077294E+01  0.10187029169E+01 0.  0.
     999903    2    3    3    0    0 -0.11172108352E+00 -0.49294411919E-01 -0.29268608999E-01  0.12763711354E+00  0.22870105587E-01 0.  0.
         14    1    1    2    0    0 -0.47211215907E-02 -0.16788974893E-01 -0.17803395909E-01  0.24922270621E-01  0.00000000000E+00 0.  1.
     999901    1    3    3    0    0  0.11644220511E+00  0.66083386812E-01  0.47072004908E-01  0.89137061584E+00  0.88000000000E+00 0.  1.
        -11    1    4    4    0    0 -0.57491806141E-01 -0.17273157413E-01 -0.23222874040E-01  0.64367948080E-01  0.51100000000E-03 0. -1.
         11    1    4    4    0    0 -0.54229277378E-01 -0.32021254506E-01 -0.60457349587E-02  0.63269165455E-01  0.51100000000E-03 0.  1.
</event>
<event>
 8    1  0.1088021E+005  0.1043930E+01  0.7957747E-01            NaN
         13   -1    0    0    0    0  0.00000000000E+00  0.00000000000E+00  0.74505805969E-08  0.10566000000E+00  0.10566000000E+00 0. -1.
     999900   -1    0    0    0    0 -0.00000000000E+00 -0.00000000000E+00 -0.74505805969E-08  0.93827000000E+00  0.93827000000E+00 0.  1.
     999902    2    1    2    0    0 -0.15688502083E-01  0.90732612430E-02 -0.11365336651E-01  0.10225378509E+01  0.10223140576E+01 0.  0.
     999903    2    3    3    0    0  0.94267225201E-01  0.54142773533E-01  0.69978522563E-01  0.13083254847E+00  0.20060220481E-01 0.  0.
         14    1    1    2    0    0  0.15688502083E-01 -0.90732612430E-02  0.11365336651E-01  0.21392149129E-01  0.00000000000E+00 0. -1.
     999901    1    3    3    0    0 -0.10995572728E+00 -0.45069512290E-01 -0.81343859213E-01  0.89170530240E+00  0.88000000000E+00 0. -1.
        -11    1    4    4    0    0  0.43596922987E-01  0.32343579852E-01  0.43899501525E-01  0.69815658750E-01  0.51100000000E-03 0. -1.
         11    1    4    4    0    0  0.50670302214E-01  0.21799193681E-01  0.26079021038E-01  0.61016889719E-01  0.51100000000E-03 0.  1.
</event>
<event>
 8    1  0.1088021E+005  0.1043930E+01  0.7957747E-01            NaN
         13   -1    0    0    0    0  0.00000000000E+00  0.00000000000E+00  0.74505805969E-08  0.10566000000E+00  0.10566000000E+00 0.  1.
     999900   -1    0    0    0    0 -0.00000000000E+00 -0.00000000000E+00 -0.74505805969E-08  0.93827000000E+00  0.93827000000E+00 0.  1.
     999902    2    1    2    0    0 -0.79499292404E-02 -0.15961245530E-01  0.13745486806E-01  0.10214155348E+01  0.10211673681E+01 0.  0.
     999903    2    3    3    0    0  0.40132051952E-02 -0.11273797241E+00 -0.66467469590E-01  0.13240317845E+00  0.19665220822E-01 0.  0.
         14    1    1    2    0    0  0.79499292404E-02  0.15961245530E-01 -0.13745486806E-01  0.22514465158E-01  0.00000000000E+00 0. -1.
     999901    1    3    3    0    0 -0.11963134436E-01  0.96776726880E-01  0.80212956396E-01  0.88901235640E+00  0.88000000000E+00 0.  1.
        -11    1    4    4    0    0  0.45070954164E-02 -0.29158291158E-01 -0.85767025088E-02  0.30730128527E-01  0.51100000000E-03 0. -1.
         11    1    4    4    0    0 -0.49389022127E-03 -0.83579681252E-01 -0.57890767082E-01  0.10167304992E+00  0.51100000000E-03 0.  1.
</event>
<event>
 8    1  0.1088021E+005  0.1043930E+01  0.7957747E-01            NaN
         13   -1    0    0    0    0  0.00000000000E+00  0.00000000000E+00  0.74505805969E-08  0.10566000000E+00  0.10566000000E+00 0. -1.
     999900   -1    0    0    0    0 -0.00000000000E+00 -0.00000000000E+00 -0.74505805969E-08  0.93827000000E+00  0.93827000000E+00 0. -1.
     999902    2    1    2    0    0  0.24686342309E-01 -0.65943689661E-03  0.11873877689E-01  0.10165285525E+01  0.10161591700E+01 0.  0.
     999903    2    3    3    0    0  0.12587438271E+00 -0.15406552900E-01 -0.20117088054E-01  0.13002986731E+00  0.20526740266E-01 0.  0.
         14    1    1    2    0    0 -0.24686342309E-01  0.65943689661E-03 -0.11873877689E-01  0.27401447498E-01  0.00000000000E+00 0.  1.
     999901    1    3    3    0    0 -0.10118804040E+00  0.14747116004E-01  0.31990965743E-01  0.88649868519E+00  0.88000000000E+00 0. -1.
        -11    1    4    4    0    0  0.65855434272E-01  0.18409861438E-02 -0.13261895508E-01  0.67204660899E-01  0.51100000000E-03 0. -1.
         11    1    4    4    0    0  0.60018948442E-01 -0.17247539044E-01 -0.68551925459E-02  0.62825206414E-01  0.51100000000E-03 0.  1.
</event>
<event>
 8    1  0.1130350E+005  0.1043930E+01  0.7957747E-01            NaN
         13   -1    0    0    0    0  0.00000000000E+00  0.00000000000E+00  0.74505805969E-08  0.10566000000E+00  0.10566000000E+00 0.  1.
     999900   -1    0    0    0    0 -0.00000000000E+00 -0.00000000000E+00 -0.74505805969E-08  0.93827000000E+00  0.93827000000E+00 0.  1.
     999902    2    1    2    0    0  0.22243891591E-01 -0.10392202588E-02  0.78916745752E-02  0.10203048181E+01  0.10200312606E+01 0.  0.
     999903    2    3    3    0    0 -0.39401728433E-01  0.92110819016E-01 -0.78708575709E-01  0.12902668215E+00  0.20394745240E-01 0.  0.
         14    1    1    2    0    0 -0.22243891591E-01  0.10392202588E-02 -0.78916745752E-02  0.23625181893E-01  0.00000000000E+00 0. -1.
     999901    1    3    3    0    0  0.61645620024E-01 -0.93150039275E-01  0.86600250284E-01  0.89127813596E+00  0.88000000000E+00 0. -1.
        -11    1    4    4    0    0 -0.23101400339E-01  0.74957289069E-01 -0.57637288547E-01  0.97337495521E-01  0.51100000000E-03 0. -1.
         11    1    4    4    0    0 -0.16300328094E-01  0.17153529947E-01 -0.21071287161E-01  0.31689186630E-01  0.51100000000E-03 0.  1.
</event>
<event>
 8    1  0.1088021E+005  0.1043930E+01  0.7957747E-01            NaN
         13   -1    0    0    0    0  0.00000000000E+00  0.00000000000E+00  0.74505805969E-08  0.10566000000E+00  0.10566000000E+00 0. -1.
     999900   -1    0    0    0    0 -0.00000000000E+00 -0.00000000000E+00 -0.74505805969E-08  0.93827000000E+00  0.93827000000E+00 0.  1.
     999902    2    1    2    0    0 -0.19471167341E-01 -0.17237110185E-01 -0.22890750167E-01  0.10092856532E+01  0.10086908837E+01 0.  0.
     999903    2    3    3    0    0 -0.42621293642E-01  0.10276532968E+00  0.36731671096E-01  0.11884118715E+00  0.19917942812E-01 0.  0.
         14    1    1    2    0    0  0.19471167341E-01  0.17237110185E-01  0.22890750167E-01  0.34644346846E-01  0.00000000000E+00 0. -1.
     999901    1    3    3    0    0  0.23150126301E-01 -0.12000243986E+00 -0.59622421264E-01  0.89044446600E+00  0.88000000000E+00 0. -1.
        -11    1    4    4    0    0 -0.30798202418E-01  0.49941686508E-01  0.15464612976E-01  0.60680447418E-01  0.51100000000E-03 0. -1.
         11    1    4    4    0    0 -0.11823091224E-01  0.52823643171E-01  0.21267058121E-01  0.58160739731E-01  0.51100000000E-03 0.  1.
</event>
<event>
 8    1  0.1088021E+005  0.1043930E+01  0.7957747E-01            NaN
         13   -1    0    0    0    0  0.00000000000E+00  0.00000000000E+00  0.74505805969E-08  0.10566000000E+00  0.10566000000E+00 0.  1.
     999900   -1    0    0    0    0 -0.00000000000E+00 -0.00000000000E+00 -0.74505805969E-08  0.93827000000E+00  0.93827000000E+00 0.  1.
     999902    2    1    2    0    0 -0.37526053808E-02  0.19554165133E-01 -0.20589205266E-01  0.10152880239E+01  0.10148839385E+01 0.  0.
     999903    2    3    3    0    0  0.26343357439E-01  0.10953494801E+00  0.54956034393E-01  0.12696972988E+00  0.20230404631E-01 0.  0.
         14    1    1    2    0    0  0.37526053808E-02 -0.19554165133E-01  0.20589205266E-01  0.28641976096E-01  0.00000000000E+00 0.  1.
     999901    1    3    3    0    0 -0.30095962820E-01 -0.89980782882E-01 -0.75545239659E-01  0.88831829403E+00  0.88000000000E+00 0.  1.
        -11    1    4    4    0    0  0.14722512868E-01  0.65056884398E-01  0.43352463207E-01  0.79554055709E-01  0.51100000000E-03 0. -1.
         11    1    4    4    0    0  0.11620844571E-01  0.44478063617E-01  0.11603571185E-01  0.47415674169E-01  0.51100000000E-03 0.  1.
</event>
<event>
 8    1  0.1088021E+005  0.1043930E+01  0.7957747E-01            NaN
         13   -1    0    0    0    0  0.00000000000E+00  0.00000000000E+00  0.74505805969E-08  0.10566000000E+00  0.10566000000E+00 0.  1.
     999900   -1    0    0    0    0 -0.00000000000E+00 -0.00000000000E+00 -0.74505805969E-08  0.93827000000E+00  0.93827000000E+00 0. -1.
     999902    2    1    2    0    0  0.91152441497E-02 -0.44960784525E-02 -0.21394209338E-01  0.10202442534E+01  0.10199692751E+01 0.  0.
     999903    2    3    3    0    0  0.28853784076E-01  0.91653014514E-01 -0.88528059983E-01  0.13224582329E+00  0.20467643908E-01 0.  0.
         14    1    1    2    0    0 -0.91152441497E-02  0.44960784525E-02  0.21394209338E-01  0.23685746569E-01  0.00000000000E+00 0.  1.
     999901    1    3    3    0    0 -0.19738539927E-01 -0.96149092967E-01  0.67133850646E-01  0.88799843014E+00  0.88000000000E+00 0.  1.
        -11    1    4    4    0    0  0.10179253583E-01  0.18385175222E-01 -0.10159086030E-01  0.23347377185E-01  0.51100000000E-03 0.  1.
         11    1    4    4    0    0  0.18674530493E-01  0.73267839292E-01 -0.78368973954E-01  0.10889844610E+00  0.51100000000E-03 0. -1.
</event>
<event>
 8    1  0.1088021E+005  0.1043930E+01  0.7957747E-01            NaN
         13   -1    0    0    0    0  0.00000000000E+00  0.00000000000E+00  0.74505805969E-08  0.10566000000E+00  0.10566000000E+00 0.  1.
     999900   -1    0    0    0    0 -0.00000000000E+00 -0.00000000000E+00 -0.74505805969E-08  0.93827000000E+00  0.93827000000E+00 0.  1.
     999902    2    1    2    0    0  0.15042338332E-01 -0.11196841510E-01 -0.14645729248E-01  0.10201363330E+01  0.10198588135E+01 0.  0.
     999903    2    3    3    0    0 -0.76113807821E-01  0.41225438207E-01  0.91528971813E-01  0.12753866021E+00  0.19892427474E-01 0.  0.
         14    1    1    2    0    0 -0.15042338332E-01  0.11196841510E-01  0.14645729248E-01  0.23793666962E-01  0.00000000000E+00 0.  1.
     999901    1    3    3    0    0  0.91156146153E-01 -0.52422279716E-01 -0.10617470106E+00  0.89259767283E+00  0.88000000000E+00 0. -1.
        -11    1    4    4    0    0 -0.17297813454E-01  0.27697923514E-02  0.11151001429E-01  0.20772386812E-01  0.51100000000E-03 0.  1.
         11    1    4    4    0    0 -0.58815994366E-01  0.38455645855E-01  0.80377970384E-01  0.10676627340E+00  0.51100000000E-03 0. -1.
</event>
<event>
 8    1  0.1088021E+005  0.1043930E+01  0.7957747E-01            NaN
         13   -1    0    0    0    0  0.00000000000E+00  0.00000000000E+00  0.74505805969E-08  0.10566000000E+00  0.10566000000E+00 0. -1.
     999900   -1    0    0    0    0 -0.00000000000E+00 -0.00000000000E+00 -0.74505805969E-08  0.93827000000E+00  0.93827000000E+00 0. -1.
     999902    2    1    2    0    0  0.57346682161E-02  0.17780009561E-01 -0.14377156433E-01  0.10203563328E+01  0.10200839809E+01 0.  0.
     999903    2    3    3    0    0  0.41375827267E-01  0.11364732730E+00 -0.53121949239E-01  0.13358579097E+00  0.19888387952E-01 0.  0.
         14    1    1    2    0    0 -0.57346682161E-02 -0.17780009561E-01  0.14377156433E-01  0.23573667230E-01  0.00000000000E+00 0. -1.
     999901    1    3    3    0    0 -0.35641159050E-01 -0.95867317736E-01  0.38744792805E-01  0.88677054180E+00  0.88000000000E+00 0.  1.
        -11    1    4    4    0    0  0.13231155825E-01  0.64176942666E-01 -0.31399601694E-01  0.72663192622E-01  0.51100000000E-03 0.  1.
         11    1    4    4    0    0  0.28144671441E-01  0.49470384632E-01 -0.21722347544E-01  0.60922598352E-01  0.51100000000E-03 0. -1.
</event>
<event>
 8    1  0.1088021E+005  0.1043930E+01  0.7957747E-01            NaN
         13   -1    0    0    0    0  0.00000000000E+00  0.00000000000E+00  0.74505805969E-08  0.10566000000E+00  0.10566000000E+00 0. -1.
     999900   -1    0    0    0    0 -0.00000000000E+00 -0.00000000000E+00 -0.74505805969E-08  0.93827000000E+00  0.93827000000E+00 0. -1.
     999902    2    1    2    0    0  0.16504519405E-01 -0.16403790540E-01 -0.41055368799E-02  0.10203008033E+01  0.10200271517E+01 0.  0.
     999903    2    3    3    0    0  0.29434723493E-01 -0.11330286448E+00 -0.60285890231E-01  0.13310699535E+00  0.19471558866E-01 0.  0.
         14    1    1    2    0    0 -0.16504519405E-01  0.16403790540E-01  0.41055368799E-02  0.23629196727E-01  0.00000000000E+00 0.  1.
     999901    1    3    3    0    0 -0.12930204088E-01  0.96899073940E-01  0.56180353351E-01  0.88719380792E+00  0.88000000000E+00 0.  1.
        -11    1    4    4    0    0  0.29659145245E-01 -0.89833662045E-01 -0.53433529362E-01  0.10865152974E+00  0.51100000000E-03 0. -1.
         11    1    4    4    0    0 -0.22442175178E-03 -0.23469202435E-01 -0.68523608689E-02  0.24455465617E-01  0.51100000000E-03 0.  1.
</event>
<event>
 8    1  0.1088021E+005  0.1043930E+01  0.7957747E-01            NaN
         13   -1    0    0    0    0  0.00000000000E+00  0.00000000000E+00  0.74505805969E-08  0.10566000000E+00  0.10566000000E+00 0. -1.
     999900   -1    0    0    0    0 -0.00000000000E+00 -0.00000000000E+00 -0.74505805969E-08  0.93827000000E+00  0.93827000000E+00 0. -1.
     999902    2    1    2    0    0  0.21591073214E-01 -0.47680361973E-02  0.88247482463E-02  0.10201227575E+01  0.10198449175E+01 0.  0.
     999903    2    3    3    0    0  0.11711293695E+00  0.55901382239E-01 -0.17929697464E-01  0.13247361225E+00  0.19681955024E-01 0.  0.
         14    1    1    2    0    0 -0.21591073214E-01  0.47680361973E-02 -0.88247482463E-02  0.23807242455E-01  0.00000000000E+00 0. -1.
     999901    1    3    3    0    0 -0.95521863733E-01 -0.60669418436E-01  0.26754445711E-01  0.88764914530E+00  0.88000000000E+00 0.  1.
        -11    1    4    4    0    0  0.70410756059E-01  0.23099259469E-01 -0.12374733843E-01  0.75130855948E-01  0.51100000000E-03 0.  1.
         11    1    4    4    0    0  0.46702180888E-01  0.32802122770E-01 -0.55549636211E-02  0.57342756297E-01  0.51100000000E-03 0. -1.
</event>
<event>
 8    1  0.1088021E+005  0.1043930E+01  0.7957747E-01            NaN
         13   -1    0    0    0    0  0.00000000000E+00  0.00000000000E+00  0.74505805969E-08  0.10566000000E+00  0.10566000000E+00 0. -1.
     999900   -1    0    0    0    0 -0.00000000000E+00 -0.00000000000E+00 -0.74505805969E-08  0.93827000000E+00  0.93827000000E+00 0.  1.
     999902    2    1    2    0    0  0.51869725966E-02 -0.21093115696E-02  0.22460737623E-01  0.10207818119E+01  0.10205193133E+01 0.  0.
     999903    2    3    3    0    0  0.99547700845E-01 -0.79615410042E-01  0.26031137802E-01  0.13234279307E+00  0.24261831802E-01 0.  0.
         14    1    1    2    0    0 -0.51869725966E-02  0.21093115696E-02 -0.22460737623E-01  0.23148188149E-01  0.00000000000E+00 0.  1.
     999901    1    3    3    0    0 -0.94360728248E-01  0.77506098473E-01 -0.35704001781E-02  0.88843901878E+00  0.88000000000E+00 0. -1.
        -11    1    4    4    0    0  0.72745274848E-01 -0.70105454729E-01  0.16653281275E-01  0.10239259101E+00  0.51100000000E-03 0. -1.
         11    1    4    4    0    0  0.26802425997E-01 -0.95099553136E-02  0.93778565261E-02  0.29950202059E-01  0.51100000000E-03 0.  1.
</event>
<event>
 8    1  0.1088021E+005  0.1043930E+01  0.7957747E-01            NaN
         13   -1    0    0    0    0  0.00000000000E+00  0.00000000000E+00  0.74505805969E-08  0.10566000000E+00  0.10566000000E+00 0. -1.
     999900   -1    0    0    0    0 -0.00000000000E+00 -0.00000000000E+00 -0.74505805969E-08  0.93827000000E+00  0.93827000000E+00 0.  1.
     999902    2    1    2    0    0  0.26075691771E-02  0.10748760097E-01  0.22755572447E-01  0.10186287878E+01  0.10183145172E+01 0.  0.
     999903    2    3    3    0    0  0.10637667706E+00  0.66540313724E-01  0.28379492561E-01  0.13075922888E+00  0.23430099595E-01 0.  0.
         14    1    1    2    0    0 -0.26075691771E-02 -0.10748760097E-01 -0.22755572447E-01  0.25301212185E-01  0.00000000000E+00 0.  1.
     999901    1    3    3    0    0 -0.10376910788E+00 -0.55791553627E-01 -0.56239201144E-02  0.88786955894E+00  0.88000000000E+00 0. -1.
        -11    1    4    4    0    0  0.73458998202E-01  0.53228391976E-01  0.29006782985E-01  0.95242536240E-01  0.51100000000E-03 0.  1.
         11    1    4    4    0    0  0.32917678855E-01  0.13311921748E-01 -0.62729042391E-03  0.35516692640E-01  0.51100000000E-03 0. -1.
</event>
<event>
 8    1  0.1088021E+005  0.1043930E+01  0.7957747E-01            NaN
         13   -1    0    0    0    0  0.00000000000E+00  0.00000000000E+00  0.74505805969E-08  0.10566000000E+00  0.10566000000E+00 0. -1.
     999900   -1    0    0    0    0 -0.00000000000E+00 -0.00000000000E+00 -0.74505805969E-08  0.93827000000E+00  0.93827000000E+00 0.  1.
     999902    2    1    2    0    0 -0.12914870390E-01  0.13550743866E-01 -0.14788812999E-01  0.10200736481E+01  0.10197946470E+01 0.  0.
     999903    2    3    3    0    0 -0.40475374012E-01  0.10276919578E+00 -0.71758152893E-01  0.13330140044E+00  0.20500423144E-01 0.  0.
         14    1    1    2    0    0  0.12914870390E-01 -0.13550743866E-01  0.14788812999E-01  0.23856351909E-01  0.00000000000E+00 0. -1.
     999901    1    3    3    0    0  0.27560503622E-01 -0.89218451914E-01  0.56969339894E-01  0.88677224765E+00  0.88000000000E+00 0. -1.
        -11    1    4    4    0    0 -0.26265896473E-02  0.13689040094E-01 -0.17374197491E-01  0.22280319821E-01  0.51100000000E-03 0. -1.
         11    1    4    4    0    0 -0.37848784365E-01  0.89080155686E-01 -0.54383955403E-01  0.11102108062E+00  0.51100000000E-03 0.  1.
</event>
<event>
 8    1  0.1088021E+005  0.1043930E+01  0.7957747E-01            NaN
         13   -1    0    0    0    0  0.00000000000E+00  0.00000000000E+00  0.74505805969E-08  0.10566000000E+00  0.10566000000E+00 0. -1.
     999900   -1    0    0    0    0 -0.00000000000E+00 -0.00000000000E+00 -0.74505805969E-08  0.93827000000E+00  0.93827000000E+00 0.  1.
     999902    2    1    2    0    0 -0.17238438885E-02  0.14379021852E-01 -0.18429193632E-01  0.10204915042E+01  0.10202223028E+01 0.  0.
     999903    2    3    3    0    0 -0.99770569350E-01  0.53156003873E-01  0.62132192455E-01  0.13054378010E+00  0.20038511123E-01 0.  0.
         14    1    1    2    0    0  0.17238438885E-02 -0.14379021852E-01  0.18429193632E-01  0.23438495794E-01  0.00000000000E+00 0. -1.
     999901    1    3    3    0    0  0.98046725462E-01 -0.38776982021E-01 -0.80561386087E-01  0.88994772410E+00  0.88000000000E+00 0. -1.
        -11    1    4    4    0    0 -0.85337262513E-01  0.41720388495E-01  0.59096968028E-01  0.11187382152E+00  0.51100000000E-03 0. -1.
         11    1    4    4    0    0 -0.14433306837E-01  0.11435615378E-01  0.30352244276E-02  0.18669958587E-01  0.51100000000E-03 0.  1.
</event>
<event>
 8    1  0.1089223E+005  0.1043930E+01  0.7957747E-01            NaN
         13   -1    0    0    0    0  0.00000000000E+00  0.00000000000E+00  0.74505805969E-08  0.10566000000E+00  0.10566000000E+00 0. -1.
     999900   -1    0    0    0    0 -0.00000000000E+00 -0.00000000000E+00 -0.74505805969E-08  0.93827000000E+00  0.93827000000E+00 0. -1.
     999902    2    1    2    0    0 -0.16422805983E-01 -0.82085865447E-02 -0.14521253856E-01  0.10205215344E+01  0.10202530303E+01 0.  0.
     999903    2    3    3    0    0 -0.56690461807E-01  0.11543887392E+00 -0.14034485716E-01  0.13096523176E+00  0.20371133228E-01 0.  0.
         14    1    1    2    0    0  0.16422805983E-01  0.82085865447E-02  0.14521253856E-01  0.23408465626E-01  0.00000000000E+00 0. -1.
     999901    1    3    3    0    0  0.40267655825E-01 -0.12364746046E+00 -0.48676813946E-03  0.88955630262E+00  0.88000000000E+00 0.  1.
        -11    1    4    4    0    0 -0.47656094414E-01  0.75776606181E-01 -0.88332177673E-02  0.89952677760E-01  0.51100000000E-03 0.  1.
         11    1    4    4    0    0 -0.90343673929E-02  0.39662267735E-01 -0.52012679487E-02  0.41012553997E-01  0.51100000000E-03 0. -1.
</event>
<event>
 7    1  0.1088021E+005  0.1043930E+01  0.7957747E-01            NaN
         13   -1    0    0    0    0  0.00000000000E+00  0.00000000000E+00  0.74505805969E-08  0.10566000000E+00  0.10566000000E+00 0.  1.
     999900   -1    0    0    0    0 -0.00000000000E+00 -0.00000000000E+00 -0.74505805969E-08  0.93827000000E+00  0.93827000000E+00 0. -1.
     999902    2    1    2    0    0 -0.15404731325E-01  0.24768566372E-02 -0.20274349913E-01  0.10183470011E+01  0.10180256013E+01 0.  0.
         14    1    1    2    0    0  0.15404731325E-01 -0.24768566372E-02  0.20274349913E-01  0.25582998855E-01  0.00000000000E+00 0.  1.
     999901    1    3    3    0    0  0.67976445832E-02 -0.25060915109E-01  0.10640263394E+00  0.88678959057E+00  0.88000000000E+00 0.  1.
        -11    1    3    3    0    0 -0.14621227380E-01  0.16095767797E-01 -0.75818639679E-01  0.78877000924E-01  0.51100000000E-03 0.  1.
         11    1    3    3    0    0 -0.75811485283E-02  0.11442003950E-01 -0.50858344176E-01  0.52680409648E-01  0.51100000000E-03 0. -1.
</event>
<event>
 8    1  0.1088021E+005  0.1043930E+01  0.7957747E-01            NaN
         13   -1    0    0    0    0  0.00000000000E+00  0.00000000000E+00  0.74505805969E-08  0.10566000000E+00  0.10566000000E+00 0. -1.
     999900   -1    0    0    0    0 -0.00000000000E+00 -0.00000000000E+00 -0.74505805969E-08  0.93827000000E+00  0.93827000000E+00 0.  1.
     999902    2    1    2    0    0  0.15224427655E-01 -0.11999360214E-02  0.26272233230E-01  0.10135416259E+01  0.10130859658E+01 0.  0.
     999903    2    3    3    0    0  0.11286423278E-02 -0.99482391381E-01  0.76105490149E-01  0.12655713575E+00  0.18073266201E-01 0.  0.
         14    1    1    2    0    0 -0.15224427655E-01  0.11999360214E-02 -0.26272233230E-01  0.30388374138E-01  0.00000000000E+00 0.  1.
     999901    1    3    3    0    0  0.14095785327E-01  0.98282455359E-01 -0.49833256919E-01  0.88698449011E+00  0.88000000000E+00 0.  1.
        -11    1    4    4    0    0  0.64725119925E-02 -0.61492230018E-01  0.38540116414E-01  0.72861440133E-01  0.51100000000E-03 0.  1.
         11    1    4    4    0    0 -0.53438696647E-02 -0.37990161362E-01  0.37565373736E-01  0.53695695621E-01  0.51100000000E-03 0. -1.
</event>
<event>
 8    1  0.1088021E+005  0.1043930E+01  0.7957747E-01            NaN
         13   -1    0    0    0    0  0.00000000000E+00  0.00000000000E+00  0.74505805969E-08  0.10566000000E+00  0.10566000000E+00 0.  1.
     999900   -1    0    0    0    0 -0.00000000000E+00 -0.00000000000E+00 -0.74505805969E-08  0.93827000000E+00  0.93827000000E+00 0. -1.
     999902    2    1    2    0    0 -0.34542149423E-02  0.18233983014E-01 -0.14594432631E-01  0.10203205273E+01  0.10200473377E+01 0.  0.
     999903    2    3    3    0    0 -0.58860745772E-01 -0.14897854682E-01 -0.11571633849E+00  0.13218019933E+00  0.19869590683E-01 0.  0.
         14    1    1    2    0    0  0.34542149423E-02 -0.18233983014E-01  0.14594432631E-01  0.23609472701E-01  0.00000000000E+00 0.  1.
     999901    1    3    3    0    0  0.55406530829E-01  0.33131837695E-01  0.10112190586E+00  0.88814032797E+00  0.88000000000E+00 0.  1.
        -11    1    4    4    0    0 -0.16411968637E-01 -0.10021148435E-02 -0.50669396833E-01  0.53272937268E-01  0.51100000000E-03 0. -1.
         11    1    4    4    0    0 -0.42448777135E-01 -0.13895739838E-01 -0.65046941655E-01  0.78907262058E-01  0.51100000000E-03 0.  1.
</event>
<event>
 8    1  0.1088021E+005  0.1043930E+01  0.7957747E-01            NaN
         13   -1    0    0    0    0  0.00000000000E+00  0.00000000000E+00  0.74505805969E-08  0.10566000000E+00  0.10566000000E+00 0. -1.
     999900   -1    0    0    0    0 -0.00000000000E+00 -0.00000000000E+00 -0.74505805969E-08  0.93827000000E+00  0.93827000000E+00 0.  1.
     999902    2    1    2    0    0  0.18807902503E-02 -0.23347458186E-01  0.13063787203E-02  0.10204705072E+01  0.10202008176E+01 0.  0.
     999903    2    3    3    0    0 -0.82171125754E-01 -0.82532643596E-01  0.59955661152E-01  0.13254745364E+00  0.20258701760E-01 0.  0.
         14    1    1    2    0    0 -0.18807902503E-02  0.23347458186E-01 -0.13063787203E-02  0.23459492771E-01  0.00000000000E+00 0.  1.
     999901    1    3    3    0    0  0.84051916004E-01  0.59185185410E-01 -0.58649282432E-01  0.88792305358E+00  0.88000000000E+00 0. -1.
        -11    1    4    4    0    0 -0.18732938271E-01 -0.16065763269E-01  0.22238929471E-01  0.33224431232E-01  0.51100000000E-03 0.  1.
         11    1    4    4    0    0 -0.63438187483E-01 -0.66466880327E-01  0.37716731681E-01  0.99323022412E-01  0.51100000000E-03 0. -1.
</event>
<event>
 8    1  0.1088021E+005  0.1043930E+01  0.7957747E-01            NaN
         13   -1    0    0    0    0  0.00000000000E+00  0.00000000000E+00  0.74505805969E-08  0.10566000000E+00  0.10566000000E+00 0. -1.
     999900   -1    0    0    0    0 -0.00000000000E+00 -0.00000000000E+00 -0.74505805969E-08  0.93827000000E+00  0.93827000000E+00 0.  1.
     999902    2    1    2    0    0  0.23114986536E-01  0.77302996788E-03  0.28294820052E-03  0.10208003602E+01  0.10205382870E+01 0.  0.
     999903    2    3    3    0    0 -0.51563254737E-01  0.65997627495E-02  0.11759672990E+00  0.12986079215E+00  0.18234811383E-01 0.  0.
         14    1    1    2    0    0 -0.23114986536E-01 -0.77302996788E-03 -0.28294820052E-03  0.23129639806E-01  0.00000000000E+00 0. -1.
     999901    1    3    3    0    0  0.74678241273E-01 -0.58267327816E-02 -0.11731378170E+00  0.89093956805E+00  0.88000000000E+00 0.  1.
        -11    1    4    4    0    0 -0.38643366342E-01 -0.21265661788E-02  0.73193781503E-01  0.82797480744E-01  0.51100000000E-03 0. -1.
         11    1    4    4    0    0 -0.12919888395E-01  0.87263289282E-02  0.44402948399E-01  0.47063311403E-01  0.51100000000E-03 0.  1.
</event>
<event>
 8    1  0.1088021E+005  0.1043930E+01  0.7957747E-01            NaN
         13   -1    0    0    0    0  0.00000000000E+00  0.00000000000E+00  0.74505805969E-08  0.10566000000E+00  0.10566000000E+00 0.  1.
     999900   -1    0    0    0    0 -0.00000000000E+00 -0.00000000000E+00 -0.74505805969E-08  0.93827000000E+00  0.93827000000E+00 0.  1.
     999902    2    1    2    0    0  0.16832459590E-02  0.96495028435E-02  0.22414283014E-01  0.10194688818E+01  0.10191753797E+01 0.  0.
     999903    2    3    3    0    0  0.61374393583E-01  0.90252699192E-01 -0.66222527417E-01  0.12934732123E+00  0.20807221673E-01 0.  0.
         14    1    1    2    0    0 -0.16832459590E-02 -0.96495028435E-02 -0.22414283014E-01  0.24461118231E-01  0.00000000000E+00 0. -1.
     999901    1    3    3    0    0 -0.59691147624E-01 -0.80603196348E-01  0.88636810431E-01  0.89012156054E+00  0.88000000000E+00 0. -1.
        -11    1    4    4    0    0  0.31724116196E-01  0.35609651385E-01 -0.19276546852E-01  0.51442328871E-01  0.51100000000E-03 0. -1.
         11    1    4    4    0    0  0.29650277387E-01  0.54643047807E-01 -0.46945980565E-01  0.77904992362E-01  0.51100000000E-03 0.  1.
</event>
<event>
 7    1  0.1390429E+005  0.1043930E+01  0.7957747E-01            NaN
         13   -1    0    0    0    0  0.00000000000E+00  0.00000000000E+00  0.74505805969E-08  0.10566000000E+00  0.10566000000E+00 0. -1.
     999900   -1    0    0    0    0 -0.00000000000E+00 -0.00000000000E+00 -0.74505805969E-08  0.93827000000E+00  0.93827000000E+00 0.  1.
     999903    2    1    2    0    0 -0.64653373446E-01  0.93656808234E-02  0.66330030951E-01  0.95281602583E-01  0.20276491549E-01 0.  0.
         14    1    1    2    0    0  0.42980438608E-01 -0.20130547953E-01 -0.48897145141E-01  0.68143142478E-01  0.00000000000E+00 0. -1.
     999901    1    1    2    0    0  0.21672934838E-01  0.10764867129E-01 -0.17432885810E-01  0.88050525494E+00  0.88000000000E+00 0.  1.
        -11    1    3    3    0    0 -0.24771155115E-01  0.13585772880E-01  0.25864872213E-01  0.38307128398E-01  0.51100000000E-03 0.  1.
         11    1    3    3    0    0 -0.39882218331E-01 -0.42200920569E-02  0.40465158738E-01  0.56974474185E-01  0.51100000000E-03 0. -1.
</event>
<event>
 8    1  0.1088021E+005  0.1043930E+01  0.7957747E-01            NaN
         13   -1    0    0    0    0  0.00000000000E+00  0.00000000000E+00  0.74505805969E-08  0.10566000000E+00  0.10566000000E+00 0.  1.
     999900   -1    0    0    0    0 -0.00000000000E+00 -0.00000000000E+00 -0.74505805969E-08  0.93827000000E+00  0.93827000000E+00 0. -1.
     999902    2    1    2    0    0 -0.69550042245E-02  0.15314662669E-01 -0.10708348481E-01  0.10239905992E+01  0.10237964483E+01 0.  0.
     999903    2    3    3    0    0  0.31735424767E-02 -0.96496493626E-01  0.86811388438E-01  0.13151403301E+00  0.20930338350E-01 0.  0.
         14    1    1    2    0    0  0.69550042245E-02 -0.15314662669E-01  0.10708348481E-01  0.19939400784E-01  0.00000000000E+00 0.  1.
     999901    1    3    3    0    0 -0.10128546701E-01  0.11181115629E+00 -0.97519736918E-01  0.89247656620E+00  0.88000000000E+00 0. -1.
        -11    1    4    4    0    0  0.45011112689E-02 -0.39727243493E-01  0.49209487502E-01  0.63406219406E-01  0.51100000000E-03 0.  1.
         11    1    4    4    0    0 -0.13275687923E-02 -0.56769250133E-01  0.37601900935E-01  0.68107813608E-01  0.51100000000E-03 0. -1.
</event>
<event>
 8    1  0.1088021E+005  0.1043930E+01  0.7957747E-01            NaN
         13   -1    0    0    0    0  0.00000000000E+00  0.00000000000E+00  0.74505805969E-08  0.10566000000E+00  0.10566000000E+00 0. -1.
     999900   -1    0    0    0    0 -0.00000000000E+00 -0.00000000000E+00 -0.74505805969E-08  0.93827000000E+00  0.93827000000E+00 0.  1.
     999902    2    1    2    0    0 -0.26300014705E-02  0.11458538105E-01 -0.20505137218E-01  0.10202936793E+01  0.10200198608E+01 0.  0.
     999903    2    3    3    0    0 -0.12718693204E+00 -0.66375696889E-02 -0.25184731832E-01  0.13132585274E+00  0.19789792054E-01 0.  0.
         14    1    1    2    0    0  0.26300014705E-02 -0.11458538105E-01  0.20505137218E-01  0.23636320686E-01  0.00000000000E+00 0. -1.
     999901    1    3    3    0    0  0.12455693057E+00  0.18096107794E-01  0.46795946141E-02  0.88896782657E+00  0.88000000000E+00 0.  1.
        -11    1    4    4    0    0 -0.45686087308E-01 -0.78205272207E-02 -0.17131753742E-01  0.49417985863E-01  0.51100000000E-03 0. -1.
         11    1    4    4    0    0 -0.81500844729E-01  0.11829575319E-02 -0.80529780900E-02  0.81907866882E-01  0.51100000000E-03 0.  1.
</event>
<event>
 8    1  0.1088021E+005  0.1043930E+01  0.7957747E-01            NaN
         13   -1    0    0    0    0  0.00000000000E+00  0.00000000000E+00  0.74505805969E-08  0.10566000000E+00  0.10566000000E+00 0.  1.
     999900   -1    0    0    0    0 -0.00000000000E+00 -0.00000000000E+00 -0.74505805969E-08  0.93827000000E+00  0.93827000000E+00 0. -1.
     999902    2    1    2    0    0  0.10194951111E-01 -0.21365223354E-01  0.30772523158E-02  0.10200578556E+01  0.10197784806E+01 0.  0.
     999903    2    3    3    0    0 -0.35993878216E-01 -0.90662732475E-01 -0.85624459398E-01  0.13168656700E+00  0.22237660669E-01 0.  0.
         14    1    1    2    0    0 -0.10194951111E-01  0.21365223354E-01 -0.30772523158E-02  0.23872144414E-01  0.00000000000E+00 0. -1.
     999901    1    3    3    0    0  0.46188829327E-01  0.69297509121E-01  0.88701711713E-01  0.88837128859E+00  0.88000000000E+00 0.  1.
        -11    1    4    4    0    0 -0.14082945405E-01 -0.16738851588E-01 -0.27417048287E-01  0.35078115136E-01  0.51100000000E-03 0.  1.
         11    1    4    4    0    0 -0.21910932811E-01 -0.73923880887E-01 -0.58207411111E-01  0.96608451862E-01  0.51100000000E-03 0. -1.
</event>
<event>
 8    1  0.1088021E+005  0.1043930E+01  0.7957747E-01            NaN
         13   -1    0    0    0    0  0.00000000000E+00  0.00000000000E+00  0.74505805969E-08  0.10566000000E+00  0.10566000000E+00 0. -1.
     999900   -1    0    0    0    0 -0.00000000000E+00 -0.00000000000E+00 -0.74505805969E-08  0.93827000000E+00  0.93827000000E+00 0. -1.
     999902    2    1    2    0    0  0.19549603961E-01  0.12418249351E-01 -0.59622457562E-02  0.10200145592E+01  0.10197341579E+01 0.  0.
     999903    2    3    3    0    0 -0.54863804605E-01 -0.10885595455E+00 -0.33862049285E-01  0.12814955436E+00  0.20396421359E-01 0.  0.
         14    1    1    2    0    0 -0.19549603961E-01 -0.12418249351E-01  0.59622457562E-02  0.23915440754E-01  0.00000000000E+00 0. -1.
     999901    1    3    3    0    0  0.74413408566E-01  0.12127420390E+00  0.27899803529E-01  0.89186500489E+00  0.88000000000E+00 0.  1.
        -11    1    4    4    0    0 -0.44187909747E-01 -0.97704023636E-01 -0.24199569997E-01  0.10992964983E+00  0.51100000000E-03 0.  1.
         11    1    4    4    0    0 -0.10675894858E-01 -0.11151930912E-01 -0.96624792883E-02  0.18219904530E-01  0.51100000000E-03 0. -1.
</event>
<event>
 8    1  0.1088021E+005  0.1043930E+01  0.7957747E-01            NaN
         13   -1    0    0    0    0  0.00000000000E+00  0.00000000000E+00  0.74505805969E-08  0.10566000000E+00  0.10566000000E+00 0. -1.
     999900   -1    0    0    0    0 -0.00000000000E+00 -0.00000000000E+00 -0.74505805969E-08  0.93827000000E+00  0.93827000000E+00 0.  1.
     999902    2    1    2    0    0  0.17644484428E-02  0.21618850715E-01  0.99360059607E-02  0.10200718316E+01  0.10197927875E+01 0.  0.
     999903    2    3    3    0    0 -0.73282097598E-01  0.65018122955E-01  0.87878287701E-01  0.13238355288E+00  0.14324436594E-01 0.  0.
         14    1    1    2    0    0 -0.17644484428E-02 -0.21618850715E-01 -0.99360059607E-02  0.23858168391E-01  0.00000000000E+00 0.  1.
     999901    1    3    3    0    0  0.75046546041E-01 -0.43399272240E-01 -0.77942281740E-01  0.88768827873E+00  0.88000000000E+00 0.  1.
        -11    1    4    4    0    0 -0.55645320159E-01  0.40662967392E-01  0.62168431979E-01  0.92817313193E-01  0.51100000000E-03 0. -1.
         11    1    4    4    0    0 -0.17636777439E-01  0.24355155563E-01  0.25709855722E-01  0.39566239690E-01  0.51100000000E-03 0.  1.
</event>
<event>
 8    1  0.1088021E+005  0.1043930E+01  0.7957747E-01            NaN
         13   -1    0    0    0    0  0.00000000000E+00  0.00000000000E+00  0.74505805969E-08  0.10566000000E+00  0.10566000000E+00 0. -1.
     999900   -1    0    0    0    0 -0.00000000000E+00 -0.00000000000E+00 -0.74505805969E-08  0.93827000000E+00  0.93827000000E+00 0.  1.
     999902    2    1    2    0    0 -0.64445483293E-02 -0.79220673622E-02  0.21161186787E-01  0.10204334645E+01  0.10201629126E+01 0.  0.
     999903    2    3    3    0    0 -0.92027793827E-01  0.17729152888E-02  0.94188000518E-01  0.13321793255E+00  0.20084323403E-01 0.  0.
         14    1    1    2    0    0  0.64445483293E-02  0.79220673622E-02 -0.21161186787E-01  0.23496535504E-01  0.00000000000E+00 0.  1.
     999901    1    3    3    0    0  0.85583245497E-01 -0.96949826511E-02 -0.73026813731E-01  0.88721553194E+00  0.88000000000E+00 0.  1.
        -11    1    4    4    0    0 -0.86374919881E-01 -0.27436143688E-03  0.79721512382E-01  0.11754353541E+00  0.51100000000E-03 0.  1.
         11    1    4    4    0    0 -0.56528739456E-02  0.20472767257E-02  0.14466488136E-01  0.15674397144E-01  0.51100000000E-03 0. -1.
</event>
<event>
 8    1  0.1088021E+005  0.1043930E+01  0.7957747E-01            NaN
         13   -1    0    0    0    0  0.00000000000E+00  0.00000000000E+00  0.74505805969E-08  0.10566000000E+00  0.10566000000E+00 0. -1.
     999900   -1    0    0    0    0 -0.00000000000E+00 -0.00000000000E+00 -0.74505805969E-08  0.93827000000E+00  0.93827000000E+00 0. -1.
     999902    2    1    2    0    0  0.12573319151E-01 -0.31419201145E-02  0.20852158337E-01  0.10193785739E+01  0.10190828742E+01 0.  0.
     999903    2    3    3    0    0 -0.50953516789E-01 -0.10234584406E+00  0.59969419030E-01  0.13066757616E+00  0.20168083012E-01 0.  0.
         14    1    1    2    0    0 -0.12573319151E-01  0.31419201145E-02 -0.20852158337E-01  0.24551426105E-01  0.00000000000E+00 0.  1.
     999901    1    3    3    0    0  0.63526835940E-01  0.99203923941E-01 -0.39117260692E-01  0.88871099773E+00  0.88000000000E+00 0.  1.
        -11    1    4    4    0    0 -0.47825995696E-01 -0.88751472675E-01  0.45656565896E-01  0.11067489732E+00  0.51100000000E-03 0.  1.
         11    1    4    4    0    0 -0.31275210926E-02 -0.13594371380E-01  0.14312853133E-01  0.19992678841E-01  0.51100000000E-03 0. -1.
</event>
<event>
 8    1  0.1088021E+005  0.1043930E+01  0.7957747E-01            NaN
         13   -1    0    0    0    0  0.00000000000E+00  0.00000000000E+00  0.74505805969E-08  0.10566000000E+00  0.10566000000E+00 0. -1.
     999900   -1    0    0    0    0 -0.00000000000E+00 -0.00000000000E+00 -0.74505805969E-08  0.93827000000E+00  0.93827000000E+00 0. -1.
     999902    2    1    2    0    0 -0.63859313194E-03 -0.17021476932E-01  0.14753051014E-01  0.10213957817E+01  0.10211471745E+01 0.  0.
     999903    2    3    3    0    0  0.65720183842E-01  0.57212735716E-01  0.96900060716E-01  0.13197892964E+00  0.20889624443E-01 0.  0.
         14    1    1    2    0    0  0.63859313194E-03  0.17021476932E-01 -0.14753051014E-01  0.22534218255E-01  0.00000000000E+00 0.  1.
     999901    1    3    3    0    0 -0.66358776974E-01 -0.74234212648E-01 -0.82147009702E-01  0.88941685211E+00  0.88000000000E+00 0. -1.
        -11    1    4    4    0    0  0.60255600984E-01  0.58257218316E-01  0.88493771006E-01  0.12188539520E+00  0.51100000000E-03 0.  1.
         11    1    4    4    0    0  0.54645828580E-02 -0.10444825998E-02  0.84062897106E-02  0.10093534436E-01  0.51100000000E-03 0. -1.
</event>
<event>
 8    1  0.1088021E+005  0.1043930E+01  0.7957747E-01            NaN
         13   -1    0    0    0    0  0.00000000000E+00  0.00000000000E+00  0.74505805969E-08  0.10566000000E+00  0.10566000000E+00 0.  1.
     999900   -1    0    0    0    0 -0.00000000000E+00 -0.00000000000E+00 -0.74505805969E-08  0.93827000000E+00  0.93827000000E+00 0.  1.
     999902    2    1    2    0    0  0.16479138592E-02  0.22854323232E-01  0.59859566159E-02  0.10202473611E+01  0.10199724557E+01 0.  0.
     999903    2    3    3    0    0  0.40114906916E-01  0.10916943439E+00 -0.60665533283E-01  0.13268191047E+00  0.19925141814E-01 0.  0.
         14    1    1    2    0    0 -0.16479138592E-02 -0.22854323232E-01 -0.59859566159E-02  0.23682638939E-01  0.00000000000E+00 0. -1.
     999901    1    3    3    0    0 -0.38466993057E-01 -0.86315111160E-01  0.66651489899E-01  0.88756545059E+00  0.88000000000E+00 0. -1.
        -11    1    4    4    0    0  0.18531300261E-01  0.32701163901E-01 -0.11791332948E-01  0.39396343277E-01  0.51100000000E-03 0.  1.
         11    1    4    4    0    0  0.21583606655E-01  0.76468270491E-01 -0.48874200335E-01  0.93285567198E-01  0.51100000000E-03 0. -1.
</event>
<event>
 8    1  0.1088021E+005  0.1043930E+01  0.7957747E-01            NaN
         13   -1    0    0    0    0  0.00000000000E+00  0.00000000000E+00  0.74505805969E-08  0.10566000000E+00  0.10566000000E+00 0. -1.
     999900   -1    0    0    0    0 -0.00000000000E+00 -0.00000000000E+00 -0.74505805969E-08  0.93827000000E+00  0.93827000000E+00 0. -1.
     999902    2    1    2    0    0  0.21332814965E-01  0.10496540441E-01  0.19158248896E-02  0.10200776051E+01  0.10197986977E+01 0.  0.
     999903    2    3    3    0    0  0.79989255259E-01 -0.99510696726E-01  0.20976905289E-01  0.13108632565E+00  0.21046009074E-01 0.  0.
         14    1    1    2    0    0 -0.21332814965E-01 -0.10496540441E-01 -0.19158248896E-02  0.23852394860E-01  0.00000000000E+00 0. -1.
     999901    1    3    3    0    0 -0.58656440295E-01  0.11000723717E+00 -0.19061080400E-01  0.88899127949E+00  0.88000000000E+00 0.  1.
        -11    1    4    4    0    0  0.37112934409E-01 -0.51539342349E-01  0.33450646961E-03  0.63514145871E-01  0.51100000000E-03 0. -1.
         11    1    4    4    0    0  0.42876320851E-01 -0.47971354378E-01  0.20642398820E-01  0.67572179783E-01  0.51100000000E-03 0.  1.
</event>
<event>
 8    1  0.1088021E+005  0.1043930E+01  0.7957747E-01            NaN
         13   -1    0    0    0    0  0.00000000000E+00  0.00000000000E+00  0.74505805969E-08  0.10566000000E+00  0.10566000000E+00 0.  1.
     999900   -1    0    0    0    0 -0.00000000000E+00 -0.00000000000E+00 -0.74505805969E-08  0.93827000000E+00  0.93827000000E+00 0.  1.
     999902    2    1    2    0    0 -0.11234015640E-01 -0.61229611524E-02 -0.17031266428E-01  0.10226284086E+01  0.10224065259E+01 0.  0.
     999903    2    3    3    0    0  0.10114950992E+00 -0.81599576888E-01 -0.14299638677E-01  0.13227216633E+00  0.20043253548E-01 0.  0.
         14    1    1    2    0    0  0.11234015640E-01  0.61229611524E-02  0.17031266428E-01  0.21301591415E-01  0.00000000000E+00 0.  1.
     999901    1    3    3    0    0 -0.11238352556E+00  0.75476615736E-01 -0.27316277505E-02  0.89035624226E+00  0.88000000000E+00 0.  1.
        -11    1    4    4    0    0  0.74128809147E-01 -0.70409744051E-01 -0.10544562201E-01  0.10278161954E+00  0.51100000000E-03 0.  1.
         11    1    4    4    0    0  0.27020700773E-01 -0.11189832837E-01 -0.37550764756E-02  0.29490546782E-01  0.51100000000E-03 0. -1.
</event>
<event>
 8    1  0.1088021E+005  0.1043930E+01  0.7957747E-01            NaN
         13   -1    0    0    0    0  0.00000000000E+00  0.00000000000E+00  0.74505805969E-08  0.10566000000E+00  0.10566000000E+00 0. -1.
     999900   -1    0    0    0    0 -0.00000000000E+00 -0.00000000000E+00 -0.74505805969E-08  0.93827000000E+00  0.93827000000E+00 0.  1.
     999902    2    1    2    0    0 -0.10797774540E-01 -0.16360633181E-01  0.11116941261E-01  0.10213945028E+01  0.10211458670E+01 0.  0.
     999903    2    3    3    0    0 -0.59395191618E-01 -0.10197414940E+00 -0.58585733945E-01  0.13316601524E+00  0.19348991165E-01 0.  0.
         14    1    1    2    0    0  0.10797774540E-01  0.16360633181E-01 -0.11116941261E-01  0.22535497245E-01  0.00000000000E+00 0.  1.
     999901    1    3    3    0    0  0.48597417078E-01  0.85613516220E-01  0.69702675206E-01  0.88822848752E+00  0.88000000000E+00 0. -1.
        -11    1    4    4    0    0 -0.12417599675E-01 -0.29261985556E-01 -0.24463877991E-01  0.40114872899E-01  0.51100000000E-03 0.  1.
         11    1    4    4    0    0 -0.46977591943E-01 -0.72712163845E-01 -0.34121855954E-01  0.93051142339E-01  0.51100000000E-03 0. -1.
</event>
<event>
 8    1  0.1088021E+005  0.1043930E+01  0.7957747E-01            NaN
         13   -1    0    0    0    0  0.00000000000E+00  0.00000000000E+00  0.74505805969E-08  0.10566000000E+00  0.10566000000E+00 0. -1.
     999900   -1    0    0    0    0 -0.00000000000E+00 -0.00000000000E+00 -0.74505805969E-08  0.93827000000E+00  0.93827000000E+00 0. -1.
     999902    2    1    2    0    0 -0.10249977827E-01  0.20657289522E-01 -0.49261273929E-02  0.10203492369E+01  0.10200767191E+01 0.  0.
     999903    2    3    3    0    0  0.40879128051E-01 -0.11870027323E+00 -0.11773820781E-02  0.12790945249E+00  0.24465972956E-01 0.  0.
         14    1    1    2    0    0  0.10249977827E-01 -0.20657289522E-01  0.49261273929E-02  0.23580763070E-01  0.00000000000E+00 0.  1.
     999901    1    3    3    0    0 -0.51129105878E-01  0.13935756275E+00 -0.37487453148E-02  0.89243978444E+00  0.88000000000E+00 0.  1.
        -11    1    4    4    0    0  0.37649174167E-01 -0.91646666401E-01 -0.91903270513E-02  0.99505251169E-01  0.51100000000E-03 0. -1.
         11    1    4    4    0    0  0.32299538834E-02 -0.27053606827E-01  0.80129449733E-02  0.28404201319E-01  0.51100000000E-03 0.  1.
</event>
<event>
 8    1  0.1088021E+005  0.1043930E+01  0.7957747E-01            NaN
         13   -1    0    0    0    0  0.00000000000E+00  0.00000000000E+00  0.74505805969E-08  0.10566000000E+00  0.10566000000E+00 0.  1.
     999900   -1    0    0    0    0 -0.00000000000E+00 -0.00000000000E+00 -0.74505805969E-08  0.93827000000E+00  0.93827000000E+00 0.  1.
     999902    2    1    2    0    0  0.16536037850E-01 -0.17066550629E-01  0.10432584171E-02  0.10201435314E+01  0.10198661817E+01 0.  0.
     999903    2    3    3    0    0  0.21101965745E-01 -0.98259613510E-01  0.84231473352E-01  0.13248738165E+00  0.18913502827E-01 0.  0.
         14    1    1    2    0    0 -0.16536037850E-01  0.17066550629E-01 -0.10432584171E-02  0.23786468554E-01  0.00000000000E+00 0. -1.
     999901    1    3    3    0    0 -0.45659278953E-02  0.81193062881E-01 -0.83188214935E-01  0.88765614979E+00  0.88000000000E+00 0.  1.
        -11    1    4    4    0    0  0.79826366053E-02 -0.57102698110E-01  0.58816904541E-01  0.82365830290E-01  0.51100000000E-03 0. -1.
         11    1    4    4    0    0  0.13119329140E-01 -0.41156915400E-01  0.25414568811E-01  0.50121551365E-01  0.51100000000E-03 0.  1.
</event>
<event>
 8    1  0.1088021E+005  0.1043930E+01  0.7957747E-01            NaN
         13   -1    0    0    0    0  0.00000000000E+00  0.00000000000E+00  0.74505805969E-08  0.10566000000E+00  0.10566000000E+00 0.  1.
     999900   -1    0    0    0    0 -0.00000000000E+00 -0.00000000000E+00 -0.74505805969E-08  0.93827000000E+00  0.93827000000E+00 0.  1.
     999902    2    1    2    0    0 -0.89874254760E-02  0.14436074311E-02 -0.22034327651E-01  0.10200895005E+01  0.10198108745E+01 0.  0.
     999903    2    3    3    0    0 -0.17703649402E-01  0.13850872098E-01  0.12428065686E+00  0.12787989094E+00  0.20057890675E-01 0.  0.
         14    1    1    2    0    0  0.89874254760E-02 -0.14436074311E-02  0.22034327651E-01  0.23840499452E-01  0.00000000000E+00 0.  1.
     999901    1    3    3    0    0  0.87162239261E-02 -0.12407264667E-01 -0.14631498451E+00  0.89220960960E+00  0.88000000000E+00 0.  1.
        -11    1    4    4    0    0 -0.21698620784E-01  0.14242002683E-01  0.10325567131E+00  0.10646905448E+00  0.51100000000E-03 0.  1.
         11    1    4    4    0    0  0.39949713821E-02 -0.39113058563E-03  0.21024985553E-01  0.21410836461E-01  0.51100000000E-03 0. -1.
</event>
<event>
 8    1  0.1088021E+005  0.1043930E+01  0.7957747E-01            NaN
         13   -1    0    0    0    0  0.00000000000E+00  0.00000000000E+00  0.74505805969E-08  0.10566000000E+00  0.10566000000E+00 0.  1.
     999900   -1    0    0    0    0 -0.00000000000E+00 -0.00000000000E+00 -0.74505805969E-08  0.93827000000E+00  0.93827000000E+00 0. -1.
     999902    2    1    2    0    0 -0.16334896850E-01 -0.57979510763E-02  0.15872261976E-01  0.10204273663E+01  0.10201566723E+01 0.  0.
     999903    2    3    3    0    0 -0.10597725823E+00  0.23721671048E-01 -0.71107319116E-01  0.13111717935E+00  0.18481529963E-01 0.  0.
         14    1    1    2    0    0  0.16334896850E-01  0.57979510763E-02 -0.15872261976E-01  0.23502633725E-01  0.00000000000E+00 0. -1.
     999901    1    3    3    0    0  0.89642361378E-01 -0.29519622124E-01  0.86979581092E-01  0.88931018693E+00  0.88000000000E+00 0.  1.
        -11    1    4    4    0    0 -0.48224878681E-01  0.15800628041E-02 -0.29126583592E-01  0.56362705001E-01  0.51100000000E-03 0.  1.
         11    1    4    4    0    0 -0.57752379546E-01  0.22141608244E-01 -0.41980735524E-01  0.74754474348E-01  0.51100000000E-03 0. -1.
</event>
<event>
 8    1  0.1088021E+005  0.1043930E+01  0.7957747E-01            NaN
         13   -1    0    0    0    0  0.00000000000E+00  0.00000000000E+00  0.74505805969E-08  0.10566000000E+00  0.10566000000E+00 0.  1.
     999900   -1    0    0    0    0 -0.00000000000E+00 -0.00000000000E+00 -0.74505805969E-08  0.93827000000E+00  0.93827000000E+00 0.  1.
     999902    2    1    2    0    0  0.22801049468E-01  0.34093969876E-02  0.58323991944E-02  0.10201491521E+01  0.10198719350E+01 0.  0.
     999903    2    3    3    0    0  0.15617949287E-01 -0.10975355283E+00  0.67959067916E-01  0.13070147346E+00  0.13216563600E-01 0.  0.
         14    1    1    2    0    0 -0.22801049468E-01 -0.34093969876E-02 -0.58323991944E-02  0.23780847862E-01  0.00000000000E+00 0.  1.
     999901    1    3    3    0    0  0.71831001810E-02  0.11316294982E+00 -0.62126668722E-01  0.88944767868E+00  0.88000000000E+00 0.  1.
        -11    1    4    4    0    0  0.13783544398E-01 -0.56068288146E-01  0.38962412800E-01  0.69656082032E-01  0.51100000000E-03 0. -1.
         11    1    4    4    0    0  0.18344048887E-02 -0.53685264686E-01  0.28996655116E-01  0.61045391428E-01  0.51100000000E-03 0.  1.
</event>
<event>
 8    1  0.1088021E+005  0.1043930E+01  0.7957747E-01            NaN
         13   -1    0    0    0    0  0.00000000000E+00  0.00000000000E+00  0.74505805969E-08  0.10566000000E+00  0.10566000000E+00 0. -1.
     999900   -1    0    0    0    0 -0.00000000000E+00 -0.00000000000E+00 -0.74505805969E-08  0.93827000000E+00  0.93827000000E+00 0. -1.
     999902    2    1    2    0    0  0.18933238044E-01 -0.13383348263E-01 -0.89086996480E-03  0.10207270872E+01  0.10204633317E+01 0.  0.
     999903    2    3    3    0    0  0.10555638739E+00  0.62269888871E-01  0.44430082332E-01  0.13208713141E+00  0.21290563378E-01 0.  0.
         14    1    1    2    0    0 -0.18933238044E-01  0.13383348263E-01  0.89086996480E-03  0.23202912810E-01  0.00000000000E+00 0.  1.
     999901    1    3    3    0    0 -0.86623149348E-01 -0.75653237134E-01 -0.45320952297E-01  0.88863995578E+00  0.88000000000E+00 0.  1.
        -11    1    4    4    0    0  0.31184936456E-01  0.15161085139E-01  0.30592065539E-02  0.34813483453E-01  0.51100000000E-03 0.  1.
         11    1    4    4    0    0  0.74371450936E-01  0.47108803732E-01  0.41370875778E-01  0.97273647958E-01  0.51100000000E-03 0. -1.
</event>
<event>
 8    1  0.1088021E+005  0.1043930E+01  0.7957747E-01            NaN
         13   -1    0    0    0    0  0.00000000000E+00  0.00000000000E+00  0.74505805969E-08  0.10566000000E+00  0.10566000000E+00 0.  1.
     999900   -1    0    0    0    0 -0.00000000000E+00 -0.00000000000E+00 -0.74505805969E-08  0.93827000000E+00  0.93827000000E+00 0. -1.
     999902    2    1    2    0    0 -0.24231861851E-01 -0.34928437516E-02 -0.19790645739E-02  0.10193678384E+01  0.10190718768E+01 0.  0.
     999903    2    3    3    0    0  0.95427294598E-01  0.71538127059E-01 -0.39691947667E-01  0.12730829898E+00  0.20196041754E-01 0.  0.
         14    1    1    2    0    0  0.24231861851E-01  0.34928437516E-02  0.19790645739E-02  0.24562161608E-01  0.00000000000E+00 0. -1.
     999901    1    3    3    0    0 -0.11965915645E+00 -0.75030970810E-01  0.37712883093E-01  0.89205953941E+00  0.88000000000E+00 0. -1.
        -11    1    4    4    0    0  0.21034979045E-01  0.26959071138E-01 -0.98278503131E-02  0.35582434189E-01  0.51100000000E-03 0.  1.
         11    1    4    4    0    0  0.74392315553E-01  0.44579055921E-01 -0.29864097354E-01  0.91725864792E-01  0.51100000000E-03 0. -1.
</event>
<event>
 8    1  0.1088021E+005  0.1043930E+01  0.7957747E-01            NaN
         13   -1    0    0    0    0  0.00000000000E+00  0.00000000000E+00  0.74505805969E-08  0.10566000000E+00  0.10566000000E+00 0.  1.
     999900   -1    0    0    0    0 -0.00000000000E+00 -0.00000000000E+00 -0.74505805969E-08  0.93827000000E+00  0.93827000000E+00 0. -1.
     999902    2    1    2    0    0 -0.21813648889E-01 -0.96928810710E-02 -0.10100172074E-02  0.10200384250E+01  0.10197585896E+01 0.  0.
     999903    2    3    3    0    0  0.57945194028E-01 -0.52605482311E-01  0.10140945506E+00  0.12948089588E+00  0.18879685962E-01 0.  0.
         14    1    1    2    0    0  0.21813648889E-01  0.96928810710E-02  0.10100172074E-02  0.23891575002E-01  0.00000000000E+00 0.  1.
     999901    1    3    3    0    0 -0.79758842917E-01  0.42912601240E-01 -0.10241947227E+00  0.89055752912E+00  0.88000000000E+00 0.  1.
        -11    1    4    4    0    0  0.24096849783E-01 -0.27958645711E-01  0.60931757227E-01  0.71241028904E-01  0.51100000000E-03 0.  1.
         11    1    4    4    0    0  0.33848344244E-01 -0.24646836600E-01  0.40477697834E-01  0.58239866976E-01  0.51100000000E-03 0. -1.
</event>
<event>
 8    1  0.1088021E+005  0.1043930E+01  0.7957747E-01            NaN
         13   -1    0    0    0    0  0.00000000000E+00  0.00000000000E+00  0.74505805969E-08  0.10566000000E+00  0.10566000000E+00 0.  1.
     999900   -1    0    0    0    0 -0.00000000000E+00 -0.00000000000E+00 -0.74505805969E-08  0.93827000000E+00  0.93827000000E+00 0. -1.
     999902    2    1    2    0    0  0.49839815065E-02 -0.26900285831E-01 -0.24186082122E-02  0.10164652023E+01  0.10160940863E+01 0.  0.
     999903    2    3    3    0    0  0.10229260153E+00 -0.27290975919E-01  0.69419612412E-01  0.12819168013E+00  0.20135803220E-01 0.  0.
         14    1    1    2    0    0 -0.49839815065E-02  0.26900285831E-01  0.24186082122E-02  0.27464797744E-01  0.00000000000E+00 0.  1.
     999901    1    3    3    0    0 -0.97308620028E-01  0.39069008803E-03 -0.71838220624E-01  0.88827352213E+00  0.88000000000E+00 0. -1.
        -11    1    4    4    0    0  0.69413063016E-01 -0.26547229122E-01  0.53998342068E-01  0.91864088513E-01  0.51100000000E-03 0. -1.
         11    1    4    4    0    0  0.32879538519E-01 -0.74374679673E-03  0.15421270344E-01  0.36327591615E-01  0.51100000000E-03 0.  1.
</event>
<event>
 8    1  0.1088021E+005  0.1043930E+01  0.7957747E-01            NaN
         13   -1    0    0    0    0  0.00000000000E+00  0.00000000000E+00  0.74505805969E-08  0.10566000000E+00  0.10566000000E+00 0. -1.
     999900   -1    0    0    0    0 -0.00000000000E+00 -0.00000000000E+00 -0.74505805969E-08  0.93827000000E+00  0.93827000000E+00 0. -1.
     999902    2    1    2    0    0 -0.78703680767E-02 -0.15968773598E-01 -0.14314597473E-01  0.10210859171E+01  0.10208303473E+01 0.  0.
     999903    2    3    3    0    0  0.21157376496E-01  0.10602839254E-01 -0.12917132413E+00  0.13274998500E+00  0.19423510452E-01 0.  0.
         14    1    1    2    0    0  0.78703680767E-02  0.15968773598E-01  0.14314597473E-01  0.22844082926E-01  0.00000000000E+00 0. -1.
     999901    1    3    3    0    0 -0.29027744572E-01 -0.26571612852E-01  0.11485672666E+00  0.88833593208E+00  0.88000000000E+00 0.  1.
        -11    1    4    4    0    0  0.13373623036E-01  0.16103824139E-01 -0.94223955136E-01  0.96522545488E-01  0.51100000000E-03 0. -1.
         11    1    4    4    0    0  0.77837534600E-02 -0.55009848857E-02 -0.34947368995E-01  0.36227439508E-01  0.51100000000E-03 0.  1.
</event>
<event>
 8    1  0.1088021E+005  0.1043930E+01  0.7957747E-01            NaN
         13   -1    0    0    0    0  0.00000000000E+00  0.00000000000E+00  0.74505805969E-08  0.10566000000E+00  0.10566000000E+00 0.  1.
     999900   -1    0    0    0    0 -0.00000000000E+00 -0.00000000000E+00 -0.74505805969E-08  0.93827000000E+00  0.93827000000E+00 0.  1.
     999902    2    1    2    0    0  0.18451827324E-01  0.37011056805E-02 -0.15870812387E-01  0.10193119010E+01  0.10190145733E+01 0.  0.
     999903    2    3    3    0    0 -0.58006831785E-01 -0.10614237478E+00 -0.39794807213E-01  0.12887163104E+00  0.19831145905E-01 0.  0.
         14    1    1    2    0    0 -0.18451827324E-01 -0.37011056805E-02  0.15870812387E-01  0.24618099047E-01  0.00000000000E+00 0.  1.
     999901    1    3    3    0    0  0.76458659109E-01  0.10984348046E+00  0.23923994826E-01  0.89044026991E+00  0.88000000000E+00 0. -1.
        -11    1    4    4    0    0 -0.44417735698E-01 -0.62090754682E-01 -0.27636256422E-01  0.81192492581E-01  0.51100000000E-03 0. -1.
         11    1    4    4    0    0 -0.13589096086E-01 -0.44051620101E-01 -0.12158550792E-01  0.47679138460E-01  0.51100000000E-03 0.  1.
</event>
<event>
 8    1  0.1088021E+005  0.1043930E+01  0.7957747E-01            NaN
         13   -1    0    0    0    0  0.00000000000E+00  0.00000000000E+00  0.74505805969E-08  0.10566000000E+00  0.10566000000E+00 0.  1.
     999900   -1    0    0    0    0 -0.00000000000E+00 -0.00000000000E+00 -0.74505805969E-08  0.93827000000E+00  0.93827000000E+00 0.  1.
     999902    2    1    2    0    0  0.91236455383E-02 -0.17280402008E-01  0.14581371362E-01  0.10195482529E+01  0.10192566754E+01 0.  0.
     999903    2    3    3    0    0  0.24536076857E-02 -0.43268085197E-01 -0.11972078921E+00  0.12895467587E+00  0.20447339013E-01 0.  0.
         14    1    1    2    0    0 -0.91236455383E-02  0.17280402008E-01 -0.14581371362E-01  0.24381747112E-01  0.00000000000E+00 0. -1.
     999901    1    3    3    0    0  0.66700378526E-02  0.25987683189E-01  0.13430216057E+00  0.89059357701E+00  0.88000000000E+00 0. -1.
        -11    1    4    4    0    0  0.98684505924E-02 -0.33187022969E-01 -0.76830626444E-01  0.84273193195E-01  0.51100000000E-03 0.  1.
         11    1    4    4    0    0 -0.74148429066E-02 -0.10081062228E-01 -0.42890162770E-01  0.44681482679E-01  0.51100000000E-03 0. -1.
</event>
<event>
 8    1  0.1088021E+005  0.1043930E+01  0.7957747E-01            NaN
         13   -1    0    0    0    0  0.00000000000E+00  0.00000000000E+00  0.74505805969E-08  0.10566000000E+00  0.10566000000E+00 0. -1.
     999900   -1    0    0    0    0 -0.00000000000E+00 -0.00000000000E+00 -0.74505805969E-08  0.93827000000E+00  0.93827000000E+00 0. -1.
     999902    2    1    2    0    0 -0.43701647705E-02 -0.21669165116E-01  0.10912939166E-01  0.10192775499E+01  0.10189793817E+01 0.  0.
     999903    2    3    3    0    0  0.11378657334E+00  0.50088069363E-01  0.24579608555E-01  0.12838087048E+00  0.20525393642E-01 0.  0.
         14    1    1    2    0    0  0.43701647705E-02  0.21669165116E-01 -0.10912939166E-01  0.24652450146E-01  0.00000000000E+00 0.  1.
     999901    1    3    3    0    0 -0.11815673811E+00 -0.71757234479E-01 -0.13666669389E-01  0.89089667937E+00  0.88000000000E+00 0. -1.
        -11    1    4    4    0    0  0.58377660316E-01  0.22153717091E-01  0.24206685216E-02  0.62488872306E-01  0.51100000000E-03 0.  1.
         11    1    4    4    0    0  0.55408913025E-01  0.27934352272E-01  0.22158940033E-01  0.65891998177E-01  0.51100000000E-03 0. -1.
</event>
<event>
 8    1  0.1088021E+005  0.1043930E+01  0.7957747E-01            NaN
         13   -1    0    0    0    0  0.00000000000E+00  0.00000000000E+00  0.74505805969E-08  0.10566000000E+00  0.10566000000E+00 0.  1.
     999900   -1    0    0    0    0 -0.00000000000E+00 -0.00000000000E+00 -0.74505805969E-08  0.93827000000E+00  0.93827000000E+00 0.  1.
     999902    2    1    2    0    0  0.15853796135E-01 -0.10027727882E-01  0.14876561669E-01  0.10199881900E+01  0.10197071626E+01 0.  0.
     999903    2    3    3    0    0 -0.23575402016E-01 -0.23416732960E-01 -0.12233896839E+00  0.12838175845E+00  0.20270909038E-01 0.  0.
         14    1    1    2    0    0 -0.15853796135E-01  0.10027727882E-01 -0.14876561669E-01  0.23941809988E-01  0.00000000000E+00 0. -1.
     999901    1    3    3    0    0  0.39429198151E-01  0.13389005077E-01  0.13721553005E+00  0.89160643157E+00  0.88000000000E+00 0. -1.
        -11    1    4    4    0    0 -0.20971012671E-02 -0.11654198452E-01 -0.20893071547E-01  0.24020818782E-01  0.51100000000E-03 0. -1.
         11    1    4    4    0    0 -0.21478300749E-01 -0.11762534507E-01 -0.10144589684E+00  0.10436093966E+00  0.51100000000E-03 0.  1.
</event>
<event>
 8    1  0.1088021E+005  0.1043930E+01  0.7957747E-01            NaN
         13   -1    0    0    0    0  0.00000000000E+00  0.00000000000E+00  0.74505805969E-08  0.10566000000E+00  0.10566000000E+00 0. -1.
     999900   -1    0    0    0    0 -0.00000000000E+00 -0.00000000000E+00 -0.74505805969E-08  0.93827000000E+00  0.93827000000E+00 0. -1.
     999902    2    1    2    0    0 -0.12987381736E-01 -0.20305206596E-01 -0.18483745676E-02  0.10197558405E+01  0.10194692660E+01 0.  0.
     999903    2    3    3    0    0 -0.53369422159E-01 -0.40155456700E-01  0.11127015845E+00  0.13137498516E+00  0.20434838835E-01 0.  0.
         14    1    1    2    0    0  0.12987381736E-01  0.20305206596E-01  0.18483745676E-02  0.24174159506E-01  0.00000000000E+00 0. -1.
     999901    1    3    3    0    0  0.40382040423E-01  0.19850250104E-01 -0.11311853302E+00  0.88838085534E+00  0.88000000000E+00 0. -1.
        -11    1    4    4    0    0 -0.24663958319E-01 -0.95813511454E-02  0.56499559132E-01  0.62390499540E-01  0.51100000000E-03 0. -1.
         11    1    4    4    0    0 -0.28705463840E-01 -0.30574105555E-01  0.54770599322E-01  0.68984485616E-01  0.51100000000E-03 0.  1.
</event>
<event>
 8    1  0.1088021E+005  0.1043930E+01  0.7957747E-01            NaN
         13   -1    0    0    0    0  0.00000000000E+00  0.00000000000E+00  0.74505805969E-08  0.10566000000E+00  0.10566000000E+00 0.  1.
     999900   -1    0    0    0    0 -0.00000000000E+00 -0.00000000000E+00 -0.74505805969E-08  0.93827000000E+00  0.93827000000E+00 0. -1.
     999902    2    1    2    0    0  0.20705943428E-01 -0.10215021325E-01 -0.66770503878E-02  0.10198953218E+01  0.10196120839E+01 0.  0.
     999903    2    3    3    0    0  0.58161511741E-01  0.10610253389E+00  0.43541625002E-01  0.13003319282E+00  0.19293754980E-01 0.  0.
         14    1    1    2    0    0 -0.20705943428E-01  0.10215021325E-01  0.66770503878E-02  0.24034678192E-01  0.00000000000E+00 0. -1.
     999901    1    3    3    0    0 -0.37455568313E-01 -0.11631755522E+00 -0.50218675390E-01  0.88986212899E+00  0.88000000000E+00 0. -1.
        -11    1    4    4    0    0  0.27886415690E-01  0.34671199738E-01  0.10580933606E-01  0.45737966158E-01  0.51100000000E-03 0.  1.
         11    1    4    4    0    0  0.30275096051E-01  0.71431334152E-01  0.32960691396E-01  0.84295226662E-01  0.51100000000E-03 0. -1.
</event>
<event>
 8    1  0.1088021E+005  0.1043930E+01  0.7957747E-01            NaN
         13   -1    0    0    0    0  0.00000000000E+00  0.00000000000E+00  0.74505805969E-08  0.10566000000E+00  0.10566000000E+00 0.  1.
     999900   -1    0    0    0    0 -0.00000000000E+00 -0.00000000000E+00 -0.74505805969E-08  0.93827000000E+00  0.93827000000E+00 0.  1.
     999902    2    1    2    0    0  0.17878463180E-01 -0.11854864783E-01 -0.91086388010E-02  0.10206245379E+01  0.10203584188E+01 0.  0.
     999903    2    3    3    0    0  0.70614539220E-01  0.10832229905E+00 -0.39394874473E-02  0.13087717790E+00  0.19828830352E-01 0.  0.
         14    1    1    2    0    0 -0.17878463180E-01  0.11854864783E-01  0.91086388010E-02  0.23305462139E-01  0.00000000000E+00 0.  1.
     999901    1    3    3    0    0 -0.52736076040E-01 -0.12017716384E+00 -0.51691513537E-02  0.88974735996E+00  0.88000000000E+00 0. -1.
        -11    1    4    4    0    0  0.29584895531E-01  0.53640881200E-01 -0.10665837644E-01  0.62182243391E-01  0.51100000000E-03 0. -1.
         11    1    4    4    0    0  0.41029643689E-01  0.54681417854E-01  0.67263501964E-02  0.68694934513E-01  0.51100000000E-03 0.  1.
</event>
<event>
 8    1  0.1088021E+005  0.1043930E+01  0.7957747E-01            NaN
         13   -1    0    0    0    0  0.00000000000E+00  0.00000000000E+00  0.74505805969E-08  0.10566000000E+00  0.10566000000E+00 0. -1.
     999900   -1    0    0    0    0 -0.00000000000E+00 -0.00000000000E+00 -0.74505805969E-08  0.93827000000E+00  0.93827000000E+00 0. -1.
     999902    2    1    2    0    0 -0.22659383671E-01  0.33051211147E-02  0.22429589530E-02  0.10209212547E+01  0.10206619450E+01 0.  0.
     999903    2    3    3    0    0  0.35334287926E-01  0.93299678828E-01 -0.81743267586E-01  0.13046296115E+00  0.19628562442E-01 0.  0.
         14    1    1    2    0    0  0.22659383671E-01 -0.33051211147E-02 -0.22429589530E-02  0.23008745268E-01  0.00000000000E+00 0.  1.
     999901    1    3    3    0    0 -0.57993671597E-01 -0.89994557713E-01  0.83986226539E-01  0.89045829358E+00  0.88000000000E+00 0. -1.
        -11    1    4    4    0    0  0.85046366673E-03  0.22300976141E-01 -0.13266670747E-01  0.25967720327E-01  0.51100000000E-03 0. -1.
         11    1    4    4    0    0  0.34483824260E-01  0.70998702687E-01 -0.68476596839E-01  0.10449524082E+00  0.51100000000E-03 0.  1.
</event>
<event>
 8    1  0.1088021E+005  0.1043930E+01  0.7957747E-01            NaN
         13   -1    0    0    0    0  0.00000000000E+00  0.00000000000E+00  0.74505805969E-08  0.10566000000E+00  0.10566000000E+00 0. -1.
     999900   -1    0    0    0    0 -0.00000000000E+00 -0.00000000000E+00 -0.74505805969E-08  0.93827000000E+00  0.93827000000E+00 0. -1.
     999902    2    1    2    0    0  0.13976094117E-01  0.19054327152E-01 -0.33690574219E-02  0.10200605815E+01  0.10197812711E+01 0.  0.
     999903    2    3    3    0    0  0.41142568086E-02  0.95886449093E-01  0.88100376859E-01  0.13193497769E+00  0.20833235626E-01 0.  0.
         14    1    1    2    0    0 -0.13976094117E-01 -0.19054327152E-01  0.33690574219E-02  0.23869418465E-01  0.00000000000E+00 0.  1.
     999901    1    3    3    0    0  0.98618373081E-02 -0.76832121941E-01 -0.91469434281E-01  0.88812560384E+00  0.88000000000E+00 0.  1.
        -11    1    4    4    0    0  0.36488292691E-02  0.17866387315E-01  0.28130384147E-01  0.33527621210E-01  0.51100000000E-03 0.  1.
         11    1    4    4    0    0  0.46542753953E-03  0.78020061778E-01  0.59969992712E-01  0.98407356480E-01  0.51100000000E-03 0. -1.
</event>
<event>
 8    1  0.1088021E+005  0.1043930E+01  0.7957747E-01            NaN
         13   -1    0    0    0    0  0.00000000000E+00  0.00000000000E+00  0.74505805969E-08  0.10566000000E+00  0.10566000000E+00 0.  1.
     999900   -1    0    0    0    0 -0.00000000000E+00 -0.00000000000E+00 -0.74505805969E-08  0.93827000000E+00  0.93827000000E+00 0. -1.
     999902    2    1    2    0    0  0.17211678457E-01  0.46550423272E-02 -0.16491988071E-01  0.10196422054E+01  0.10193528977E+01 0.  0.
     999903    2    3    3    0    0 -0.11841894262E+00  0.16927422688E-01 -0.43343446826E-01  0.12876214755E+00  0.19785162371E-01 0.  0.
         14    1    1    2    0    0 -0.17211678457E-01 -0.46550423272E-02  0.16491988071E-01  0.24287794567E-01  0.00000000000E+00 0.  1.
     999901    1    3    3    0    0  0.13563062107E+00 -0.12272380360E-01  0.26851458755E-01  0.89088005788E+00  0.88000000000E+00 0.  1.
        -11    1    4    4    0    0 -0.37510025312E-01 -0.34770879344E-02 -0.10741995518E-01  0.39175805392E-01  0.51100000000E-03 0.  1.
         11    1    4    4    0    0 -0.80908917306E-01  0.20404510622E-01 -0.32601451309E-01  0.89586342161E-01  0.51100000000E-03 0. -1.
</event>
<event>
 8    1  0.1088021E+005  0.1043930E+01  0.7957747E-01            NaN
         13   -1    0    0    0    0  0.00000000000E+00  0.00000000000E+00  0.74505805969E-08  0.10566000000E+00  0.10566000000E+00 0.  1.
     999900   -1    0    0    0    0 -0.00000000000E+00 -0.00000000000E+00 -0.74505805969E-08  0.93827000000E+00  0.93827000000E+00 0. -1.
     999902    2    1    2    0    0  0.15176331622E-01 -0.69771575937E-02 -0.15957814063E-01  0.10208290563E+01  0.10205676404E+01 0.  0.
     999903    2    3    3    0    0 -0.24089785913E-01 -0.10035648672E+00 -0.80814288893E-01  0.13264670487E+00  0.20309032734E-01 0.  0.
         14    1    1    2    0    0 -0.15176331622E-01  0.69771575937E-02  0.15957814063E-01  0.23100943687E-01  0.00000000000E+00 0.  1.
     999901    1    3    3    0    0  0.39266117535E-01  0.93379329125E-01  0.64856474830E-01  0.88818235145E+00  0.88000000000E+00 0.  1.
        -11    1    4    4    0    0 -0.46775152235E-02 -0.23896271609E-01 -0.30698151604E-01  0.39186076333E-01  0.51100000000E-03 0. -1.
         11    1    4    4    0    0 -0.19412270690E-01 -0.76460215110E-01 -0.50116137289E-01  0.93460628533E-01  0.51100000000E-03 0.  1.
</event>
<event>
 8    1  0.1088021E+005  0.1043930E+01  0.7957747E-01            NaN
         13   -1    0    0    0    0  0.00000000000E+00  0.00000000000E+00  0.74505805969E-08  0.10566000000E+00  0.10566000000E+00 0. -1.
     999900   -1    0    0    0    0 -0.00000000000E+00 -0.00000000000E+00 -0.74505805969E-08  0.93827000000E+00  0.93827000000E+00 0.  1.
     999902    2    1    2    0    0 -0.39495268224E-02 -0.34524916721E-02 -0.22497914738E-01  0.10208286012E+01  0.10205671748E+01 0.  0.
     999903    2    3    3    0    0  0.80661622575E-01 -0.92549284185E-01  0.38612912115E-01  0.13019297522E+00  0.19687215499E-01 0.  0.
         14    1    1    2    0    0  0.39495268224E-02  0.34524916721E-02  0.22497914738E-01  0.23101398842E-01  0.00000000000E+00 0. -1.
     999901    1    3    3    0    0 -0.84611149397E-01  0.89096792513E-01 -0.61110826854E-01  0.89063562594E+00  0.88000000000E+00 0.  1.
        -11    1    4    4    0    0  0.58315818032E-02 -0.10703852682E-01  0.97032544066E-02  0.15588267244E-01  0.51100000000E-03 0.  1.
         11    1    4    4    0    0  0.74830040771E-01 -0.81845431503E-01  0.28909657709E-01  0.11460470797E+00  0.51100000000E-03 0. -1.
</event>
<event>
 8    1  0.1088021E+005  0.1043930E+01  0.7957747E-01            NaN
         13   -1    0    0    0    0  0.00000000000E+00  0.00000000000E+00  0.74505805969E-08  0.10566000000E+00  0.10566000000E+00 0.  1.
     999900   -1    0    0    0    0 -0.00000000000E+00 -0.00000000000E+00 -0.74505805969E-08  0.93827000000E+00  0.93827000000E+00 0. -1.
     999902    2    1    2    0    0  0.27919574015E-01 -0.15324688000E-01  0.38713139667E-02  0.10118467373E+01  0.10113379672E+01 0.  0.
     999903    2    3    3    0    0 -0.24856417226E-01  0.10210154550E+00 -0.55826786383E-01  0.12047807687E+00  0.18861862497E-01 0.  0.
         14    1    1    2    0    0 -0.27919574015E-01  0.15324688000E-01 -0.38713139667E-02  0.32083262728E-01  0.00000000000E+00 0. -1.
     999901    1    3    3    0    0  0.52775991241E-01 -0.11742623350E+00  0.59698100350E-01  0.89136866040E+00  0.88000000000E+00 0. -1.
        -11    1    4    4    0    0 -0.18836528456E-01  0.38475786052E-01 -0.21649054372E-01  0.48001495734E-01  0.51100000000E-03 0.  1.
         11    1    4    4    0    0 -0.60198887705E-02  0.63625759449E-01 -0.34177732012E-01  0.72476581133E-01  0.51100000000E-03 0. -1.
</event>
<event>
 8    1  0.1088021E+005  0.1043930E+01  0.7957747E-01            NaN
         13   -1    0    0    0    0  0.00000000000E+00  0.00000000000E+00  0.74505805969E-08  0.10566000000E+00  0.10566000000E+00 0. -1.
     999900   -1    0    0    0    0 -0.00000000000E+00 -0.00000000000E+00 -0.74505805969E-08  0.93827000000E+00  0.93827000000E+00 0. -1.
     999902    2    1    2    0    0 -0.59296697535E-02  0.64457128546E-02  0.21725940737E-01  0.10205051265E+01  0.10202362415E+01 0.  0.
     999903    2    3    3    0    0  0.12084487978E+00  0.47121342463E-02 -0.42240097673E-01  0.12912055979E+00  0.16192712269E-01 0.  0.
         14    1    1    2    0    0  0.59296697535E-02 -0.64457128546E-02 -0.21725940737E-01  0.23424873500E-01  0.00000000000E+00 0.  1.
     999901    1    3    3    0    0 -0.12677454953E+00  0.17335786083E-02  0.63966038410E-01  0.89138456671E+00  0.88000000000E+00 0.  1.
        -11    1    4    4    0    0  0.55634325899E-01  0.86282110940E-03 -0.11047522106E-01  0.56729459227E-01  0.51100000000E-03 0. -1.
         11    1    4    4    0    0  0.65210553879E-01  0.38493131370E-02 -0.31192575566E-01  0.72391100560E-01  0.51100000000E-03 0.  1.
</event>
<event>
 8    1  0.1088021E+005  0.1043930E+01  0.7957747E-01            NaN
         13   -1    0    0    0    0  0.00000000000E+00  0.00000000000E+00  0.74505805969E-08  0.10566000000E+00  0.10566000000E+00 0. -1.
     999900   -1    0    0    0    0 -0.00000000000E+00 -0.00000000000E+00 -0.74505805969E-08  0.93827000000E+00  0.93827000000E+00 0.  1.
     999902    2    1    2    0    0 -0.94507381396E-02 -0.22532678395E-01  0.23860268981E-03  0.10194944730E+01  0.10192015922E+01 0.  0.
     999903    2    3    3    0    0  0.23748073599E-01  0.98492270856E-01 -0.74559977191E-01  0.12744961598E+00  0.20482089643E-01 0.  0.
         14    1    1    2    0    0  0.94507381396E-02  0.22532678395E-01 -0.23860268981E-03  0.24435526970E-01  0.00000000000E+00 0. -1.
     999901    1    3    3    0    0 -0.33198811738E-01 -0.12102494925E+00  0.74798579881E-01  0.89204485705E+00  0.88000000000E+00 0. -1.
        -11    1    4    4    0    0  0.17696803582E-01  0.36274636567E-01 -0.23295788860E-01  0.46604517106E-01  0.51100000000E-03 0.  1.
         11    1    4    4    0    0  0.60512700171E-02  0.62217634288E-01 -0.51264188331E-01  0.80845098871E-01  0.51100000000E-03 0. -1.
</event>
<event>
 8    1  0.1088021E+005  0.1043930E+01  0.7957747E-01            NaN
         13   -1    0    0    0    0  0.00000000000E+00  0.00000000000E+00  0.74505805969E-08  0.10566000000E+00  0.10566000000E+00 0.  1.
     999900   -1    0    0    0    0 -0.00000000000E+00 -0.00000000000E+00 -0.74505805969E-08  0.93827000000E+00  0.93827000000E+00 0.  1.
     999902    2    1    2    0    0  0.21707025996E-01 -0.99220787191E-02  0.11375637554E-01  0.10174904888E+01  0.10171469152E+01 0.  0.
     999903    2    3    3    0    0  0.83563893886E-01 -0.23276693645E-01 -0.93446083792E-01  0.12901302080E+00  0.19684007000E-01 0.  0.
         14    1    1    2    0    0 -0.21707025996E-01  0.99220787191E-02 -0.11375637554E-01  0.26439511218E-01  0.00000000000E+00 0.  1.
     999901    1    3    3    0    0 -0.61856867891E-01  0.13354614926E-01  0.10482172135E+00  0.88847746798E+00  0.88000000000E+00 0. -1.
        -11    1    4    4    0    0  0.21272687538E-01 -0.46780630553E-02 -0.12239383157E-01  0.24989500397E-01  0.51100000000E-03 0. -1.
         11    1    4    4    0    0  0.62291206348E-01 -0.18598630589E-01 -0.81206700635E-01  0.10402352040E+00  0.51100000000E-03 0.  1.
</event>
<event>
 8    1  0.1088021E+005  0.1043930E+01  0.7957747E-01            NaN
         13   -1    0    0    0    0  0.00000000000E+00  0.00000000000E+00  0.74505805969E-08  0.10566000000E+00  0.10566000000E+00 0. -1.
     999900   -1    0    0    0    0 -0.00000000000E+00 -0.00000000000E+00 -0.74505805969E-08  0.93827000000E+00  0.93827000000E+00 0.  1.
     999902    2    1    2    0    0  0.89200991137E-02 -0.15343855252E-01 -0.16490760554E-01  0.10197030058E+01  0.10194151622E+01 0.  0.
     999903    2    3    3    0    0  0.55451333364E-02  0.12579467926E+00 -0.14985282042E-01  0.12844897764E+00  0.20482464350E-01 0.  0.
         14    1    1    2    0    0 -0.89200991137E-02  0.15343855252E-01  0.16490760554E-01  0.24226994156E-01  0.00000000000E+00 0. -1.
     999901    1    3    3    0    0  0.33749657774E-02 -0.14113853451E+00 -0.15054785120E-02  0.89125402820E+00  0.88000000000E+00 0.  1.
        -11    1    4    4    0    0  0.12224038608E-01  0.68053282516E-01 -0.12515643862E-01  0.70267907635E-01  0.51100000000E-03 0. -1.
         11    1    4    4    0    0 -0.66789052713E-02  0.57741396744E-01 -0.24696381794E-02  0.58181070008E-01  0.51100000000E-03 0.  1.
</event>
<event>
 8    1  0.1088021E+005  0.1043930E+01  0.7957747E-01            NaN
         13   -1    0    0    0    0  0.00000000000E+00  0.00000000000E+00  0.74505805969E-08  0.10566000000E+00  0.10566000000E+00 0. -1.
     999900   -1    0    0    0    0 -0.00000000000E+00 -0.00000000000E+00 -0.74505805969E-08  0.93827000000E+00  0.93827000000E+00 0. -1.
     999902    2    1    2    0    0 -0.25508804971E-01  0.85281271461E-02  0.11825105735E-01  0.10145486929E+01  0.10141231626E+01 0.  0.
     999903    2    3    3    0    0 -0.20268316485E-02 -0.39249930271E-01 -0.11556968797E+00  0.12378296647E+00  0.20523277973E-01 0.  0.
         14    1    1    2    0    0  0.25508804971E-01 -0.85281271461E-02 -0.11825105735E-01  0.29381307141E-01  0.00000000000E+00 0. -1.
     999901    1    3    3    0    0 -0.23481973322E-01  0.47778057417E-01  0.12739479370E+00  0.89076572639E+00  0.88000000000E+00 0.  1.
        -11    1    4    4    0    0 -0.36873873376E-02 -0.16506470313E-01 -0.78136852570E-01  0.79948040865E-01  0.51100000000E-03 0.  1.
         11    1    4    4    0    0  0.16605556891E-02 -0.22743459958E-01 -0.37432835399E-01  0.43834925608E-01  0.51100000000E-03 0. -1.
</event>
<event>
 8    1  0.1088021E+005  0.1043930E+01  0.7957747E-01            NaN
         13   -1    0    0    0    0  0.00000000000E+00  0.00000000000E+00  0.74505805969E-08  0.10566000000E+00  0.10566000000E+00 0. -1.
     999900   -1    0    0    0    0 -0.00000000000E+00 -0.00000000000E+00 -0.74505805969E-08  0.93827000000E+00  0.93827000000E+00 0. -1.
     999902    2    1    2    0    0 -0.25512662783E-02  0.19731049132E-01  0.11582319865E-01  0.10209088490E+01  0.10206492564E+01 0.  0.
     999903    2    3    3    0    0  0.36364228561E-01 -0.10641482978E+00  0.61300064882E-01  0.12967428243E+00  0.20279261647E-01 0.  0.
         14    1    1    2    0    0  0.25512662783E-02 -0.19731049132E-01 -0.11582319865E-01  0.23021150990E-01  0.00000000000E+00 0.  1.
     999901    1    3    3    0    0 -0.38915494840E-01  0.12614587891E+00 -0.49717745016E-01  0.89123456658E+00  0.88000000000E+00 0.  1.
        -11    1    4    4    0    0  0.33455379665E-01 -0.90651606726E-01  0.44290023775E-01  0.10629601854E+00  0.51100000000E-03 0. -1.
         11    1    4    4    0    0  0.29088488960E-02 -0.15763223050E-01  0.17010041107E-01  0.23378263885E-01  0.51100000000E-03 0.  1.
</event>
<event>
 8    1  0.1088021E+005  0.1043930E+01  0.7957747E-01            NaN
         13   -1    0    0    0    0  0.00000000000E+00  0.00000000000E+00  0.74505805969E-08  0.10566000000E+00  0.10566000000E+00 0.  1.
     999900   -1    0    0    0    0 -0.00000000000E+00 -0.00000000000E+00 -0.74505805969E-08  0.93827000000E+00  0.93827000000E+00 0. -1.
     999902    2    1    2    0    0 -0.10529273329E-01 -0.72625076430E-02 -0.19297749851E-01  0.10207780505E+01  0.10205154657E+01 0.  0.
     999903    2    3    3    0    0  0.71325750929E-01  0.97410144497E-01  0.40413572998E-01  0.12880156477E+00  0.19506081324E-01 0.  0.
         14    1    1    2    0    0  0.10529273329E-01  0.72625076430E-02  0.19297749851E-01  0.23151949451E-01  0.00000000000E+00 0.  1.
     999901    1    3    3    0    0 -0.81855024258E-01 -0.10467265214E+00 -0.59711322849E-01  0.89197648578E+00  0.88000000000E+00 0. -1.
        -11    1    4    4    0    0  0.54063432328E-01  0.63234498443E-01  0.20698794990E-01  0.85733060971E-01  0.51100000000E-03 0.  1.
         11    1    4    4    0    0  0.17262318600E-01  0.34175646054E-01  0.19714778008E-01  0.43068503800E-01  0.51100000000E-03 0. -1.
</event>
<event>
 8    1  0.1088021E+005  0.1043930E+01  0.7957747E-01            NaN
         13   -1    0    0    0    0  0.00000000000E+00  0.00000000000E+00  0.74505805969E-08  0.10566000000E+00  0.10566000000E+00 0. -1.
     999900   -1    0    0    0    0 -0.00000000000E+00 -0.00000000000E+00 -0.74505805969E-08  0.93827000000E+00  0.93827000000E+00 0.  1.
     999902    2    1    2    0    0  0.14089992221E-01  0.13176346820E-01 -0.10490452706E-01  0.10219710931E+01  0.10217351523E+01 0.  0.
     999903    2    3    3    0    0  0.78149737959E-01  0.85792968625E-02  0.10445454485E+00  0.13217497239E+00  0.19454703979E-01 0.  0.
         14    1    1    2    0    0 -0.14089992221E-01 -0.13176346820E-01  0.10490452706E-01  0.21958906947E-01  0.00000000000E+00 0. -1.
     999901    1    3    3    0    0 -0.64059745738E-01  0.45970499578E-02 -0.11494499756E+00  0.88979612067E+00  0.88000000000E+00 0.  1.
        -11    1    4    4    0    0  0.30404254258E-01  0.11485091067E-01  0.34222387466E-01  0.47199141080E-01  0.51100000000E-03 0.  1.
         11    1    4    4    0    0  0.47745483701E-01 -0.29057942047E-02  0.70232157387E-01  0.84975831305E-01  0.51100000000E-03 0. -1.
</event>
<event>
 8    1  0.1088021E+005  0.1043930E+01  0.7957747E-01            NaN
         13   -1    0    0    0    0  0.00000000000E+00  0.00000000000E+00  0.74505805969E-08  0.10566000000E+00  0.10566000000E+00 0.  1.
     999900   -1    0    0    0    0 -0.00000000000E+00 -0.00000000000E+00 -0.74505805969E-08  0.93827000000E+00  0.93827000000E+00 0.  1.
     999902    2    1    2    0    0 -0.14402210406E-01  0.10803774589E-01 -0.14295005836E-01  0.10209410374E+01  0.10206821785E+01 0.  0.
     999903    2    3    3    0    0 -0.10412733347E+00 -0.34746308097E-01  0.69450253235E-01  0.13125644375E+00  0.18844332063E-01 0.  0.
         14    1    1    2    0    0  0.14402210406E-01 -0.10803774589E-01  0.14295005836E-01  0.22988962608E-01  0.00000000000E+00 0.  1.
     999901    1    3    3    0    0  0.89725123061E-01  0.45550082685E-01 -0.83745259071E-01  0.88968459364E+00  0.88000000000E+00 0.  1.
        -11    1    4    4    0    0 -0.43718293234E-01 -0.22937282925E-01  0.25084136371E-01  0.55379446817E-01  0.51100000000E-03 0. -1.
         11    1    4    4    0    0 -0.60409040234E-01 -0.11809025171E-01  0.44366116863E-01  0.75876996936E-01  0.51100000000E-03 0.  1.
</event>
<event>
 8    1  0.1088021E+005  0.1043930E+01  0.7957747E-01            NaN
         13   -1    0    0    0    0  0.00000000000E+00  0.00000000000E+00  0.74505805969E-08  0.10566000000E+00  0.10566000000E+00 0. -1.
     999900   -1    0    0    0    0 -0.00000000000E+00 -0.00000000000E+00 -0.74505805969E-08  0.93827000000E+00  0.93827000000E+00 0.  1.
     999902    2    1    2    0    0 -0.15665737856E-01 -0.34726635623E-03 -0.19064959943E-01  0.10192518997E+01  0.10189531032E+01 0.  0.
     999903    2    3    3    0    0 -0.83606151597E-02  0.11705890692E+00  0.49143750633E-01  0.12880818866E+00  0.20093622476E-01 0.  0.
         14    1    1    2    0    0  0.15665737856E-01  0.34726635623E-03  0.19064959943E-01  0.24678100294E-01  0.00000000000E+00 0. -1.
     999901    1    3    3    0    0 -0.73051226962E-02 -0.11740617328E+00 -0.68208710577E-01  0.89044371105E+00  0.88000000000E+00 0. -1.
        -11    1    4    4    0    0 -0.24087085792E-02  0.64938289181E-01  0.16598231124E-01  0.67071198559E-01  0.51100000000E-03 0. -1.
         11    1    4    4    0    0 -0.59519065805E-02  0.52120617741E-01  0.32545519510E-01  0.61736990101E-01  0.51100000000E-03 0.  1.
</event>
<event>
 8    1  0.1088021E+005  0.1043930E+01  0.7957747E-01            NaN
         13   -1    0    0    0    0  0.00000000000E+00  0.00000000000E+00  0.74505805969E-08  0.10566000000E+00  0.10566000000E+00 0.  1.
     999900   -1    0    0    0    0 -0.00000000000E+00 -0.00000000000E+00 -0.74505805969E-08  0.93827000000E+00  0.93827000000E+00 0. -1.
     999902    2    1    2    0    0  0.84357247665E-02 -0.22260289909E-01 -0.46238816631E-02  0.10196800053E+01  0.10193916083E+01 0.  0.
     999903    2    3    3    0    0 -0.77910144851E-01 -0.10411240136E+00 -0.66017915785E-02  0.13167139645E+00  0.19605871651E-01 0.  0.
         14    1    1    2    0    0 -0.84357247665E-02  0.22260289909E-01  0.46238816631E-02  0.24249994656E-01  0.00000000000E+00 0.  1.
     999901    1    3    3    0    0  0.86345869618E-01  0.81852111447E-01  0.19779099154E-02  0.88800860890E+00  0.88000000000E+00 0. -1.
        -11    1    4    4    0    0 -0.39681594393E-01 -0.58671736794E-01 -0.12743999087E-01  0.71969940015E-01  0.51100000000E-03 0. -1.
         11    1    4    4    0    0 -0.38228550458E-01 -0.45440664562E-01  0.61422075081E-02  0.59701456432E-01  0.51100000000E-03 0.  1.
</event>
<event>
 8    1  0.1088021E+005  0.1043930E+01  0.7957747E-01            NaN
         13   -1    0    0    0    0  0.00000000000E+00  0.00000000000E+00  0.74505805969E-08  0.10566000000E+00  0.10566000000E+00 0. -1.
     999900   -1    0    0    0    0 -0.00000000000E+00 -0.00000000000E+00 -0.74505805969E-08  0.93827000000E+00  0.93827000000E+00 0.  1.
     999902    2    1    2    0    0  0.85155135964E-02  0.29544426908E-01  0.27705224986E-02  0.10130582827E+01  0.10125877845E+01 0.  0.
     999903    2    3    3    0    0  0.14600012682E-01  0.98722986578E-01  0.76494234350E-01  0.12724911595E+00  0.19534102767E-01 0.  0.
         14    1    1    2    0    0 -0.85155135964E-02 -0.29544426908E-01 -0.27705224986E-02  0.30871717283E-01  0.00000000000E+00 0. -1.
     999901    1    3    3    0    0 -0.60844990856E-02 -0.69178559670E-01 -0.73723711852E-01  0.88580916677E+00  0.88000000000E+00 0. -1.
        -11    1    4    4    0    0  0.65462541268E-02  0.10775848427E-01  0.15155638279E-01  0.19721228285E-01  0.51100000000E-03 0.  1.
         11    1    4    4    0    0  0.80537585553E-02  0.87947138151E-01  0.61338596071E-01  0.10752788766E+00  0.51100000000E-03 0. -1.
</event>
<event>
 8    1  0.1088021E+005  0.1043930E+01  0.7957747E-01            NaN
         13   -1    0    0    0    0  0.00000000000E+00  0.00000000000E+00  0.74505805969E-08  0.10566000000E+00  0.10566000000E+00 0.  1.
     999900   -1    0    0    0    0 -0.00000000000E+00 -0.00000000000E+00 -0.74505805969E-08  0.93827000000E+00  0.93827000000E+00 0.  1.
     999902    2    1    2    0    0 -0.18647490709E-01 -0.12716723610E-01  0.67248491492E-02  0.10203786186E+01  0.10201067874E+01 0.  0.
     999903    2    3    3    0    0  0.44595126122E-01  0.29882962385E-01  0.11714933455E+00  0.13020564171E+00  0.18650089347E-01 0.  0.
         14    1    1    2    0    0  0.18647490709E-01  0.12716723610E-01 -0.67248491492E-02  0.23551381386E-01  0.00000000000E+00 0.  1.
     999901    1    3    3    0    0 -0.63242616831E-01 -0.42599685995E-01 -0.11042448540E+00  0.89017297690E+00  0.88000000000E+00 0.  1.
        -11    1    4    4    0    0  0.42835730108E-02  0.94650435788E-02  0.34179625755E-01  0.35727356262E-01  0.51100000000E-03 0. -1.
         11    1    4    4    0    0  0.40311553111E-01  0.20417918806E-01  0.82969708798E-01  0.94478285450E-01  0.51100000000E-03 0.  1.
</event>
<event>
 8    1  0.1088021E+005  0.1043930E+01  0.7957747E-01            NaN
         13   -1    0    0    0    0  0.00000000000E+00  0.00000000000E+00  0.74505805969E-08  0.10566000000E+00  0.10566000000E+00 0. -1.
     999900   -1    0    0    0    0 -0.00000000000E+00 -0.00000000000E+00 -0.74505805969E-08  0.93827000000E+00  0.93827000000E+00 0.  1.
     999902    2    1    2    0    0  0.13828252636E-01  0.17669347452E-01  0.42210743682E-02  0.10210992339E+01  0.10208439654E+01 0.  0.
     999903    2    3    3    0    0 -0.12437336914E+00  0.62429796806E-02 -0.29830450129E-01  0.12958941545E+00  0.19896007009E-01 0.  0.
         14    1    1    2    0    0 -0.13828252636E-01 -0.17669347452E-01 -0.42210743682E-02  0.22830766066E-01  0.00000000000E+00 0. -1.
     999901    1    3    3    0    0  0.13820162177E+00  0.11426367771E-01  0.34051524497E-01  0.89150981849E+00  0.88000000000E+00 0. -1.
        -11    1    4    4    0    0 -0.87854829635E-02 -0.46765757032E-02 -0.32464410311E-02  0.10481200865E-01  0.51100000000E-03 0. -1.
         11    1    4    4    0    0 -0.11558788617E+00  0.10919555384E-01 -0.26584009098E-01  0.11910821458E+00  0.51100000000E-03 0.  1.
</event>
<event>
 8    1  0.1088021E+005  0.1043930E+01  0.7957747E-01            NaN
         13   -1    0    0    0    0  0.00000000000E+00  0.00000000000E+00  0.74505805969E-08  0.10566000000E+00  0.10566000000E+00 0.  1.
     999900   -1    0    0    0    0 -0.00000000000E+00 -0.00000000000E+00 -0.74505805969E-08  0.93827000000E+00  0.93827000000E+00 0. -1.
     999902    2    1    2    0    0  0.18748939596E-01 -0.11985867779E-01 -0.78214614327E-02  0.10203427360E+01  0.10200700662E+01 0.  0.
     999903    2    3    3    0    0  0.11810022619E+00 -0.21014445832E-01 -0.55065749638E-01  0.13344690442E+00  0.19661361995E-01 0.  0.
         14    1    1    2    0    0 -0.18748939596E-01  0.11985867779E-01  0.78214614327E-02  0.23587263965E-01  0.00000000000E+00 0. -1.
     999901    1    3    3    0    0 -0.99351286597E-01  0.90285780529E-02  0.47244288205E-01  0.88689583162E+00  0.88000000000E+00 0.  1.
        -11    1    4    4    0    0  0.40168568147E-01  0.21857135853E-02 -0.17369201433E-01  0.43820560132E-01  0.51100000000E-03 0.  1.
         11    1    4    4    0    0  0.77931658046E-01 -0.23200159417E-01 -0.37696548205E-01  0.89626344287E-01  0.51100000000E-03 0. -1.
</event>
<event>
 8    1  0.1088021E+005  0.1043930E+01  0.7957747E-01            NaN
         13   -1    0    0    0    0  0.00000000000E+00  0.00000000000E+00  0.74505805969E-08  0.10566000000E+00  0.10566000000E+00 0.  1.
     999900   -1    0    0    0    0 -0.00000000000E+00 -0.00000000000E+00 -0.74505805969E-08  0.93827000000E+00  0.93827000000E+00 0. -1.
     999902    2    1    2    0    0 -0.18713927853E-01  0.12907280678E-01  0.46445158182E-02  0.10207269718E+01  0.10204632137E+01 0.  0.
     999903    2    3    3    0    0  0.65165688940E-01  0.63928975436E-01  0.92023979715E-01  0.13096623197E+00  0.18715238640E-01 0.  0.
         14    1    1    2    0    0  0.18713927853E-01 -0.12907280678E-01 -0.46445158182E-02  0.23203028195E-01  0.00000000000E+00 0. -1.
     999901    1    3    3    0    0 -0.83879616793E-01 -0.51021694758E-01 -0.87379463897E-01  0.88976073984E+00  0.88000000000E+00 0.  1.
        -11    1    4    4    0    0  0.12312668340E-01  0.17568106254E-01  0.12560556715E-01  0.24865012869E-01  0.51100000000E-03 0.  1.
         11    1    4    4    0    0  0.52853020599E-01  0.46360869183E-01  0.79463423000E-01  0.10610121910E+00  0.51100000000E-03 0. -1.
</event>
<event>
 8    1  0.1088021E+005  0.1043930E+01  0.7957747E-01            NaN
         13   -1    0    0    0    0  0.00000000000E+00  0.00000000000E+00  0.74505805969E-08  0.10566000000E+00  0.10566000000E+00 0. -1.
     999900   -1    0    0    0    0 -0.00000000000E+00 -0.00000000000E+00 -0.74505805969E-08  0.93827000000E+00  0.93827000000E+00 0. -1.
     999902    2    1    2    0    0 -0.18051166834E-01  0.15019755467E-02  0.14469113351E-01  0.10207469071E+01  0.10204836072E+01 0.  0.
     999903    2    3    3    0    0 -0.99348367709E-01  0.47346871370E-01 -0.69802409391E-01  0.13180783221E+00  0.19725716226E-01 0.  0.
         14    1    1    2    0    0  0.18051166834E-01 -0.15019755467E-02 -0.14469113351E-01  0.23183092886E-01  0.00000000000E+00 0.  1.
     999901    1    3    3    0    0  0.81297200875E-01 -0.45844895823E-01  0.84271522742E-01  0.88893907490E+00  0.88000000000E+00 0.  1.
        -11    1    4    4    0    0 -0.60565225955E-01  0.35216716204E-01 -0.35070128153E-01  0.78348827080E-01  0.51100000000E-03 0.  1.
         11    1    4    4    0    0 -0.38783141754E-01  0.12130155166E-01 -0.34732281238E-01  0.53459005132E-01  0.51100000000E-03 0. -1.
</event>
<event>
 8    1  0.1088021E+005  0.1043930E+01  0.7957747E-01            NaN
         13   -1    0    0    0    0  0.00000000000E+00  0.00000000000E+00  0.74505805969E-08  0.10566000000E+00  0.10566000000E+00 0. -1.
     999900   -1    0    0    0    0 -0.00000000000E+00 -0.00000000000E+00 -0.74505805969E-08  0.93827000000E+00  0.93827000000E+00 0.  1.
     999902    2    1    2    0    0  0.56075191342E-02 -0.88367124052E-02  0.21841453397E-01  0.10197105689E+01  0.10194229071E+01 0.  0.
     999903    2    3    3    0    0  0.16382699597E-01 -0.14802656434E-01  0.12960777021E+00  0.13305095210E+00  0.20417401196E-01 0.  0.
         14    1    1    2    0    0 -0.56075191342E-02  0.88367124052E-02 -0.21841453397E-01  0.24219431114E-01  0.00000000000E+00 0.  1.
     999901    1    3    3    0    0 -0.10775180463E-01  0.59659440288E-02 -0.10776631681E+00  0.88665961679E+00  0.88000000000E+00 0.  1.
        -11    1    4    4    0    0  0.20092064734E-01 -0.67892376897E-02  0.93268051302E-01  0.95650276154E-01  0.51100000000E-03 0. -1.
         11    1    4    4    0    0 -0.37093651371E-02 -0.80134187444E-02  0.36339718909E-01  0.37400675944E-01  0.51100000000E-03 0.  1.
</event>
<event>
 8    1  0.1088021E+005  0.1043930E+01  0.7957747E-01            NaN
         13   -1    0    0    0    0  0.00000000000E+00  0.00000000000E+00  0.74505805969E-08  0.10566000000E+00  0.10566000000E+00 0.  1.
     999900   -1    0    0    0    0 -0.00000000000E+00 -0.00000000000E+00 -0.74505805969E-08  0.93827000000E+00  0.93827000000E+00 0. -1.
     999902    2    1    2    0    0 -0.20252333233E-01  0.11334289282E-01  0.57483038164E-02  0.10200204598E+01  0.10197401985E+01 0.  0.
     999903    2    3    3    0    0  0.10465523918E+00 -0.68296347525E-01 -0.14526129171E-01  0.12740968653E+00  0.20127335098E-01 0.  0.
         14    1    1    2    0    0  0.20252333233E-01 -0.11334289282E-01 -0.57483038164E-02  0.23909540181E-01  0.00000000000E+00 0. -1.
     999901    1    3    3    0    0 -0.12490757242E+00  0.79630636807E-01  0.20274432987E-01  0.89261077329E+00  0.88000000000E+00 0. -1.
        -11    1    4    4    0    0  0.65070374383E-01 -0.53719848281E-01 -0.88937576162E-02  0.84848899622E-01  0.51100000000E-03 0. -1.
         11    1    4    4    0    0  0.39584864801E-01 -0.14576499244E-01 -0.56323715548E-02  0.42560786904E-01  0.51100000000E-03 0.  1.
</event>
<event>
 8    1  0.1088021E+005  0.1043930E+01  0.7957747E-01            NaN
         13   -1    0    0    0    0  0.00000000000E+00  0.00000000000E+00  0.74505805969E-08  0.10566000000E+00  0.10566000000E+00 0. -1.
     999900   -1    0    0    0    0 -0.00000000000E+00 -0.00000000000E+00 -0.74505805969E-08  0.93827000000E+00  0.93827000000E+00 0.  1.
     999902    2    1    2    0    0  0.17252950008E-01 -0.95719629541E-03 -0.16475616827E-01  0.10200547731E+01  0.10197753251E+01 0.  0.
     999903    2    3    3    0    0 -0.42037198143E-01 -0.12070993169E+00  0.78567276730E-02  0.12963459012E+00  0.20134178618E-01 0.  0.
         14    1    1    2    0    0 -0.17252950008E-01  0.95719629541E-03  0.16475616827E-01  0.23875226880E-01  0.00000000000E+00 0. -1.
     999901    1    3    3    0    0  0.59290148152E-01  0.11975273540E+00 -0.24332344500E-01  0.89042018300E+00  0.88000000000E+00 0.  1.
        -11    1    4    4    0    0 -0.42716443401E-01 -0.10123004610E+00  0.57963655308E-02  0.11002761356E+00  0.51100000000E-03 0.  1.
         11    1    4    4    0    0  0.67924525816E-03 -0.19479885592E-01  0.20603621421E-02  0.19606976563E-01  0.51100000000E-03 0. -1.
</event>
<event>
 8    1  0.1088021E+005  0.1043930E+01  0.7957747E-01            NaN
         13   -1    0    0    0    0  0.00000000000E+00  0.00000000000E+00  0.74505805969E-08  0.10566000000E+00  0.10566000000E+00 0. -1.
     999900   -1    0    0    0    0 -0.00000000000E+00 -0.00000000000E+00 -0.74505805969E-08  0.93827000000E+00  0.93827000000E+00 0.  1.
     999902    2    1    2    0    0  0.93448777142E-02 -0.20953705893E-01 -0.82638207713E-02  0.10195440355E+01  0.10192523559E+01 0.  0.
     999903    2    3    3    0    0  0.12149207780E-01  0.12512274669E+00  0.66972705623E-02  0.12737251136E+00  0.19380356701E-01 0.  0.
         14    1    1    2    0    0 -0.93448777142E-02  0.20953705893E-01  0.82638207713E-02  0.24385964485E-01  0.00000000000E+00 0. -1.
     999901    1    3    3    0    0 -0.28043300658E-02 -0.14607645259E+00 -0.14961091334E-01  0.89217152416E+00  0.88000000000E+00 0. -1.
        -11    1    4    4    0    0  0.10654868048E-01  0.12191881465E+00  0.32790966097E-02  0.12242849822E+00  0.51100000000E-03 0.  1.
         11    1    4    4    0    0  0.14943397319E-02  0.32039320411E-02  0.34181739526E-02  0.49440131400E-02  0.51100000000E-03 0. -1.
</event>
<event>
 8    1  0.1088021E+005  0.1043930E+01  0.7957747E-01            NaN
         13   -1    0    0    0    0  0.00000000000E+00  0.00000000000E+00  0.74505805969E-08  0.10566000000E+00  0.10566000000E+00 0. -1.
     999900   -1    0    0    0    0 -0.00000000000E+00 -0.00000000000E+00 -0.74505805969E-08  0.93827000000E+00  0.93827000000E+00 0.  1.
     999902    2    1    2    0    0  0.21122704169E-01  0.47579380119E-02 -0.66046079511E-02  0.10212931395E+01  0.10210422368E+01 0.  0.
     999903    2    3    3    0    0  0.23481696081E-01 -0.56873691930E-01  0.11397311899E+00  0.13093197075E+00  0.19165130481E-01 0.  0.
         14    1    1    2    0    0 -0.21122704169E-01 -0.47579380119E-02  0.66046079511E-02  0.22636860465E-01  0.00000000000E+00 0. -1.
     999901    1    3    3    0    0 -0.23589919128E-02  0.61631629942E-01 -0.12057772694E+00  0.89036116879E+00  0.88000000000E+00 0.  1.
        -11    1    4    4    0    0  0.32777843490E-02 -0.28823438095E-01  0.62754221578E-01  0.69136733367E-01  0.51100000000E-03 0.  1.
         11    1    4    4    0    0  0.20203911732E-01 -0.28050253835E-01  0.51218897413E-01  0.61795237379E-01  0.51100000000E-03 0. -1.
</event>
<event>
 8    1  0.1088021E+005  0.1043930E+01  0.7957747E-01            NaN
         13   -1    0    0    0    0  0.00000000000E+00  0.00000000000E+00  0.74505805969E-08  0.10566000000E+00  0.10566000000E+00 0.  1.
     999900   -1    0    0    0    0 -0.00000000000E+00 -0.00000000000E+00 -0.74505805969E-08  0.93827000000E+00  0.93827000000E+00 0.  1.
     999902    2    1    2    0    0 -0.23909170801E-01  0.19721934135E-02  0.35107145465E-02  0.10196841114E+01  0.10193958132E+01 0.  0.
     999903    2    3    3    0    0 -0.11741172745E+00 -0.52167110357E-01  0.24587331554E-01  0.13282560182E+00  0.23047396361E-01 0.  0.
         14    1    1    2    0    0  0.23909170801E-01 -0.19721934135E-02 -0.35107145465E-02  0.24245888556E-01  0.00000000000E+00 0.  1.
     999901    1    3    3    0    0  0.93502556651E-01  0.54139303771E-01 -0.21076617007E-01  0.88685850963E+00  0.88000000000E+00 0. -1.
        -11    1    4    4    0    0 -0.34802666449E-01 -0.10273074721E-01 -0.23356582494E-02  0.36365891666E-01  0.51100000000E-03 0. -1.
         11    1    4    4    0    0 -0.82609061003E-01 -0.41894035636E-01  0.26922989803E-01  0.96459710152E-01  0.51100000000E-03 0.  1.
</event>
<event>
 8    1  0.1088021E+005  0.1043930E+01  0.7957747E-01            NaN
         13   -1    0    0    0    0  0.00000000000E+00  0.00000000000E+00  0.74505805969E-08  0.10566000000E+00  0.10566000000E+00 0.  1.
     999900   -1    0    0    0    0 -0.00000000000E+00 -0.00000000000E+00 -0.74505805969E-08  0.93827000000E+00  0.93827000000E+00 0. -1.
     999902    2    1    2    0    0 -0.21298447121E-01  0.54248642675E-02 -0.72626121770E-02  0.10207826775E+01  0.10205201988E+01 0.  0.
     999903    2    3    3    0    0  0.20728180779E-01 -0.10064747850E+00 -0.78130013766E-01  0.13059181711E+00  0.19757308495E-01 0.  0.
         14    1    1    2    0    0  0.21298447121E-01 -0.54248642675E-02  0.72626121770E-02  0.23147322474E-01  0.00000000000E+00 0.  1.
     999901    1    3    3    0    0 -0.42026627900E-01  0.10607234277E+00  0.70867401589E-01  0.89019086041E+00  0.88000000000E+00 0.  1.
        -11    1    4    4    0    0  0.55648711027E-02 -0.49792089493E-01 -0.48863772282E-01  0.69986779674E-01  0.51100000000E-03 0.  1.
         11    1    4    4    0    0  0.15163309677E-01 -0.50855389009E-01 -0.29266241484E-01  0.60605037441E-01  0.51100000000E-03 0. -1.
</event>
<event>
 8    1  0.1088021E+005  0.1043930E+01  0.7957747E-01            NaN
         13   -1    0    0    0    0  0.00000000000E+00  0.00000000000E+00  0.74505805969E-08  0.10566000000E+00  0.10566000000E+00 0.  1.
     999900   -1    0    0    0    0 -0.00000000000E+00 -0.00000000000E+00 -0.74505805969E-08  0.93827000000E+00  0.93827000000E+00 0.  1.
     999902    2    1    2    0    0  0.77814184500E-02  0.11122936823E-01 -0.19162615863E-01  0.10204464729E+01  0.10201762240E+01 0.  0.
     999903    2    3    3    0    0 -0.49375712899E-01  0.79081570512E-01  0.87702078133E-01  0.12954503261E+00  0.19960088813E-01 0.  0.
         14    1    1    2    0    0 -0.77814184500E-02 -0.11122936823E-01  0.19162615863E-01  0.23483527064E-01  0.00000000000E+00 0.  1.
     999901    1    3    3    0    0  0.57157131349E-01 -0.67958633689E-01 -0.10686469400E+00  0.89090144033E+00  0.88000000000E+00 0.  1.
        -11    1    4    4    0    0 -0.17743376338E-01  0.20954527492E-01  0.15228319277E-01  0.31401949865E-01  0.51100000000E-03 0. -1.
         11    1    4    4    0    0 -0.31632336561E-01  0.58127043019E-01  0.72473758856E-01  0.98143082742E-01  0.51100000000E-03 0.  1.
</event>
<event>
 8    1  0.1088021E+005  0.1043930E+01  0.7957747E-01            NaN
         13   -1    0    0    0    0  0.00000000000E+00  0.00000000000E+00  0.74505805969E-08  0.10566000000E+00  0.10566000000E+00 0.  1.
     999900   -1    0    0    0    0 -0.00000000000E+00 -0.00000000000E+00 -0.74505805969E-08  0.93827000000E+00  0.93827000000E+00 0. -1.
     999902    2    1    2    0    0 -0.10891659813E-01  0.94912503895E-02  0.20126208881E-01  0.10191554895E+01  0.10188543249E+01 0.  0.
     999903    2    3    3    0    0 -0.10425485259E+00 -0.48083459477E-01 -0.55733220443E-01  0.12910707170E+00  0.19528203647E-01 0.  0.
         14    1    1    2    0    0  0.10891659813E-01 -0.94912503895E-02 -0.20126208881E-01  0.24774510517E-01  0.00000000000E+00 0. -1.
     999901    1    3    3    0    0  0.93363192778E-01  0.57574709866E-01  0.75859429324E-01  0.89004841778E+00  0.88000000000E+00 0.  1.
        -11    1    4    4    0    0 -0.28903849089E-01 -0.61085219077E-02 -0.83967038072E-02  0.30716645128E-01  0.51100000000E-03 0.  1.
         11    1    4    4    0    0 -0.75351003502E-01 -0.41974937569E-01 -0.47336516636E-01  0.98390426572E-01  0.51100000000E-03 0. -1.
</event>
<event>
 8    1  0.1088021E+005  0.1043930E+01  0.7957747E-01            NaN
         13   -1    0    0    0    0  0.00000000000E+00  0.00000000000E+00  0.74505805969E-08  0.10566000000E+00  0.10566000000E+00 0.  1.
     999900   -1    0    0    0    0 -0.00000000000E+00 -0.00000000000E+00 -0.74505805969E-08  0.93827000000E+00  0.93827000000E+00 0. -1.
     999902    2    1    2    0    0  0.20499998204E-01 -0.82596841431E-02 -0.82215839294E-02  0.10203489324E+01  0.10200764074E+01 0.  0.
     999903    2    3    3    0    0 -0.26313850478E-01 -0.12676747832E+00 -0.69244264764E-02  0.13117104447E+00  0.19886752858E-01 0.  0.
         14    1    1    2    0    0 -0.20499998204E-01  0.82596841431E-02  0.82215839294E-02  0.23581067635E-01  0.00000000000E+00 0. -1.
     999901    1    3    3    0    0  0.46813848681E-01  0.11850779417E+00 -0.12971574531E-02  0.88917788790E+00  0.88000000000E+00 0.  1.
        -11    1    4    4    0    0 -0.20969174937E-02 -0.61032981611E-02 -0.48383910689E-02  0.80819837017E-02  0.51100000000E-03 0.  1.
         11    1    4    4    0    0 -0.24216932984E-01 -0.12066418015E+00 -0.20860354074E-02  0.12308906077E+00  0.51100000000E-03 0. -1.
</event>
<event>
 8    1  0.1088021E+005  0.1043930E+01  0.7957747E-01            NaN
         13   -1    0    0    0    0  0.00000000000E+00  0.00000000000E+00  0.74505805969E-08  0.10566000000E+00  0.10566000000E+00 0.  1.
     999900   -1    0    0    0    0 -0.00000000000E+00 -0.00000000000E+00 -0.74505805969E-08  0.93827000000E+00  0.93827000000E+00 0. -1.
     999902    2    1    2    0    0 -0.11416876335E-02 -0.21674618348E-01 -0.70161665552E-02  0.10211194953E+01  0.10208646848E+01 0.  0.
     999903    2    3    3    0    0  0.22646834300E-01 -0.11799483629E+00 -0.56384008080E-01  0.13416929268E+00  0.19661694629E-01 0.  0.
         14    1    1    2    0    0  0.11416876335E-02  0.21674618348E-01  0.70161665552E-02  0.22810504693E-01  0.00000000000E+00 0.  1.
     999901    1    3    3    0    0 -0.23788521933E-01  0.96320217946E-01  0.49367841525E-01  0.88695020263E+00  0.88000000000E+00 0. -1.
        -11    1    4    4    0    0  0.11713223190E-01 -0.30137656265E-01 -0.81604884390E-02  0.33351650862E-01  0.51100000000E-03 0. -1.
         11    1    4    4    0    0  0.10933611110E-01 -0.87857180029E-01 -0.48223519641E-01  0.10081764182E+00  0.51100000000E-03 0.  1.
</event>
<event>
 8    1  0.1088021E+005  0.1043930E+01  0.7957747E-01            NaN
         13   -1    0    0    0    0  0.00000000000E+00  0.00000000000E+00  0.74505805969E-08  0.10566000000E+00  0.10566000000E+00 0.  1.
     999900   -1    0    0    0    0 -0.00000000000E+00 -0.00000000000E+00 -0.74505805969E-08  0.93827000000E+00  0.93827000000E+00 0. -1.
     999902    2    1    2    0    0  0.36393574482E-02 -0.13581394462E-01 -0.18749645487E-01  0.10204939508E+01  0.10202248062E+01 0.  0.
     999903    2    3    3    0    0 -0.11186444652E-01 -0.14699987244E-01  0.12566285327E+00  0.12859932388E+00  0.20134727229E-01 0.  0.
         14    1    1    2    0    0 -0.36393574482E-02  0.13581394462E-01  0.18749645487E-01  0.23436049242E-01  0.00000000000E+00 0.  1.
     999901    1    3    3    0    0  0.14825802100E-01  0.11185927821E-02 -0.14441249876E+00  0.89189462688E+00  0.88000000000E+00 0. -1.
        -11    1    4    4    0    0 -0.10917370338E-01 -0.15044228137E-04  0.76814297870E-01  0.77587928698E-01  0.51100000000E-03 0. -1.
         11    1    4    4    0    0 -0.26907431356E-03 -0.14684943016E-01  0.48848555403E-01  0.51011395181E-01  0.51100000000E-03 0.  1.
</event>
<event>
 8    1  0.1088021E+005  0.1043930E+01  0.7957747E-01            NaN
         13   -1    0    0    0    0  0.00000000000E+00  0.00000000000E+00  0.74505805969E-08  0.10566000000E+00  0.10566000000E+00 0. -1.
     999900   -1    0    0    0    0 -0.00000000000E+00 -0.00000000000E+00 -0.74505805969E-08  0.93827000000E+00  0.93827000000E+00 0. -1.
     999902    2    1    2    0    0 -0.52993049108E-04 -0.16685925550E-01  0.15052627703E-01  0.10214576944E+01  0.10212104665E+01 0.  0.
     999903    2    3    3    0    0  0.46254335994E-01 -0.43685403968E-01  0.11630066833E+00  0.13403191928E+00  0.19769466712E-01 0.  0.
         14    1    1    2    0    0  0.52993049108E-04  0.16685925550E-01 -0.15052627703E-01  0.22472305634E-01  0.00000000000E+00 0. -1.
     999901    1    3    3    0    0 -0.46307329043E-01  0.26999478419E-01 -0.10124804063E+00  0.88742577509E+00  0.88000000000E+00 0. -1.
        -11    1    4    4    0    0  0.54597943406E-02 -0.19441553705E-02  0.29204928937E-02  0.65099534629E-02  0.51100000000E-03 0.  1.
         11    1    4    4    0    0  0.40794541653E-01 -0.41741248598E-01  0.11338017543E+00  0.12752196582E+00  0.51100000000E-03 0. -1.
</event>
<event>
 8    1  0.1088021E+005  0.1043930E+01  0.7957747E-01            NaN
         13   -1    0    0    0    0  0.00000000000E+00  0.00000000000E+00  0.74505805969E-08  0.10566000000E+00  0.10566000000E+00 0.  1.
     999900   -1    0    0    0    0 -0.00000000000E+00 -0.00000000000E+00 -0.74505805969E-08  0.93827000000E+00  0.93827000000E+00 0. -1.
     999902    2    1    2    0    0  0.13942816668E-01 -0.17882812234E-01 -0.76164624744E-02  0.10200091386E+01  0.10197286086E+01 0.  0.
     999903    2    3    3    0    0 -0.43148979587E-01  0.10320196240E+00 -0.58355853762E-01  0.12844002647E+00  0.24061488938E-01 0.  0.
         14    1    1    2    0    0 -0.13942816668E-01  0.17882812234E-01  0.76164624744E-02  0.23920861411E-01  0.00000000000E+00 0.  1.
     999901    1    3    3    0    0  0.57091796254E-01 -0.12108477463E+00  0.50739391288E-01  0.89156911211E+00  0.88000000000E+00 0.  1.
        -11    1    4    4    0    0 -0.44303682386E-01  0.83109036308E-01 -0.45961757179E-01  0.10479824633E+00  0.51100000000E-03 0. -1.
         11    1    4    4    0    0  0.11547027991E-02  0.20092926092E-01 -0.12394096583E-01  0.23641780149E-01  0.51100000000E-03 0.  1.
</event>
<event>
 8    1  0.1088021E+005  0.1043930E+01  0.7957747E-01            NaN
         13   -1    0    0    0    0  0.00000000000E+00  0.00000000000E+00  0.74505805969E-08  0.10566000000E+00  0.10566000000E+00 0. -1.
     999900   -1    0    0    0    0 -0.00000000000E+00 -0.00000000000E+00 -0.74505805969E-08  0.93827000000E+00  0.93827000000E+00 0.  1.
     999902    2    1    2    0    0 -0.22288790687E-02  0.66190455391E-02  0.22394194941E-01  0.10204719602E+01  0.10202023044E+01 0.  0.
     999903    2    3    3    0    0 -0.69934460304E-01  0.95402289949E-01 -0.51097725394E-01  0.13037782325E+00  0.19873942478E-01 0.  0.
         14    1    1    2    0    0  0.22288790687E-02 -0.66190455391E-02 -0.22394194941E-01  0.23458039833E-01  0.00000000000E+00 0.  1.
     999901    1    3    3    0    0  0.67705581235E-01 -0.88783244410E-01  0.73491920335E-01  0.89009413692E+00  0.88000000000E+00 0.  1.
        -11    1    4    4    0    0 -0.17136912682E-01  0.27109802267E-01 -0.48322585377E-02  0.32438048628E-01  0.51100000000E-03 0. -1.
         11    1    4    4    0    0 -0.52797547622E-01  0.68292487682E-01 -0.46265466856E-01  0.97939774623E-01  0.51100000000E-03 0.  1.
</event>
<event>
 8    1  0.1088021E+005  0.1043930E+01  0.7957747E-01            NaN
         13   -1    0    0    0    0  0.00000000000E+00  0.00000000000E+00  0.74505805969E-08  0.10566000000E+00  0.10566000000E+00 0. -1.
     999900   -1    0    0    0    0 -0.00000000000E+00 -0.00000000000E+00 -0.74505805969E-08  0.93827000000E+00  0.93827000000E+00 0. -1.
     999902    2    1    2    0    0 -0.82553906274E-02  0.23375931325E-01 -0.39304737813E-02  0.10188295167E+01  0.10185202746E+01 0.  0.
     999903    2    3    3    0    0  0.12383078117E+00  0.24409998223E-01  0.16967212396E-01  0.12872584890E+00  0.18776248305E-01 0.  0.
         14    1    1    2    0    0  0.82553906274E-02 -0.23375931325E-01  0.39304737813E-02  0.25100483339E-01  0.00000000000E+00 0.  1.
     999901    1    3    3    0    0 -0.13208617180E+00 -0.10340668980E-02 -0.20897686177E-01  0.89010366776E+00  0.88000000000E+00 0. -1.
        -11    1    4    4    0    0  0.97904012607E-01  0.26141024863E-01  0.10054516182E-01  0.10183272206E+00  0.51100000000E-03 0.  1.
         11    1    4    4    0    0  0.25926768562E-01 -0.17310266406E-02  0.69126962142E-02  0.26893126840E-01  0.51100000000E-03 0. -1.
</event>
<event>
 8    1  0.1088021E+005  0.1043930E+01  0.7957747E-01            NaN
         13   -1    0    0    0    0  0.00000000000E+00  0.00000000000E+00  0.74505805969E-08  0.10566000000E+00  0.10566000000E+00 0.  1.
     999900   -1    0    0    0    0 -0.00000000000E+00 -0.00000000000E+00 -0.74505805969E-08  0.93827000000E+00  0.93827000000E+00 0. -1.
     999902    2    1    2    0    0 -0.16007727862E-01 -0.30073390056E-02  0.16241699053E-01  0.10209281690E+01  0.10206690169E+01 0.  0.
     999903    2    3    3    0    0  0.11760000539E+00 -0.38985676129E-01  0.34012859621E-01  0.12993923461E+00  0.19434141624E-01 0.  0.
         14    1    1    2    0    0  0.16007727862E-01  0.30073390056E-02 -0.16241699053E-01  0.23001830956E-01  0.00000000000E+00 0.  1.
     999901    1    3    3    0    0 -0.13360773326E+00  0.35978337123E-01 -0.17771160568E-01  0.89098893443E+00  0.88000000000E+00 0.  1.
        -11    1    4    4    0    0  0.58155993082E-01 -0.15560683613E-01  0.25871817723E-01  0.65527600896E-01  0.51100000000E-03 0. -1.
         11    1    4    4    0    0  0.59444012312E-01 -0.23424992515E-01  0.81410418978E-02  0.64411633719E-01  0.51100000000E-03 0.  1.
</event>
<event>
 8    1  0.1088021E+005  0.1043930E+01  0.7957747E-01            NaN
         13   -1    0    0    0    0  0.00000000000E+00  0.00000000000E+00  0.74505805969E-08  0.10566000000E+00  0.10566000000E+00 0. -1.
     999900   -1    0    0    0    0 -0.00000000000E+00 -0.00000000000E+00 -0.74505805969E-08  0.93827000000E+00  0.93827000000E+00 0. -1.
     999902    2    1    2    0    0  0.11192182992E-02 -0.19847656212E-01  0.12577651938E-01  0.10204059817E+01  0.10201347892E+01 0.  0.
     999903    2    3    3    0    0  0.12099866053E+00 -0.42121261950E-01  0.24130553222E-01  0.13192375698E+00  0.20167238250E-01 0.  0.
         14    1    1    2    0    0 -0.11192182992E-02  0.19847656212E-01 -0.12577651938E-01  0.23524018258E-01  0.00000000000E+00 0.  1.
     999901    1    3    3    0    0 -0.11987944223E+00  0.22273605738E-01 -0.11552901284E-01  0.88848222476E+00  0.88000000000E+00 0.  1.
        -11    1    4    4    0    0  0.73210529561E-01 -0.35733234326E-01  0.14189472048E-01  0.82693699349E-01  0.51100000000E-03 0.  1.
         11    1    4    4    0    0  0.47788130973E-01 -0.63880276240E-02  0.99410811742E-02  0.49230057635E-01  0.51100000000E-03 0. -1.
</event>
<event>
 8    1  0.1088021E+005  0.1043930E+01  0.7957747E-01            NaN
         13   -1    0    0    0    0  0.00000000000E+00  0.00000000000E+00  0.74505805969E-08  0.10566000000E+00  0.10566000000E+00 0. -1.
     999900   -1    0    0    0    0 -0.00000000000E+00 -0.00000000000E+00 -0.74505805969E-08  0.93827000000E+00  0.93827000000E+00 0.  1.
     999902    2    1    2    0    0  0.20405100562E-01  0.11325276985E-01 -0.14406084672E-03  0.10205922456E+01  0.10203253799E+01 0.  0.
     999903    2    3    3    0    0 -0.56991788226E-02  0.57198418955E-01 -0.11628295973E+00  0.13139371747E+00  0.20939018523E-01 0.  0.
         14    1    1    2    0    0 -0.20405100562E-01 -0.11325276985E-01  0.14406084672E-03  0.23337754418E-01  0.00000000000E+00 0.  1.
     999901    1    3    3    0    0  0.26104279385E-01 -0.45873141970E-01  0.11613889889E+00  0.88919852811E+00  0.88000000000E+00 0. -1.
        -11    1    4    4    0    0  0.43062877580E-02  0.28957932182E-01 -0.73886307516E-01  0.79476748234E-01  0.51100000000E-03 0.  1.
         11    1    4    4    0    0 -0.10005466581E-01  0.28240486773E-01 -0.42396652217E-01  0.51916969238E-01  0.51100000000E-03 0. -1.
</event>
<event>
 8    1  0.1088021E+005  0.1043930E+01  0.7957747E-01            NaN
         13   -1    0    0    0    0  0.00000000000E+00  0.00000000000E+00  0.74505805969E-08  0.10566000000E+00  0.10566000000E+00 0.  1.
     999900   -1    0    0    0    0 -0.00000000000E+00 -0.00000000000E+00 -0.74505805969E-08  0.93827000000E+00  0.93827000000E+00 0. -1.
     999902    2    1    2    0    0  0.58359994782E-02  0.22696069019E-01 -0.33893997359E-02  0.10202517722E+01  0.10199769705E+01 0.  0.
     999903    2    3    3    0    0 -0.10358361066E+00  0.54522286751E-01  0.55030532032E-01  0.13098328206E+00  0.20640168914E-01 0.  0.
         14    1    1    2    0    0 -0.58359994782E-02 -0.22696069019E-01  0.33893997359E-02  0.23678227750E-01  0.00000000000E+00 0. -1.
     999901    1    3    3    0    0  0.10941961014E+00 -0.31826217732E-01 -0.58419931768E-01  0.88926849019E+00  0.88000000000E+00 0.  1.
        -11    1    4    4    0    0 -0.68482339156E-01  0.24831818686E-01  0.32116406942E-01  0.79612654216E-01  0.51100000000E-03 0. -1.
         11    1    4    4    0    0 -0.35101271507E-01  0.29690468065E-01  0.22914125089E-01  0.51370627842E-01  0.51100000000E-03 0.  1.
</event>
<event>
 8    1  0.1088021E+005  0.1043930E+01  0.7957747E-01            NaN
         13   -1    0    0    0    0  0.00000000000E+00  0.00000000000E+00  0.74505805969E-08  0.10566000000E+00  0.10566000000E+00 0.  1.
     999900   -1    0    0    0    0 -0.00000000000E+00 -0.00000000000E+00 -0.74505805969E-08  0.93827000000E+00  0.93827000000E+00 0.  1.
     999902    2    1    2    0    0  0.19862098143E-02 -0.22997561482E-01  0.19291241683E-02  0.10207663564E+01  0.10205035032E+01 0.  0.
     999903    2    3    3    0    0 -0.45309952884E-01 -0.41731833572E-01  0.11511869860E+00  0.13205955454E+00  0.19821034621E-01 0.  0.
         14    1    1    2    0    0 -0.19862098143E-02  0.22997561482E-01 -0.19291241683E-02  0.23163643574E-01  0.00000000000E+00 0.  1.
     999901    1    3    3    0    0  0.47296162698E-01  0.18734272090E-01 -0.11318957444E+00  0.88870680189E+00  0.88000000000E+00 0.  1.
        -11    1    4    4    0    0 -0.21582981763E-01 -0.32350793020E-01  0.63207521858E-01  0.74214896425E-01  0.51100000000E-03 0.  1.
         11    1    4    4    0    0 -0.23726971120E-01 -0.93810405516E-02  0.51911176746E-01  0.57844658116E-01  0.51100000000E-03 0. -1.
</event>
<event>
 8    1  0.1088021E+005  0.1043930E+01  0.7957747E-01            NaN
         13   -1    0    0    0    0  0.00000000000E+00  0.00000000000E+00  0.74505805969E-08  0.10566000000E+00  0.10566000000E+00 0. -1.
     999900   -1    0    0    0    0 -0.00000000000E+00 -0.00000000000E+00 -0.74505805969E-08  0.93827000000E+00  0.93827000000E+00 0. -1.
     999902    2    1    2    0    0 -0.66614660053E-02  0.16555036150E-01  0.98843529271E-02  0.10235303729E+01  0.10233270638E+01 0.  0.
     999903    2    3    3    0    0 -0.35281394248E-01  0.10245086420E+00 -0.76647283841E-01  0.13466316254E+00  0.22768506067E-01 0.  0.
         14    1    1    2    0    0  0.66614660053E-02 -0.16555036150E-01 -0.98843529271E-02  0.20399627057E-01  0.00000000000E+00 0. -1.
     999901    1    3    3    0    0  0.28619928243E-01 -0.85895828055E-01  0.86531636768E-01  0.88886721040E+00  0.88000000000E+00 0.  1.
        -11    1    4    4    0    0 -0.37944104922E-01  0.86061402843E-01 -0.63619966732E-01  0.11355210894E+00  0.51100000000E-03 0.  1.
         11    1    4    4    0    0  0.26627106733E-02  0.16389461362E-01 -0.13027317109E-01  0.21111053596E-01  0.51100000000E-03 0. -1.
</event>
<event>
 8    1  0.1088021E+005  0.1043930E+01  0.7957747E-01            NaN
         13   -1    0    0    0    0  0.00000000000E+00  0.00000000000E+00  0.74505805969E-08  0.10566000000E+00  0.10566000000E+00 0.  1.
     999900   -1    0    0    0    0 -0.00000000000E+00 -0.00000000000E+00 -0.74505805969E-08  0.93827000000E+00  0.93827000000E+00 0. -1.
     999902    2    1    2    0    0 -0.15988611719E-01 -0.11885968901E-01  0.15007491218E-01  0.10189873307E+01  0.10186820128E+01 0.  0.
     999903    2    3    3    0    0 -0.66652831777E-01 -0.21813235907E-01  0.10962950934E+00  0.13241035140E+00  0.24401938383E-01 0.  0.
         14    1    1    2    0    0  0.15988611719E-01  0.11885968901E-01 -0.15007491218E-01  0.24942669346E-01  0.00000000000E+00 0. -1.
     999901    1    3    3    0    0  0.50664220059E-01  0.99272670051E-02 -0.94622018118E-01  0.88657697925E+00  0.88000000000E+00 0. -1.
        -11    1    4    4    0    0 -0.36130576906E-01 -0.18172816784E-02  0.68186234130E-01  0.77190315105E-01  0.51100000000E-03 0.  1.
         11    1    4    4    0    0 -0.30522254872E-01 -0.19995954228E-01  0.41443275207E-01  0.55220036298E-01  0.51100000000E-03 0. -1.
</event>
<event>
 8    1  0.1088021E+005  0.1043930E+01  0.7957747E-01            NaN
         13   -1    0    0    0    0  0.00000000000E+00  0.00000000000E+00  0.74505805969E-08  0.10566000000E+00  0.10566000000E+00 0.  1.
     999900   -1    0    0    0    0 -0.00000000000E+00 -0.00000000000E+00 -0.74505805969E-08  0.93827000000E+00  0.93827000000E+00 0. -1.
     999902    2    1    2    0    0 -0.88312768275E-02  0.29530569491E-01  0.50587890764E-02  0.10126948062E+01  0.10122129880E+01 0.  0.
     999903    2    3    3    0    0  0.29970429477E-01  0.76974717302E-01  0.93205519022E-01  0.12616992467E+00  0.20205132215E-01 0.  0.
         14    1    1    2    0    0  0.88312768275E-02 -0.29530569491E-01 -0.50587890764E-02  0.31235193801E-01  0.00000000000E+00 0. -1.
     999901    1    3    3    0    0 -0.38801706304E-01 -0.47444147811E-01 -0.88146729946E-01  0.88652488153E+00  0.88000000000E+00 0. -1.
        -11    1    4    4    0    0  0.26001153390E-01  0.65173958558E-01  0.88279387317E-01  0.11277063535E+00  0.51100000000E-03 0. -1.
         11    1    4    4    0    0  0.39692760865E-02  0.11800758744E-01  0.49261317051E-02  0.13399289315E-01  0.51100000000E-03 0.  1.
</event>
<event>
 8    1  0.1088021E+005  0.1043930E+01  0.7957747E-01            NaN
         13   -1    0    0    0    0  0.00000000000E+00  0.00000000000E+00  0.74505805969E-08  0.10566000000E+00  0.10566000000E+00 0. -1.
     999900   -1    0    0    0    0 -0.00000000000E+00 -0.00000000000E+00 -0.74505805969E-08  0.93827000000E+00  0.93827000000E+00 0. -1.
     999902    2    1    2    0    0  0.96159239558E-02  0.73695014649E-02 -0.19673016198E-01  0.10208258205E+01  0.10205643305E+01 0.  0.
     999903    2    3    3    0    0  0.10812071204E+00 -0.63675129401E-01 -0.36832226750E-01  0.13231866160E+00  0.20174360073E-01 0.  0.
         14    1    1    2    0    0 -0.96159239558E-02 -0.73695014649E-02  0.19673016198E-01  0.23104179528E-01  0.00000000000E+00 0. -1.
     999901    1    3    3    0    0 -0.98504788088E-01  0.71044630866E-01  0.17159210553E-01  0.88850715887E+00  0.88000000000E+00 0.  1.
        -11    1    4    4    0    0  0.45771037163E-01 -0.15740353504E-01 -0.15575310876E-01  0.50848775809E-01  0.51100000000E-03 0.  1.
         11    1    4    4    0    0  0.62349674881E-01 -0.47934775897E-01 -0.21256915874E-01  0.81469885795E-01  0.51100000000E-03 0. -1.
</event>
<event>
 8    1  0.1088021E+005  0.1043930E+01  0.7957747E-01            NaN
         13   -1    0    0    0    0  0.00000000000E+00  0.00000000000E+00  0.74505805969E-08  0.10566000000E+00  0.10566000000E+00 0. -1.
     999900   -1    0    0    0    0 -0.00000000000E+00 -0.00000000000E+00 -0.74505805969E-08  0.93827000000E+00  0.93827000000E+00 0. -1.
     999902    2    1    2    0    0  0.84967835462E-02  0.15046654768E-01 -0.15918607747E-01  0.10204353363E+01  0.10201648280E+01 0.  0.
     999903    2    3    3    0    0 -0.46446677381E-01 -0.15699342616E-02 -0.12207686118E+00  0.13219861688E+00  0.20345902235E-01 0.  0.
         14    1    1    2    0    0 -0.84967835462E-02 -0.15046654768E-01  0.15918607747E-01  0.23494663712E-01  0.00000000000E+00 0. -1.
     999901    1    3    3    0    0  0.54943460927E-01  0.16616589030E-01  0.10615825343E+00  0.88823671941E+00  0.88000000000E+00 0.  1.
        -11    1    4    4    0    0 -0.75093677233E-02 -0.83035714973E-02 -0.26133369027E-01  0.28435083979E-01  0.51100000000E-03 0. -1.
         11    1    4    4    0    0 -0.38937309658E-01  0.67336372357E-02 -0.95943492149E-01  0.10376353290E+00  0.51100000000E-03 0.  1.
</event>
<event>
 8    1  0.1088021E+005  0.1043930E+01  0.7957747E-01            NaN
         13   -1    0    0    0    0  0.00000000000E+00  0.00000000000E+00  0.74505805969E-08  0.10566000000E+00  0.10566000000E+00 0. -1.
     999900   -1    0    0    0    0 -0.00000000000E+00 -0.00000000000E+00 -0.74505805969E-08  0.93827000000E+00  0.93827000000E+00 0.  1.
     999902    2    1    2    0    0  0.20382043572E-01 -0.83592013397E-02 -0.84119467108E-02  0.10203489738E+01  0.10200764499E+01 0.  0.
     999903    2    3    3    0    0 -0.11527461014E+00 -0.11581710220E-02  0.51417221772E-01  0.12791740115E+00  0.20725677793E-01 0.  0.
         14    1    1    2    0    0 -0.20382043572E-01  0.83592013397E-02  0.84119467108E-02  0.23581026158E-01  0.00000000000E+00 0. -1.
     999901    1    3    3    0    0  0.13565665371E+00 -0.72010303177E-02 -0.59829168482E-01  0.89243157269E+00  0.88000000000E+00 0.  1.
        -11    1    4    4    0    0 -0.69564110464E-01 -0.66831547952E-02  0.39815183088E-01  0.80432207156E-01  0.51100000000E-03 0. -1.
         11    1    4    4    0    0 -0.45710499674E-01  0.55249837732E-02  0.11602038684E-01  0.47485193995E-01  0.51100000000E-03 0.  1.
</event>
<event>
 8    1  0.1088021E+005  0.1043930E+01  0.7957747E-01            NaN
         13   -1    0    0    0    0  0.00000000000E+00  0.00000000000E+00  0.74505805969E-08  0.10566000000E+00  0.10566000000E+00 0. -1.
     999900   -1    0    0    0    0 -0.00000000000E+00 -0.00000000000E+00 -0.74505805969E-08  0.93827000000E+00  0.93827000000E+00 0. -1.
     999902    2    1    2    0    0 -0.22936222928E-01  0.53712486762E-02  0.32169577379E-02  0.10201546041E+01  0.10198775156E+01 0.  0.
     999903    2    3    3    0    0 -0.80015507349E-01  0.96462684757E-01  0.40753954103E-01  0.13281886122E+00  0.16505579503E-01 0.  0.
         14    1    1    2    0    0  0.22936222928E-01 -0.53712486762E-02 -0.32169577379E-02  0.23775395930E-01  0.00000000000E+00 0.  1.
     999901    1    3    3    0    0  0.57079284420E-01 -0.91091436081E-01 -0.37536996365E-01  0.88733574285E+00  0.88000000000E+00 0. -1.
        -11    1    4    4    0    0 -0.16099318961E-01  0.23497229641E-01  0.26877007503E-02  0.28614554481E-01  0.51100000000E-03 0.  1.
         11    1    4    4    0    0 -0.63916188388E-01  0.72965455116E-01  0.38066253353E-01  0.10420430674E+00  0.51100000000E-03 0. -1.
</event>
<event>
 8    1  0.1088021E+005  0.1043930E+01  0.7957747E-01            NaN
         13   -1    0    0    0    0  0.00000000000E+00  0.00000000000E+00  0.74505805969E-08  0.10566000000E+00  0.10566000000E+00 0. -1.
     999900   -1    0    0    0    0 -0.00000000000E+00 -0.00000000000E+00 -0.74505805969E-08  0.93827000000E+00  0.93827000000E+00 0.  1.
     999902    2    1    2    0    0 -0.23390308348E-02  0.92000952177E-02  0.22063196668E-01  0.10199113101E+01  0.10196284534E+01 0.  0.
     999903    2    3    3    0    0  0.10292107618E+00 -0.38625191255E-01  0.68590416112E-01  0.13113027390E+00  0.20145724858E-01 0.  0.
         14    1    1    2    0    0  0.23390308348E-02 -0.92000952177E-02 -0.22063196668E-01  0.24018689899E-01  0.00000000000E+00 0.  1.
     999901    1    3    3    0    0 -0.10526010701E+00  0.47825286473E-01 -0.46527219445E-01  0.88878103620E+00  0.88000000000E+00 0.  1.
        -11    1    4    4    0    0  0.91005706907E-02  0.16518175254E-02  0.28384431790E-02  0.96884863995E-02  0.51100000000E-03 0. -1.
         11    1    4    4    0    0  0.93820505489E-01 -0.40277008780E-01  0.65751972933E-01  0.12144178750E+00  0.51100000000E-03 0.  1.
</event>
<event>
 8    1  0.1088021E+005  0.1043930E+01  0.7957747E-01            NaN
         13   -1    0    0    0    0  0.00000000000E+00  0.00000000000E+00  0.74505805969E-08  0.10566000000E+00  0.10566000000E+00 0. -1.
     999900   -1    0    0    0    0 -0.00000000000E+00 -0.00000000000E+00 -0.74505805969E-08  0.93827000000E+00  0.93827000000E+00 0. -1.
     999902    2    1    2    0    0 -0.17557406957E-01  0.13961109468E-01  0.57588487973E-02  0.10207709962E+01  0.10205082495E+01 0.  0.
     999903    2    3    3    0    0  0.33754897171E-01  0.43702007687E-01 -0.11465097884E+00  0.13059348574E+00  0.29335183812E-01 0.  0.
         14    1    1    2    0    0  0.17557406957E-01 -0.13961109468E-01 -0.57588487973E-02  0.23159003780E-01  0.00000000000E+00 0.  1.
     999901    1    3    3    0    0 -0.51312304128E-01 -0.29740898220E-01  0.12040982763E+00  0.89017751048E+00  0.88000000000E+00 0.  1.
        -11    1    4    4    0    0 -0.53477277298E-02  0.55512355894E-02 -0.17624858735E-01  0.19243470967E-01  0.51100000000E-03 0.  1.
         11    1    4    4    0    0  0.39102624901E-01  0.38150772098E-01 -0.97026120102E-01  0.11135001477E+00  0.51100000000E-03 0. -1.
</event>
<event>
 8    1  0.1088021E+005  0.1043930E+01  0.7957747E-01            NaN
         13   -1    0    0    0    0  0.00000000000E+00  0.00000000000E+00  0.74505805969E-08  0.10566000000E+00  0.10566000000E+00 0. -1.
     999900   -1    0    0    0    0 -0.00000000000E+00 -0.00000000000E+00 -0.74505805969E-08  0.93827000000E+00  0.93827000000E+00 0.  1.
     999902    2    1    2    0    0 -0.18709000929E-01 -0.63958259852E-03  0.15917887548E-01  0.10193573541E+01  0.10190611368E+01 0.  0.
     999903    2    3    3    0    0  0.91549486297E-01 -0.77458821134E-01  0.43236380072E-01  0.12873710426E+00  0.17963297027E-01 0.  0.
         14    1    1    2    0    0  0.18709000929E-01  0.63958259852E-03 -0.15917887548E-01  0.24572645882E-01  0.00000000000E+00 0.  1.
     999901    1    3    3    0    0 -0.11025848723E+00  0.76819238535E-01 -0.27318492524E-01  0.89062024985E+00  0.88000000000E+00 0. -1.
        -11    1    4    4    0    0  0.33773357464E-01 -0.17745974156E-01  0.12695135611E-01  0.40211775170E-01  0.51100000000E-03 0. -1.
         11    1    4    4    0    0  0.57776128833E-01 -0.59712846978E-01  0.30541244462E-01  0.88525329095E-01  0.51100000000E-03 0.  1.
</event>
<event>
 8    1  0.1088021E+005  0.1043930E+01  0.7957747E-01            NaN
         13   -1    0    0    0    0  0.00000000000E+00  0.00000000000E+00  0.74505805969E-08  0.10566000000E+00  0.10566000000E+00 0.  1.
     999900   -1    0    0    0    0 -0.00000000000E+00 -0.00000000000E+00 -0.74505805969E-08  0.93827000000E+00  0.93827000000E+00 0. -1.
     999902    2    1    2    0    0  0.22312531963E-01  0.94454341403E-02 -0.26695442931E-02  0.10195539508E+01  0.10192625112E+01 0.  0.
     999903    2    3    3    0    0  0.65679026979E-01 -0.10413856734E+00 -0.28668296926E-01  0.13081444259E+00  0.33644781897E-01 0.  0.
         14    1    1    2    0    0 -0.22312531963E-01 -0.94454341403E-02  0.26695442931E-02  0.24376049217E-01  0.00000000000E+00 0.  1.
     999901    1    3    3    0    0 -0.43366495016E-01  0.11358400148E+00  0.25998752633E-01  0.88873950819E+00  0.88000000000E+00 0. -1.
        -11    1    4    4    0    0  0.17464144468E-01 -0.13885158129E-01 -0.16527441737E-01  0.27770693359E-01  0.51100000000E-03 0.  1.
         11    1    4    4    0    0  0.48214882511E-01 -0.90253409213E-01 -0.12140855188E-01  0.10304374923E+00  0.51100000000E-03 0. -1.
</event>
<event>
 8    1  0.1088021E+005  0.1043930E+01  0.7957747E-01            NaN
         13   -1    0    0    0    0  0.00000000000E+00  0.00000000000E+00  0.74505805969E-08  0.10566000000E+00  0.10566000000E+00 0. -1.
     999900   -1    0    0    0    0 -0.00000000000E+00 -0.00000000000E+00 -0.74505805969E-08  0.93827000000E+00  0.93827000000E+00 0.  1.
     999902    2    1    2    0    0 -0.23485799533E-03  0.17503636542E-01 -0.18182845326E-01  0.10186901839E+01  0.10183774558E+01 0.  0.
     999903    2    3    3    0    0 -0.90146816934E-01  0.55567035060E-03  0.88155751169E-01  0.12757891647E+00  0.19447007216E-01 0.  0.
         14    1    1    2    0    0  0.23485799533E-03 -0.17503636542E-01  0.18182845326E-01  0.25239816058E-01  0.00000000000E+00 0. -1.
     999901    1    3    3    0    0  0.89911958938E-01  0.16947966191E-01 -0.10633859650E+00  0.89111126748E+00  0.88000000000E+00 0.  1.
        -11    1    4    4    0    0 -0.33125858979E-01 -0.63244978462E-02  0.23568018316E-01  0.41146499419E-01  0.51100000000E-03 0.  1.
         11    1    4    4    0    0 -0.57020957955E-01  0.68801681968E-02  0.64587732853E-01  0.86432417047E-01  0.51100000000E-03 0. -1.
</event>
<event>
 8    1  0.1088021E+005  0.1043930E+01  0.7957747E-01            NaN
         13   -1    0    0    0    0  0.00000000000E+00  0.00000000000E+00  0.74505805969E-08  0.10566000000E+00  0.10566000000E+00 0.  1.
     999900   -1    0    0    0    0 -0.00000000000E+00 -0.00000000000E+00 -0.74505805969E-08  0.93827000000E+00  0.93827000000E+00 0.  1.
     999902    2    1    2    0    0 -0.22438945236E-01 -0.52909126970E-02  0.55316587892E-02  0.10202213672E+01  0.10199458509E+01 0.  0.
     999903    2    3    3    0    0 -0.12195032006E-01  0.95679723108E-01 -0.84689965905E-01  0.12980576276E+00  0.19334360657E-01 0.  0.
         14    1    1    2    0    0  0.22438945236E-01  0.52909126970E-02 -0.55316587892E-02  0.23708632804E-01  0.00000000000E+00 0.  1.
     999901    1    3    3    0    0 -0.10243913230E-01 -0.10097063581E+00  0.90221624694E-01  0.89041560443E+00  0.88000000000E+00 0.  1.
        -11    1    4    4    0    0 -0.48398223910E-02  0.81532876829E-01 -0.76342044334E-01  0.11180072781E+00  0.51100000000E-03 0. -1.
         11    1    4    4    0    0 -0.73552096152E-02  0.14146846279E-01 -0.83479215712E-02  0.18005034954E-01  0.51100000000E-03 0.  1.
</event>
<event>
 8    1  0.1088021E+005  0.1043930E+01  0.7957747E-01            NaN
         13   -1    0    0    0    0  0.00000000000E+00  0.00000000000E+00  0.74505805969E-08  0.10566000000E+00  0.10566000000E+00 0.  1.
     999900   -1    0    0    0    0 -0.00000000000E+00 -0.00000000000E+00 -0.74505805969E-08  0.93827000000E+00  0.93827000000E+00 0.  1.
     999902    2    1    2    0    0 -0.10557318814E-02  0.50049031147E-02  0.22755078613E-01  0.10206071094E+01  0.10203405875E+01 0.  0.
     999903    2    3    3    0    0 -0.41590101889E-01 -0.37702824419E-01  0.11947689621E+00  0.13335173736E+00  0.18886968667E-01 0.  0.
         14    1    1    2    0    0  0.10557318814E-02 -0.50049031147E-02 -0.22755078613E-01  0.23322890637E-01  0.00000000000E+00 0. -1.
     999901    1    3    3    0    0  0.40534370007E-01  0.42707727534E-01 -0.96721817598E-01  0.88725537200E+00  0.88000000000E+00 0.  1.
        -11    1    4    4    0    0 -0.30656918230E-01 -0.15329113646E-01  0.66734666024E-01  0.75024030356E-01  0.51100000000E-03 0.  1.
         11    1    4    4    0    0 -0.10933183659E-01 -0.22373710774E-01  0.52742230186E-01  0.58327707007E-01  0.51100000000E-03 0. -1.
</event>
<event>
 8    1  0.1088021E+005  0.1043930E+01  0.7957747E-01            NaN
         13   -1    0    0    0    0  0.00000000000E+00  0.00000000000E+00  0.74505805969E-08  0.10566000000E+00  0.10566000000E+00 0. -1.
     999900   -1    0    0    0    0 -0.00000000000E+00 -0.00000000000E+00 -0.74505805969E-08  0.93827000000E+00  0.93827000000E+00 0. -1.
     999902    2    1    2    0    0 -0.48397369510E-02 -0.18890076260E-01 -0.23255050654E-01  0.10135811052E+01  0.10131266463E+01 0.  0.
     999903    2    3    3    0    0 -0.12231943360E+00  0.93192604419E-02 -0.16521994781E-01  0.12530041766E+00  0.19450601602E-01 0.  0.
         14    1    1    2    0    0  0.48397369510E-02  0.18890076260E-01  0.23255050654E-01  0.30348894803E-01  0.00000000000E+00 0. -1.
     999901    1    3    3    0    0  0.11747969665E+00 -0.28209336702E-01 -0.67330558734E-02  0.88828068753E+00  0.88000000000E+00 0. -1.
        -11    1    4    4    0    0 -0.36397620818E-01  0.89450919117E-02  0.14691534073E-02  0.37512944476E-01  0.51100000000E-03 0. -1.
         11    1    4    4    0    0 -0.85921812786E-01  0.37416853025E-03 -0.17991148188E-01  0.87787473187E-01  0.51100000000E-03 0.  1.
</event>
<event>
 8    1  0.1088021E+005  0.1043930E+01  0.7957747E-01            NaN
         13   -1    0    0    0    0  0.00000000000E+00  0.00000000000E+00  0.74505805969E-08  0.10566000000E+00  0.10566000000E+00 0. -1.
     999900   -1    0    0    0    0 -0.00000000000E+00 -0.00000000000E+00 -0.74505805969E-08  0.93827000000E+00  0.93827000000E+00 0. -1.
     999902    2    1    2    0    0 -0.17175036976E-01  0.37773421656E-02  0.16212052396E-01  0.10200117883E+01  0.10197313212E+01 0.  0.
     999903    2    3    3    0    0 -0.14713117466E-01 -0.12588895450E+00 -0.19102880371E-01  0.12980588288E+00  0.20497377927E-01 0.  0.
         14    1    1    2    0    0  0.17175036976E-01 -0.37773421656E-02 -0.16212052396E-01  0.23918211719E-01  0.00000000000E+00 0.  1.
     999901    1    3    3    0    0 -0.24619195093E-02  0.12966629666E+00  0.35314932767E-01  0.89020590540E+00  0.88000000000E+00 0. -1.
        -11    1    4    4    0    0 -0.16657578312E-01 -0.70437275370E-01 -0.50046057474E-02  0.72554750888E-01  0.51100000000E-03 0.  1.
         11    1    4    4    0    0  0.19444608454E-02 -0.55451679125E-01 -0.14098274624E-01  0.57251131990E-01  0.51100000000E-03 0. -1.
</event>
<event>
 8    1  0.1088021E+005  0.1043930E+01  0.7957747E-01            NaN
         13   -1    0    0    0    0  0.00000000000E+00  0.00000000000E+00  0.74505805969E-08  0.10566000000E+00  0.10566000000E+00 0. -1.
     999900   -1    0    0    0    0 -0.00000000000E+00 -0.00000000000E+00 -0.74505805969E-08  0.93827000000E+00  0.93827000000E+00 0. -1.
     999902    2    1    2    0    0  0.87156979376E-02  0.75689228421E-02 -0.17568417452E-01  0.10229085520E+01  0.10226925269E+01 0.  0.
     999903    2    3    3    0    0  0.12501167122E+00 -0.39324855652E-01  0.14424689769E-01  0.13344391597E+00  0.20611764148E-01 0.  0.
         14    1    1    2    0    0 -0.87156979376E-02 -0.75689228421E-02  0.17568417452E-01  0.21021447983E-01  0.00000000000E+00 0.  1.
     999901    1    3    3    0    0 -0.11629597328E+00  0.46893778495E-01 -0.31993107221E-01  0.88946463604E+00  0.88000000000E+00 0. -1.
        -11    1    4    4    0    0  0.43722122604E-01 -0.78676695747E-02 -0.30961204681E-02  0.44535057118E-01  0.51100000000E-03 0. -1.
         11    1    4    4    0    0  0.81289548618E-01 -0.31457186078E-01  0.17520810237E-01  0.88908858855E-01  0.51100000000E-03 0.  1.
</event>
<event>
 8    1  0.1088021E+005  0.1043930E+01  0.7957747E-01            NaN
         13   -1    0    0    0    0  0.00000000000E+00  0.00000000000E+00  0.74505805969E-08  0.10566000000E+00  0.10566000000E+00 0. -1.
     999900   -1    0    0    0    0 -0.00000000000E+00 -0.00000000000E+00 -0.74505805969E-08  0.93827000000E+00  0.93827000000E+00 0.  1.
     999902    2    1    2    0    0  0.98240687960E-02  0.12205487255E-01  0.18132754515E-01  0.10199657968E+01  0.10196842372E+01 0.  0.
     999903    2    3    3    0    0  0.14256058534E-01 -0.11315392480E+00  0.59450560748E-01  0.13011087280E+00  0.19683092858E-01 0.  0.
         14    1    1    2    0    0 -0.98240687960E-02 -0.12205487255E-01 -0.18132754515E-01  0.23964203161E-01  0.00000000000E+00 0.  1.
     999901    1    3    3    0    0 -0.44319897375E-02  0.12535941206E+00 -0.41317806232E-01  0.88985492404E+00  0.88000000000E+00 0.  1.
        -11    1    4    4    0    0  0.50951677214E-02 -0.97163236128E-01  0.49850930642E-01  0.10932534745E+00  0.51100000000E-03 0. -1.
         11    1    4    4    0    0  0.91608908122E-02 -0.15990688674E-01  0.95996301057E-02  0.20785525346E-01  0.51100000000E-03 0.  1.
</event>
<event>
 8    1  0.1088021E+005  0.1043930E+01  0.7957747E-01            NaN
         13   -1    0    0    0    0  0.00000000000E+00  0.00000000000E+00  0.74505805969E-08  0.10566000000E+00  0.10566000000E+00 0. -1.
     999900   -1    0    0    0    0 -0.00000000000E+00 -0.00000000000E+00 -0.74505805969E-08  0.93827000000E+00  0.93827000000E+00 0. -1.
     999902    2    1    2    0    0  0.22000820908E-01 -0.32032318787E-03  0.67074933867E-02  0.10209271916E+01  0.10206680172E+01 0.  0.
     999903    2    3    3    0    0  0.68017342551E-01 -0.11201219941E+00 -0.15184933125E-02  0.13263655089E+00  0.20421976063E-01 0.  0.
         14    1    1    2    0    0 -0.22000820908E-01  0.32032318787E-03 -0.67074933867E-02  0.23002808418E-01  0.00000000000E+00 0.  1.
     999901    1    3    3    0    0 -0.46016521643E-01  0.11169187622E+00  0.82259866992E-02  0.88829064069E+00  0.88000000000E+00 0.  1.
        -11    1    4    4    0    0  0.49154362408E-01 -0.62859607603E-01 -0.42901827390E-02  0.79913380612E-01  0.51100000000E-03 0.  1.
         11    1    4    4    0    0  0.18862980142E-01 -0.49152591808E-01  0.27716894265E-02  0.52723170282E-01  0.51100000000E-03 0. -1.
</event>
<event>
 8    1  0.1088021E+005  0.1043930E+01  0.7957747E-01            NaN
         13   -1    0    0    0    0  0.00000000000E+00  0.00000000000E+00  0.74505805969E-08  0.10566000000E+00  0.10566000000E+00 0. -1.
     999900   -1    0    0    0    0 -0.00000000000E+00 -0.00000000000E+00 -0.74505805969E-08  0.93827000000E+00  0.93827000000E+00 0. -1.
     999902    2    1    2    0    0 -0.80441588666E-02 -0.19823007174E-01 -0.96339833335E-02  0.10204678232E+01  0.10201980712E+01 0.  0.
     999903    2    3    3    0    0  0.57104927476E-01 -0.98902408369E-01  0.62082454585E-01  0.13162520349E+00  0.20695504428E-01 0.  0.
         14    1    1    2    0    0  0.80441588666E-02  0.19823007174E-01  0.96339833335E-02  0.23462176799E-01  0.00000000000E+00 0. -1.
     999901    1    3    3    0    0 -0.65149086343E-01  0.79079401196E-01 -0.71716437918E-01  0.88884261971E+00  0.88000000000E+00 0. -1.
        -11    1    4    4    0    0  0.26371240614E-01 -0.31111453969E-01  0.29684724110E-01  0.50446098620E-01  0.51100000000E-03 0. -1.
         11    1    4    4    0    0  0.30733686862E-01 -0.67790954401E-01  0.32397730475E-01  0.81179104871E-01  0.51100000000E-03 0.  1.
</event>
<event>
 8    1  0.1088021E+005  0.1043930E+01  0.7957747E-01            NaN
         13   -1    0    0    0    0  0.00000000000E+00  0.00000000000E+00  0.74505805969E-08  0.10566000000E+00  0.10566000000E+00 0. -1.
     999900   -1    0    0    0    0 -0.00000000000E+00 -0.00000000000E+00 -0.74505805969E-08  0.93827000000E+00  0.93827000000E+00 0.  1.
     999902    2    1    2    0    0 -0.23636441772E-01 -0.13652852667E-02 -0.36399814516E-02  0.10199759847E+01  0.10196946673E+01 0.  0.
     999903    2    3    3    0    0  0.18740623173E-01  0.12402402657E+00 -0.25723749614E-01  0.12980409795E+00  0.21312494620E-01 0.  0.
         14    1    1    2    0    0  0.23636441772E-01  0.13652852667E-02  0.36399814516E-02  0.23954015289E-01  0.00000000000E+00 0.  1.
     999901    1    3    3    0    0 -0.42377064945E-01 -0.12538931184E+00  0.22083768162E-01  0.89017188676E+00  0.88000000000E+00 0.  1.
        -11    1    4    4    0    0  0.22052086234E-01  0.91768499762E-01 -0.14511115450E-01  0.95491285720E-01  0.51100000000E-03 0.  1.
         11    1    4    4    0    0 -0.33114630612E-02  0.32255526811E-01 -0.11212634164E-01  0.34312812234E-01  0.51100000000E-03 0. -1.
</event>
<event>
 8    1  0.1088021E+005  0.1043930E+01  0.7957747E-01            NaN
         13   -1    0    0    0    0  0.00000000000E+00  0.00000000000E+00  0.74505805969E-08  0.10566000000E+00  0.10566000000E+00 0.  1.
     999900   -1    0    0    0    0 -0.00000000000E+00 -0.00000000000E+00 -0.74505805969E-08  0.93827000000E+00  0.93827000000E+00 0.  1.
     999902    2    1    2    0    0 -0.16627822499E-01 -0.18591646983E-02  0.16272009191E-01  0.10205907786E+01  0.10203238790E+01 0.  0.
     999903    2    3    3    0    0  0.45061475199E-01  0.11761824983E+00  0.27115635735E-01  0.13031104372E+00  0.19522325018E-01 0.  0.
         14    1    1    2    0    0  0.16627822499E-01  0.18591646983E-02 -0.16272009191E-01  0.23339221443E-01  0.00000000000E+00 0. -1.
     999901    1    3    3    0    0 -0.61689297699E-01 -0.11947741452E+00 -0.10843626544E-01  0.89027973484E+00  0.88000000000E+00 0. -1.
        -11    1    4    4    0    0  0.25986567664E-01  0.43662086264E-01  0.14978803483E-01  0.52974570793E-01  0.51100000000E-03 0. -1.
         11    1    4    4    0    0  0.19074907535E-01  0.73956163561E-01  0.12136832251E-01  0.77336472923E-01  0.51100000000E-03 0.  1.
</event>
<event>
 8    1  0.1088021E+005  0.1043930E+01  0.7957747E-01            NaN
         13   -1    0    0    0    0  0.00000000000E+00  0.00000000000E+00  0.74505805969E-08  0.10566000000E+00  0.10566000000E+00 0. -1.
     999900   -1    0    0    0    0 -0.00000000000E+00 -0.00000000000E+00 -0.74505805969E-08  0.93827000000E+00  0.93827000000E+00 0.  1.
     999902    2    1    2    0    0  0.60171747601E-02 -0.12080712235E-01  0.16734305995E-01  0.10224314652E+01  0.10222054168E+01 0.  0.
     999903    2    3    3    0    0  0.12996030676E+00 -0.18411272242E-01  0.16041545971E-01  0.13372315770E+00  0.19897121138E-01 0.  0.
         14    1    1    2    0    0 -0.60171747601E-02  0.12080712235E-01 -0.16734305995E-01  0.21498534772E-01  0.00000000000E+00 0.  1.
     999901    1    3    3    0    0 -0.12394313200E+00  0.63305600066E-02  0.69276002453E-03  0.88870830753E+00  0.88000000000E+00 0.  1.
        -11    1    4    4    0    0  0.10275958279E+00 -0.19877503226E-01  0.18793327915E-01  0.10633953773E+00  0.51100000000E-03 0.  1.
         11    1    4    4    0    0  0.27200723970E-01  0.14662309840E-02 -0.27517819442E-02  0.27383619970E-01  0.51100000000E-03 0. -1.
</event>
<event>
 8    1  0.1088021E+005  0.1043930E+01  0.7957747E-01            NaN
         13   -1    0    0    0    0  0.00000000000E+00  0.00000000000E+00  0.74505805969E-08  0.10566000000E+00  0.10566000000E+00 0. -1.
     999900   -1    0    0    0    0 -0.00000000000E+00 -0.00000000000E+00 -0.74505805969E-08  0.93827000000E+00  0.93827000000E+00 0.  1.
     999902    2    1    2    0    0 -0.11239907283E-01  0.13932970931E-01 -0.17124695297E-01  0.10191566598E+01  0.10188555240E+01 0.  0.
     999903    2    3    3    0    0  0.62999738416E-01  0.59557325612E-02 -0.11241735745E+00  0.13086850118E+00  0.22010555491E-01 0.  0.
         14    1    1    2    0    0  0.11239907283E-01 -0.13932970931E-01  0.17124695297E-01  0.24773340181E-01  0.00000000000E+00 0. -1.
     999901    1    3    3    0    0 -0.74239645699E-01  0.79772383698E-02  0.95292662153E-01  0.88828815864E+00  0.88000000000E+00 0.  1.
        -11    1    4    4    0    0  0.23118766608E-01  0.12924341956E-01 -0.42915664979E-01  0.50433435398E-01  0.51100000000E-03 0. -1.
         11    1    4    4    0    0  0.39880971808E-01 -0.69686093950E-02 -0.69501692472E-01  0.80435065778E-01  0.51100000000E-03 0.  1.
</event>
<event>
 8    1  0.1088021E+005  0.1043930E+01  0.7957747E-01            NaN
         13   -1    0    0    0    0  0.00000000000E+00  0.00000000000E+00  0.74505805969E-08  0.10566000000E+00  0.10566000000E+00 0.  1.
     999900   -1    0    0    0    0 -0.00000000000E+00 -0.00000000000E+00 -0.74505805969E-08  0.93827000000E+00  0.93827000000E+00 0. -1.
     999902    2    1    2    0    0  0.15563138000E-01  0.15288479399E-01  0.10742544051E-01  0.10196122879E+01  0.10193222585E+01 0.  0.
     999903    2    3    3    0    0 -0.60735377834E-01  0.93979011345E-01  0.65342791396E-01  0.13113333471E+00  0.20135302106E-01 0.  0.
         14    1    1    2    0    0 -0.15563138000E-01 -0.15288479399E-01 -0.10742544051E-01  0.24317712052E-01  0.00000000000E+00 0.  1.
     999901    1    3    3    0    0  0.76298515834E-01 -0.78690531946E-01 -0.54600247344E-01  0.88847895324E+00  0.88000000000E+00 0. -1.
        -11    1    4    4    0    0 -0.23821980243E-01  0.46599705202E-01  0.20643431588E-01  0.56262168963E-01  0.51100000000E-03 0. -1.
         11    1    4    4    0    0 -0.36913397591E-01  0.47379306143E-01  0.44699359807E-01  0.74871165748E-01  0.51100000000E-03 0.  1.
</event>
<event>
 8    1  0.1088021E+005  0.1043930E+01  0.7957747E-01            NaN
         13   -1    0    0    0    0  0.00000000000E+00  0.00000000000E+00  0.74505805969E-08  0.10566000000E+00  0.10566000000E+00 0.  1.
     999900   -1    0    0    0    0 -0.00000000000E+00 -0.00000000000E+00 -0.74505805969E-08  0.93827000000E+00  0.93827000000E+00 0.  1.
     999902    2    1    2    0    0  0.22530806039E-01  0.20920296833E-02  0.83864507302E-02  0.10197981463E+01  0.10195125859E+01 0.  0.
     999903    2    3    3    0    0  0.96083611770E-01 -0.76183155525E-01 -0.43489028806E-01  0.13175080224E+00  0.20761614280E-01 0.  0.
         14    1    1    2    0    0 -0.22530806039E-01 -0.20920296833E-02 -0.83864507302E-02  0.24131853737E-01  0.00000000000E+00 0.  1.
     999901    1    3    3    0    0 -0.73552805732E-01  0.78275185209E-01  0.51875479536E-01  0.88804734402E+00  0.88000000000E+00 0.  1.
        -11    1    4    4    0    0  0.88346994078E-01 -0.68614948588E-01 -0.45442243157E-01  0.12074129831E+00  0.51100000000E-03 0.  1.
         11    1    4    4    0    0  0.77366176929E-02 -0.75682069368E-02  0.19532143511E-02  0.11009503934E-01  0.51100000000E-03 0. -1.
</event>
<event>
 8    1  0.1088021E+005  0.1043930E+01  0.7957747E-01            NaN
         13   -1    0    0    0    0  0.00000000000E+00  0.00000000000E+00  0.74505805969E-08  0.10566000000E+00  0.10566000000E+00 0. -1.
     999900   -1    0    0    0    0 -0.00000000000E+00 -0.00000000000E+00 -0.74505805969E-08  0.93827000000E+00  0.93827000000E+00 0. -1.
     999902    2    1    2    0    0  0.17027589124E-01 -0.12171765860E-01 -0.10690387540E-01  0.10204273393E+01  0.10201566447E+01 0.  0.
     999903    2    3    3    0    0 -0.31617205761E-01  0.10909379909E+00 -0.59187720155E-01  0.12945952583E+00  0.18854121866E-01 0.  0.
         14    1    1    2    0    0 -0.17027589124E-01  0.12171765860E-01  0.10690387540E-01  0.23502660728E-01  0.00000000000E+00 0. -1.
     999901    1    3    3    0    0  0.48644794885E-01 -0.12126556495E+00  0.48497332615E-01  0.89096781344E+00  0.88000000000E+00 0. -1.
        -11    1    4    4    0    0 -0.17732674808E-01  0.35376111724E-01 -0.14533386516E-01  0.42159192131E-01  0.51100000000E-03 0.  1.
         11    1    4    4    0    0 -0.13884530953E-01  0.73717687369E-01 -0.44654333639E-01  0.87300333702E-01  0.51100000000E-03 0. -1.
</event>
<event>
 8    1  0.1088021E+005  0.1043930E+01  0.7957747E-01            NaN
         13   -1    0    0    0    0  0.00000000000E+00  0.00000000000E+00  0.74505805969E-08  0.10566000000E+00  0.10566000000E+00 0.  1.
     999900   -1    0    0    0    0 -0.00000000000E+00 -0.00000000000E+00 -0.74505805969E-08  0.93827000000E+00  0.93827000000E+00 0. -1.
     999902    2    1    2    0    0  0.77706747018E-02 -0.11917123985E-01  0.19429282648E-01  0.10198489233E+01  0.10195645777E+01 0.  0.
     999903    2    3    3    0    0  0.12690666780E+00 -0.27343579747E-01  0.12776555605E-01  0.13166222045E+00  0.17852905545E-01 0.  0.
         14    1    1    2    0    0 -0.77706747018E-02  0.11917123985E-01 -0.19429282648E-01  0.24081076671E-01  0.00000000000E+00 0.  1.
     999901    1    3    3    0    0 -0.11913599310E+00  0.15426455763E-01  0.66527270432E-02  0.88818670288E+00  0.88000000000E+00 0.  1.
        -11    1    4    4    0    0  0.70421876862E-01 -0.23613987374E-01  0.10403955596E-01  0.75002430318E-01  0.51100000000E-03 0. -1.
         11    1    4    4    0    0  0.56484790937E-01 -0.37295923731E-02  0.23726000088E-02  0.56659790136E-01  0.51100000000E-03 0.  1.
</event>
<event>
 8    1  0.1088021E+005  0.1043930E+01  0.7957747E-01            NaN
         13   -1    0    0    0    0  0.00000000000E+00  0.00000000000E+00  0.74505805969E-08  0.10566000000E+00  0.10566000000E+00 0.  1.
     999900   -1    0    0    0    0 -0.00000000000E+00 -0.00000000000E+00 -0.74505805969E-08  0.93827000000E+00  0.93827000000E+00 0. -1.
     999902    2    1    2    0    0 -0.20818165133E-02  0.18585076483E-01 -0.14953491061E-01  0.10199853571E+01  0.10197042624E+01 0.  0.
     999903    2    3    3    0    0  0.12753086806E+00  0.39826170917E-02 -0.17601265355E-01  0.13036763555E+00  0.20147761885E-01 0.  0.
         14    1    1    2    0    0  0.20818165133E-02 -0.18585076483E-01  0.14953491061E-01  0.23944642883E-01  0.00000000000E+00 0.  1.
     999901    1    3    3    0    0 -0.12961268457E+00  0.14602459391E-01  0.26477742933E-02  0.88961772157E+00  0.88000000000E+00 0. -1.
        -11    1    4    4    0    0  0.45918292180E-01  0.65922924447E-02 -0.14681409000E-01  0.48659559879E-01  0.51100000000E-03 0.  1.
         11    1    4    4    0    0  0.81612575880E-01 -0.26096753529E-02 -0.29198563549E-02  0.81708075668E-01  0.51100000000E-03 0. -1.
</event>
<event>
 8    1  0.1088021E+005  0.1043930E+01  0.7957747E-01            NaN
         13   -1    0    0    0    0  0.00000000000E+00  0.00000000000E+00  0.74505805969E-08  0.10566000000E+00  0.10566000000E+00 0.  1.
     999900   -1    0    0    0    0 -0.00000000000E+00 -0.00000000000E+00 -0.74505805969E-08  0.93827000000E+00  0.93827000000E+00 0. -1.
     999902    2    1    2    0    0  0.87370489537E-02  0.20332614627E-01  0.81259700352E-02  0.10203549575E+01  0.10200825734E+01 0.  0.
     999903    2    3    3    0    0 -0.88971436752E-01 -0.77003176162E-01  0.48644103554E-01  0.12869194740E+00  0.18707293214E-01 0.  0.
         14    1    1    2    0    0 -0.87370489537E-02 -0.20332614627E-01 -0.81259700352E-02  0.23575042545E-01  0.00000000000E+00 0.  1.
     999901    1    3    3    0    0  0.97708485706E-01  0.97335790789E-01 -0.40518133519E-01  0.89166301005E+00  0.88000000000E+00 0. -1.
        -11    1    4    4    0    0 -0.59153738514E-01 -0.46928388732E-01  0.21979568852E-01  0.78643505880E-01  0.51100000000E-03 0.  1.
         11    1    4    4    0    0 -0.29817698239E-01 -0.30074787430E-01  0.26664534702E-01  0.50048441525E-01  0.51100000000E-03 0. -1.
</event>
<event>
 8    1  0.1088021E+005  0.1043930E+01  0.7957747E-01            NaN
         13   -1    0    0    0    0  0.00000000000E+00  0.00000000000E+00  0.74505805969E-08  0.10566000000E+00  0.10566000000E+00 0.  1.
     999900   -1    0    0    0    0 -0.00000000000E+00 -0.00000000000E+00 -0.74505805969E-08  0.93827000000E+00  0.93827000000E+00 0. -1.
     999902    2    1    2    0    0 -0.25685708258E-02 -0.21691874096E-01  0.41638875873E-02  0.10216932530E+01  0.10214512373E+01 0.  0.
     999903    2    3    3    0    0  0.77847135953E-02  0.11317593467E+00 -0.58260650325E-01  0.12917247492E+00  0.20538523486E-01 0.  0.
         14    1    1    2    0    0  0.25685708258E-02  0.21691874096E-01 -0.41638875873E-02  0.22236747013E-01  0.00000000000E+00 0. -1.
     999901    1    3    3    0    0 -0.10353284421E-01 -0.13486780877E+00  0.62424537912E-01  0.89252077806E+00  0.88000000000E+00 0. -1.
        -11    1    4    4    0    0  0.64868529518E-02  0.74308913486E-01 -0.27193821211E-01  0.79395585002E-01  0.51100000000E-03 0. -1.
         11    1    4    4    0    0  0.12978606435E-02  0.38867021187E-01 -0.31066829114E-01  0.49776889923E-01  0.51100000000E-03 0.  1.
</event>
<event>
 8    1  0.1088021E+005  0.1043930E+01  0.7957747E-01            NaN
         13   -1    0    0    0    0  0.00000000000E+00  0.00000000000E+00  0.74505805969E-08  0.10566000000E+00  0.10566000000E+00 0.  1.
     999900   -1    0    0    0    0 -0.00000000000E+00 -0.00000000000E+00 -0.74505805969E-08  0.93827000000E+00  0.93827000000E+00 0.  1.
     999902    2    1    2    0    0  0.18060157198E-01  0.51493310314E-02  0.14573318835E-01  0.10201588723E+01  0.10198818845E+01 0.  0.
     999903    2    3    3    0    0  0.95119219384E-01  0.89157592913E-01  0.16019021094E-01  0.13280461548E+00  0.19588634069E-01 0.  0.
         14    1    1    2    0    0 -0.18060157198E-01 -0.51493310314E-02 -0.14573318835E-01  0.23771127655E-01  0.00000000000E+00 0. -1.
     999901    1    3    3    0    0 -0.77059062186E-01 -0.84008261881E-01 -0.14457022585E-02  0.88735425687E+00  0.88000000000E+00 0. -1.
        -11    1    4    4    0    0  0.46249556109E-01  0.35345349897E-01 -0.69204396007E-03  0.58215592804E-01  0.51100000000E-03 0. -1.
         11    1    4    4    0    0  0.48869663275E-01  0.53812243016E-01  0.16711065054E-01  0.74589022672E-01  0.51100000000E-03 0.  1.
</event>
<event>
 8    1  0.1088021E+005  0.1043930E+01  0.7957747E-01            NaN
         13   -1    0    0    0    0  0.00000000000E+00  0.00000000000E+00  0.74505805969E-08  0.10566000000E+00  0.10566000000E+00 0. -1.
     999900   -1    0    0    0    0 -0.00000000000E+00 -0.00000000000E+00 -0.74505805969E-08  0.93827000000E+00  0.93827000000E+00 0.  1.
     999902    2    1    2    0    0  0.48168687420E-02 -0.20367424913E-01 -0.11041403622E-01  0.10202668046E+01  0.10199923557E+01 0.  0.
     999903    2    3    3    0    0 -0.91125471696E-01  0.49214335726E-01 -0.75770559666E-01  0.12996549733E+00  0.20590054676E-01 0.  0.
         14    1    1    2    0    0 -0.48168687420E-02  0.20367424913E-01  0.11041403622E-01  0.23663195389E-01  0.00000000000E+00 0. -1.
     999901    1    3    3    0    0  0.95942340438E-01 -0.69581760639E-01  0.64729156044E-01  0.89030130728E+00  0.88000000000E+00 0. -1.
        -11    1    4    4    0    0 -0.40494184267E-01  0.10932257019E-01 -0.33770996734E-01  0.53851968807E-01  0.51100000000E-03 0.  1.
         11    1    4    4    0    0 -0.50631287429E-01  0.38282078707E-01 -0.41999562932E-01  0.76113528523E-01  0.51100000000E-03 0. -1.
</event>
<event>
 8    1  0.1088021E+005  0.1043930E+01  0.7957747E-01            NaN
         13   -1    0    0    0    0  0.00000000000E+00  0.00000000000E+00  0.74505805969E-08  0.10566000000E+00  0.10566000000E+00 0. -1.
     999900   -1    0    0    0    0 -0.00000000000E+00 -0.00000000000E+00 -0.74505805969E-08  0.93827000000E+00  0.93827000000E+00 0. -1.
     999902    2    1    2    0    0  0.16761024563E-01 -0.77925659347E-02 -0.15022165934E-01  0.10201114883E+01  0.10198333821E+01 0.  0.
     999903    2    3    3    0    0  0.23202531266E-01 -0.56207360407E-01 -0.11649663281E+00  0.13293475693E+00  0.20063881045E-01 0.  0.
         14    1    1    2    0    0 -0.16761024563E-01  0.77925659347E-02  0.15022165934E-01  0.23818511658E-01  0.00000000000E+00 0. -1.
     999901    1    3    3    0    0 -0.64415067030E-02  0.48414794472E-01  0.10147446688E+00  0.88717673141E+00  0.88000000000E+00 0.  1.
        -11    1    4    4    0    0  0.28929748484E-02 -0.10181634188E-01 -0.39977104110E-01  0.41357767738E-01  0.51100000000E-03 0. -1.
         11    1    4    4    0    0  0.20309556417E-01 -0.46025726219E-01 -0.76519528701E-01  0.91576989192E-01  0.51100000000E-03 0.  1.
</event>
<event>
 8    1  0.1088021E+005  0.1043930E+01  0.7957747E-01            NaN
         13   -1    0    0    0    0  0.00000000000E+00  0.00000000000E+00  0.74505805969E-08  0.10566000000E+00  0.10566000000E+00 0. -1.
     999900   -1    0    0    0    0 -0.00000000000E+00 -0.00000000000E+00 -0.74505805969E-08  0.93827000000E+00  0.93827000000E+00 0.  1.
     999902    2    1    2    0    0  0.22445582916E-01  0.10322968615E-01 -0.27859228998E-02  0.10190677950E+01  0.10187644681E+01 0.  0.
     999903    2    3    3    0    0  0.32572345638E-01  0.11386168549E+00  0.52825601295E-01  0.13119648736E+00  0.19913136898E-01 0.  0.
         14    1    1    2    0    0 -0.22445582916E-01 -0.10322968615E-01  0.27859228998E-02  0.24862205048E-01  0.00000000000E+00 0. -1.
     999901    1    3    3    0    0 -0.10126762722E-01 -0.10353871688E+00 -0.55611524195E-01  0.88787130759E+00  0.88000000000E+00 0. -1.
        -11    1    4    4    0    0  0.12396956090E-01  0.72179918005E-01  0.26240051259E-01  0.77797342465E-01  0.51100000000E-03 0.  1.
         11    1    4    4    0    0  0.20175389549E-01  0.41681767485E-01  0.26585550037E-01  0.53399144898E-01  0.51100000000E-03 0. -1.
</event>
<event>
 8    1  0.1088021E+005  0.1043930E+01  0.7957747E-01            NaN
         13   -1    0    0    0    0  0.00000000000E+00  0.00000000000E+00  0.74505805969E-08  0.10566000000E+00  0.10566000000E+00 0.  1.
     999900   -1    0    0    0    0 -0.00000000000E+00 -0.00000000000E+00 -0.74505805969E-08  0.93827000000E+00  0.93827000000E+00 0. -1.
     999902    2    1    2    0    0 -0.10234823139E-01  0.72003255611E-02 -0.21783672963E-01  0.10188078046E+01  0.10184980206E+01 0.  0.
     999903    2    3    3    0    0 -0.39535662596E-01  0.87284451330E-01 -0.88322328162E-01  0.13218533760E+00  0.22146913175E-01 0.  0.
         14    1    1    2    0    0  0.10234823139E-01 -0.72003255611E-02  0.21783672963E-01  0.25122195379E-01  0.00000000000E+00 0.  1.
     999901    1    3    3    0    0  0.29300839457E-01 -0.80084125769E-01  0.66538655199E-01  0.88662246702E+00  0.88000000000E+00 0. -1.
        -11    1    4    4    0    0 -0.14073706643E-01  0.56518043189E-01 -0.48647769961E-01  0.75889558358E-01  0.51100000000E-03 0.  1.
         11    1    4    4    0    0 -0.25461955953E-01  0.30766408141E-01 -0.39674558201E-01  0.56295779241E-01  0.51100000000E-03 0. -1.
</event>
<event>
 8    1  0.1088021E+005  0.1043930E+01  0.7957747E-01            NaN
         13   -1    0    0    0    0  0.00000000000E+00  0.00000000000E+00  0.74505805969E-08  0.10566000000E+00  0.10566000000E+00 0.  1.
     999900   -1    0    0    0    0 -0.00000000000E+00 -0.00000000000E+00 -0.74505805969E-08  0.93827000000E+00  0.93827000000E+00 0. -1.
     999902    2    1    2    0    0 -0.13262801844E-01 -0.16266579358E-01  0.40179173625E-05  0.10229418240E+01  0.10227264892E+01 0.  0.
     999903    2    3    3    0    0 -0.78378901902E-01 -0.86523273917E-01 -0.64775141363E-01  0.13537636211E+00  0.22392214871E-01 0.  0.
         14    1    1    2    0    0  0.13262801844E-01  0.16266579358E-01 -0.40179173625E-05  0.20988176026E-01  0.00000000000E+00 0.  1.
     999901    1    3    3    0    0  0.65116100058E-01  0.70256694560E-01  0.64779159280E-01  0.88756546186E+00  0.88000000000E+00 0.  1.
        -11    1    4    4    0    0 -0.45892661821E-01 -0.34048207869E-01 -0.30337463601E-01  0.64699611180E-01  0.51100000000E-03 0.  1.
         11    1    4    4    0    0 -0.32486240080E-01 -0.52475066048E-01 -0.34437677762E-01  0.70676750929E-01  0.51100000000E-03 0. -1.
</event>
<event>
 8    1  0.1088021E+005  0.1043930E+01  0.7957747E-01            NaN
         13   -1    0    0    0    0  0.00000000000E+00  0.00000000000E+00  0.74505805969E-08  0.10566000000E+00  0.10566000000E+00 0. -1.
     999900   -1    0    0    0    0 -0.00000000000E+00 -0.00000000000E+00 -0.74505805969E-08  0.93827000000E+00  0.93827000000E+00 0.  1.
     999902    2    1    2    0    0 -0.15036356249E-01 -0.17326692571E-01 -0.34972549113E-02  0.10207235984E+01  0.10204597627E+01 0.  0.
     999903    2    3    3    0    0  0.90460091827E-01 -0.64835505994E-01 -0.66145212301E-01  0.13094196534E+00  0.19594339142E-01 0.  0.
         14    1    1    2    0    0  0.15036356249E-01  0.17326692571E-01  0.34972549113E-02  0.23206401630E-01  0.00000000000E+00 0. -1.
     999901    1    3    3    0    0 -0.10549644808E+00  0.47508813423E-01  0.62647957390E-01  0.88978163303E+00  0.88000000000E+00 0. -1.
        -11    1    4    4    0    0  0.31886664002E-01 -0.23038079079E-01 -0.34522226712E-01  0.52340784165E-01  0.51100000000E-03 0. -1.
         11    1    4    4    0    0  0.58573427824E-01 -0.41797426914E-01 -0.31622985589E-01  0.78601181176E-01  0.51100000000E-03 0.  1.
</event>
<event>
 8    1  0.1088021E+005  0.1043930E+01  0.7957747E-01            NaN
         13   -1    0    0    0    0  0.00000000000E+00  0.00000000000E+00  0.74505805969E-08  0.10566000000E+00  0.10566000000E+00 0. -1.
     999900   -1    0    0    0    0 -0.00000000000E+00 -0.00000000000E+00 -0.74505805969E-08  0.93827000000E+00  0.93827000000E+00 0. -1.
     999902    2    1    2    0    0  0.73336796350E-02 -0.13504176038E-01 -0.18158718435E-01  0.10201416692E+01  0.10198642755E+01 0.  0.
     999903    2    3    3    0    0  0.58287927913E-01 -0.11580893436E+00  0.15224895641E-01  0.13212305189E+00  0.20384101050E-01 0.  0.
         14    1    1    2    0    0 -0.73336796350E-02  0.13504176038E-01  0.18158718435E-01  0.23788330808E-01  0.00000000000E+00 0.  1.
     999901    1    3    3    0    0 -0.50954248278E-01  0.10230475832E+00 -0.33383614075E-01  0.88801861731E+00  0.88000000000E+00 0.  1.
        -11    1    4    4    0    0  0.30041793731E-01 -0.52846389854E-01 -0.26062789950E-02  0.60846561960E-01  0.51100000000E-03 0.  1.
         11    1    4    4    0    0  0.28246134182E-01 -0.62962544501E-01  0.17831174636E-01  0.71276489926E-01  0.51100000000E-03 0. -1.
</event>
<event>
 8    1  0.1088021E+005  0.1043930E+01  0.7957747E-01            NaN
         13   -1    0    0    0    0  0.00000000000E+00  0.00000000000E+00  0.74505805969E-08  0.10566000000E+00  0.10566000000E+00 0.  1.
     999900   -1    0    0    0    0 -0.00000000000E+00 -0.00000000000E+00 -0.74505805969E-08  0.93827000000E+00  0.93827000000E+00 0. -1.
     999902    2    1    2    0    0 -0.16372506350E-01  0.17907811460E-02  0.15198856916E-01  0.10215185941E+01  0.10212727192E+01 0.  0.
     999903    2    3    3    0    0  0.10545788030E+00 -0.72783076987E-01  0.16826048923E-02  0.12989838771E+00  0.21260742208E-01 0.  0.
         14    1    1    2    0    0  0.16372506350E-01 -0.17907811460E-02 -0.15198856916E-01  0.22411405865E-01  0.00000000000E+00 0.  1.
     999901    1    3    3    0    0 -0.12183038665E+00  0.74573858133E-01  0.13516252023E-01  0.89162020642E+00  0.88000000000E+00 0. -1.
        -11    1    4    4    0    0  0.38468883857E-01 -0.15805064435E-01 -0.39121782868E-02  0.41775846454E-01  0.51100000000E-03 0.  1.
         11    1    4    4    0    0  0.66988996440E-01 -0.56978012552E-01  0.55947831791E-02  0.88122541261E-01  0.51100000000E-03 0. -1.
</event>
<event>
 8    1  0.1088021E+005  0.1043930E+01  0.7957747E-01            NaN
         13   -1    0    0    0    0  0.00000000000E+00  0.00000000000E+00  0.74505805969E-08  0.10566000000E+00  0.10566000000E+00 0. -1.
     999900   -1    0    0    0    0 -0.00000000000E+00 -0.00000000000E+00 -0.74505805969E-08  0.93827000000E+00  0.93827000000E+00 0. -1.
     999902    2    1    2    0    0  0.14645473026E-01 -0.73853104938E-02  0.16191547463E-01  0.10208822474E+01  0.10206220476E+01 0.  0.
     999903    2    3    3    0    0 -0.39565213880E-01 -0.10438059121E+00 -0.64337118096E-01  0.13024666027E+00  0.19084385700E-01 0.  0.
         14    1    1    2    0    0 -0.14645473026E-01  0.73853104938E-02 -0.16191547463E-01  0.23047752613E-01  0.00000000000E+00 0. -1.
     999901    1    3    3    0    0  0.54210686905E-01  0.96995280714E-01  0.80528665559E-01  0.89063558711E+00  0.88000000000E+00 0.  1.
        -11    1    4    4    0    0 -0.18568644236E-01 -0.59312902365E-01 -0.45703217845E-01  0.77148299904E-01  0.51100000000E-03 0. -1.
         11    1    4    4    0    0 -0.20996569644E-01 -0.45067688843E-01 -0.18633900250E-01  0.53098360370E-01  0.51100000000E-03 0.  1.
</event>
<event>
 8    1  0.1088021E+005  0.1043930E+01  0.7957747E-01            NaN
         13   -1    0    0    0    0  0.00000000000E+00  0.00000000000E+00  0.74505805969E-08  0.10566000000E+00  0.10566000000E+00 0.  1.
     999900   -1    0    0    0    0 -0.00000000000E+00 -0.00000000000E+00 -0.74505805969E-08  0.93827000000E+00  0.93827000000E+00 0. -1.
     999902    2    1    2    0    0 -0.15659292232E-02  0.18902882700E-01 -0.11436177787E-01  0.10217814725E+01  0.10215413943E+01 0.  0.
     999903    2    3    3    0    0  0.85657546599E-01 -0.29108904802E-01  0.91556840144E-01  0.13019825808E+00  0.19605810380E-01 0.  0.
         14    1    1    2    0    0  0.15659292232E-02 -0.18902882700E-01  0.11436177787E-01  0.22148527515E-01  0.00000000000E+00 0.  1.
     999901    1    3    3    0    0 -0.87223475823E-01  0.48011787502E-01 -0.10299301793E+00  0.89158321441E+00  0.88000000000E+00 0. -1.
        -11    1    4    4    0    0  0.51404732556E-01 -0.12261504437E-01  0.64604533322E-01  0.83467346112E-01  0.51100000000E-03 0.  1.
         11    1    4    4    0    0  0.34252814043E-01 -0.16847400365E-01  0.26952306822E-01  0.46730911964E-01  0.51100000000E-03 0. -1.
</event>
<event>
 8    1  0.1088021E+005  0.1043930E+01  0.7957747E-01            NaN
         13   -1    0    0    0    0  0.00000000000E+00  0.00000000000E+00  0.74505805969E-08  0.10566000000E+00  0.10566000000E+00 0. -1.
     999900   -1    0    0    0    0 -0.00000000000E+00 -0.00000000000E+00 -0.74505805969E-08  0.93827000000E+00  0.93827000000E+00 0.  1.
     999902    2    1    2    0    0  0.45543595072E-02  0.25151431956E-01 -0.44213631284E-02  0.10179899697E+01  0.10176594191E+01 0.  0.
     999903    2    3    3    0    0  0.12191885935E+00  0.39684685381E-01 -0.76579013779E-02  0.13007324137E+00  0.20526133299E-01 0.  0.
         14    1    1    2    0    0 -0.45543595072E-02 -0.25151431956E-01  0.44213631284E-02  0.25940030298E-01  0.00000000000E+00 0. -1.
     999901    1    3    3    0    0 -0.11736449984E+00 -0.14533253425E-01  0.32365382495E-02  0.88791672834E+00  0.88000000000E+00 0.  1.
        -11    1    4    4    0    0  0.17838874111E-01  0.13856600717E-01 -0.57061740668E-03  0.22601272933E-01  0.51100000000E-03 0. -1.
         11    1    4    4    0    0  0.10407998524E+00  0.25828084664E-01 -0.70872839713E-02  0.10747196843E+00  0.51100000000E-03 0.  1.
</event>
<event>
 8    1  0.1088021E+005  0.1043930E+01  0.7957747E-01            NaN
         13   -1    0    0    0    0  0.00000000000E+00  0.00000000000E+00  0.74505805969E-08  0.10566000000E+00  0.10566000000E+00 0.  1.
     999900   -1    0    0    0    0 -0.00000000000E+00 -0.00000000000E+00 -0.74505805969E-08  0.93827000000E+00  0.93827000000E+00 0.  1.
     999902    2    1    2    0    0 -0.88977821039E-02  0.11664720908E-01  0.17606042915E-01  0.10210125615E+01  0.10207553290E+01 0.  0.
     999903    2    3    3    0    0  0.49208531693E-01  0.11794235871E+00  0.29479692839E-01  0.13263636666E+00  0.19785699385E-01 0.  0.
         14    1    1    2    0    0  0.88977821039E-02 -0.11664720908E-01 -0.17606042915E-01  0.22917438500E-01  0.00000000000E+00 0. -1.
     999901    1    3    3    0    0 -0.58106313797E-01 -0.10627763780E+00 -0.11873649924E-01  0.88837619484E+00  0.88000000000E+00 0.  1.
        -11    1    4    4    0    0  0.18494596990E-01  0.46139937300E-01  0.21401462581E-01  0.54122339690E-01  0.51100000000E-03 0. -1.
         11    1    4    4    0    0  0.30713934702E-01  0.71802421413E-01  0.80782302588E-02  0.78514026968E-01  0.51100000000E-03 0.  1.
</event>
<event>
 8    1  0.1088021E+005  0.1043930E+01  0.7957747E-01            NaN
         13   -1    0    0    0    0  0.00000000000E+00  0.00000000000E+00  0.74505805969E-08  0.10566000000E+00  0.10566000000E+00 0. -1.
     999900   -1    0    0    0    0 -0.00000000000E+00 -0.00000000000E+00 -0.74505805969E-08  0.93827000000E+00  0.93827000000E+00 0.  1.
     999902    2    1    2    0    0  0.53625907535E-03 -0.12702980915E-01 -0.20940599987E-01  0.10194317955E+01  0.10191373919E+01 0.  0.
     999903    2    3    3    0    0  0.71889055497E-01  0.34240891569E-01 -0.10263740886E+00  0.13153015828E+00  0.20622072775E-01 0.  0.
         14    1    1    2    0    0 -0.53625907535E-03  0.12702980915E-01  0.20940599987E-01  0.24498204541E-01  0.00000000000E+00 0. -1.
     999901    1    3    3    0    0 -0.71352796422E-01 -0.46943872484E-01  0.81696808869E-01  0.88790163718E+00  0.88000000000E+00 0. -1.
        -11    1    4    4    0    0  0.53474830924E-01  0.15653498076E-01 -0.75439003925E-01  0.93786427475E-01  0.51100000000E-03 0.  1.
         11    1    4    4    0    0  0.18414224573E-01  0.18587393493E-01 -0.27198404931E-01  0.37743730808E-01  0.51100000000E-03 0. -1.
</event>
<event>
 8    1  0.1088021E+005  0.1043930E+01  0.7957747E-01            NaN
         13   -1    0    0    0    0  0.00000000000E+00  0.00000000000E+00  0.74505805969E-08  0.10566000000E+00  0.10566000000E+00 0.  1.
     999900   -1    0    0    0    0 -0.00000000000E+00 -0.00000000000E+00 -0.74505805969E-08  0.93827000000E+00  0.93827000000E+00 0.  1.
     999902    2    1    2    0    0  0.14637349414E-01  0.17329195149E-01 -0.54406631860E-02  0.10206028952E+01  0.10203362759E+01 0.  0.
     999903    2    3    3    0    0 -0.81494155646E-02  0.86484674935E-01  0.97116075475E-01  0.13165992645E+00  0.18888942406E-01 0.  0.
         14    1    1    2    0    0 -0.14637349414E-01 -0.17329195149E-01  0.54406631860E-02  0.23327104799E-01  0.00000000000E+00 0. -1.
     999901    1    3    3    0    0  0.22786764978E-01 -0.69155479786E-01 -0.10255673866E+00  0.88894296875E+00  0.88000000000E+00 0.  1.
        -11    1    4    4    0    0  0.38080963506E-02  0.55846602093E-01  0.62711255160E-01  0.84061330039E-01  0.51100000000E-03 0. -1.
         11    1    4    4    0    0 -0.11957511915E-01  0.30638072842E-01  0.34404820315E-01  0.47598596414E-01  0.51100000000E-03 0.  1.
</event>
<event>
 8    1  0.1088021E+005  0.1043930E+01  0.7957747E-01            NaN
         13   -1    0    0    0    0  0.00000000000E+00  0.00000000000E+00  0.74505805969E-08  0.10566000000E+00  0.10566000000E+00 0. -1.
     999900   -1    0    0    0    0 -0.00000000000E+00 -0.00000000000E+00 -0.74505805969E-08  0.93827000000E+00  0.93827000000E+00 0.  1.
     999902    2    1    2    0    0  0.18253803985E-01  0.10310039774E-01 -0.99013280473E-02  0.10207452081E+01  0.10204818691E+01 0.  0.
     999903    2    3    3    0    0  0.12153483129E+00  0.50037695333E-01  0.13014303222E-01  0.13351897796E+00  0.19582114719E-01 0.  0.
         14    1    1    2    0    0 -0.18253803985E-01 -0.10310039774E-01  0.99013280473E-02  0.23184791937E-01  0.00000000000E+00 0.  1.
     999901    1    3    3    0    0 -0.10328102731E+00 -0.39727655559E-01 -0.22915631269E-01  0.88722623010E+00  0.88000000000E+00 0. -1.
        -11    1    4    4    0    0  0.43311380320E-01  0.25996261205E-01 -0.81066140829E-03  0.50523257563E-01  0.51100000000E-03 0. -1.
         11    1    4    4    0    0  0.78223450972E-01  0.24041434128E-01  0.13824964630E-01  0.82995720401E-01  0.51100000000E-03 0.  1.
</event>
<event>
 8    1  0.1088021E+005  0.1043930E+01  0.7957747E-01            NaN
         13   -1    0    0    0    0  0.00000000000E+00  0.00000000000E+00  0.74505805969E-08  0.10566000000E+00  0.10566000000E+00 0. -1.
     999900   -1    0    0    0    0 -0.00000000000E+00 -0.00000000000E+00 -0.74505805969E-08  0.93827000000E+00  0.93827000000E+00 0.  1.
     999902    2    1    2    0    0  0.11420272733E-01  0.20580540186E-01 -0.10810332235E-01  0.10180293331E+01  0.10176997978E+01 0.  0.
     999903    2    3    3    0    0  0.92906844770E-01 -0.63594532787E-01 -0.59815142376E-01  0.12891349375E+00  0.19102125765E-01 0.  0.
         14    1    1    2    0    0 -0.11420272733E-01 -0.20580540186E-01  0.10810332235E-01  0.25900666916E-01  0.00000000000E+00 0. -1.
     999901    1    3    3    0    0 -0.81486572036E-01  0.84175072973E-01  0.49004810141E-01  0.88911583933E+00  0.88000000000E+00 0. -1.
        -11    1    4    4    0    0  0.63265349265E-01 -0.33811976117E-01 -0.43107563269E-01  0.83691560378E-01  0.51100000000E-03 0. -1.
         11    1    4    4    0    0  0.29641495505E-01 -0.29782556670E-01 -0.16707579107E-01  0.45221933375E-01  0.51100000000E-03 0.  1.
</event>
<event>
 8    1  0.1088021E+005  0.1043930E+01  0.7957747E-01            NaN
         13   -1    0    0    0    0  0.00000000000E+00  0.00000000000E+00  0.74505805969E-08  0.10566000000E+00  0.10566000000E+00 0.  1.
     999900   -1    0    0    0    0 -0.00000000000E+00 -0.00000000000E+00 -0.74505805969E-08  0.93827000000E+00  0.93827000000E+00 0. -1.
     999902    2    1    2    0    0 -0.20437707410E-01  0.10768864961E-01 -0.50531724197E-02  0.10202825289E+01  0.10200084490E+01 0.  0.
     999903    2    3    3    0    0 -0.10004197332E+00  0.77641204142E-01 -0.37489314155E-01  0.13356901702E+00  0.19966988414E-01 0.  0.
         14    1    1    2    0    0  0.20437707410E-01 -0.10768864961E-01  0.50531724197E-02  0.23647471075E-01  0.00000000000E+00 0. -1.
     999901    1    3    3    0    0  0.79604265911E-01 -0.66872339181E-01  0.32436141735E-01  0.88671351190E+00  0.88000000000E+00 0. -1.
        -11    1    4    4    0    0 -0.88098995790E-01  0.66861308549E-01 -0.25506885306E-01  0.11350211434E+00  0.51100000000E-03 0.  1.
         11    1    4    4    0    0 -0.11942977530E-01  0.10779895593E-01 -0.11982428848E-01  0.20066902685E-01  0.51100000000E-03 0. -1.
</event>
<event>
 8    1  0.1088021E+005  0.1043930E+01  0.7957747E-01            NaN
         13   -1    0    0    0    0  0.00000000000E+00  0.00000000000E+00  0.74505805969E-08  0.10566000000E+00  0.10566000000E+00 0. -1.
     999900   -1    0    0    0    0 -0.00000000000E+00 -0.00000000000E+00 -0.74505805969E-08  0.93827000000E+00  0.93827000000E+00 0. -1.
     999902    2    1    2    0    0 -0.38090811632E-03  0.46716094309E-02 -0.25165254774E-01  0.10183319713E+01  0.10180101889E+01 0.  0.
     999903    2    3    3    0    0  0.10661882746E+00 -0.23023710303E-01  0.62163631471E-01  0.12712923986E+00  0.19996523304E-01 0.  0.
         14    1    1    2    0    0  0.38090811632E-03 -0.46716094309E-02  0.25165254774E-01  0.25598028703E-01  0.00000000000E+00 0. -1.
     999901    1    3    3    0    0 -0.10699973558E+00  0.27695319734E-01 -0.87328886245E-01  0.89120273144E+00  0.88000000000E+00 0. -1.
        -11    1    4    4    0    0  0.72087346543E-01 -0.24648365245E-01  0.45629152797E-01  0.88805451110E-01  0.51100000000E-03 0. -1.
         11    1    4    4    0    0  0.34531480918E-01  0.16246549426E-02  0.16534478675E-01  0.38323788749E-01  0.51100000000E-03 0.  1.
</event>
<event>
 8    1  0.1088021E+005  0.1043930E+01  0.7957747E-01            NaN
         13   -1    0    0    0    0  0.00000000000E+00  0.00000000000E+00  0.74505805969E-08  0.10566000000E+00  0.10566000000E+00 0.  1.
     999900   -1    0    0    0    0 -0.00000000000E+00 -0.00000000000E+00 -0.74505805969E-08  0.93827000000E+00  0.93827000000E+00 0. -1.
     999902    2    1    2    0    0  0.54147910654E-02 -0.14227900303E-01 -0.18346113018E-01  0.10200902648E+01  0.10198116569E+01 0.  0.
     999903    2    3    3    0    0 -0.49063738536E-02 -0.13077505620E+00 -0.13299930637E-02  0.13218299811E+00  0.18557701332E-01 0.  0.
         14    1    1    2    0    0 -0.54147910654E-02  0.14227900303E-01  0.18346113018E-01  0.23839735153E-01  0.00000000000E+00 0.  1.
     999901    1    3    3    0    0  0.10321164919E-01  0.11654715589E+00 -0.17016119954E-01  0.88790726674E+00  0.88000000000E+00 0.  1.
        -11    1    4    4    0    0 -0.32720104639E-02 -0.86778513606E-01  0.78858878690E-02  0.87198995548E-01  0.51100000000E-03 0.  1.
         11    1    4    4    0    0 -0.16343633898E-02 -0.43996542592E-01 -0.92158809327E-02  0.44984002558E-01  0.51100000000E-03 0. -1.
</event>
<event>
 8    1  0.1088021E+005  0.1043930E+01  0.7957747E-01            NaN
         13   -1    0    0    0    0  0.00000000000E+00  0.00000000000E+00  0.74505805969E-08  0.10566000000E+00  0.10566000000E+00 0.  1.
     999900   -1    0    0    0    0 -0.00000000000E+00 -0.00000000000E+00 -0.74505805969E-08  0.93827000000E+00  0.93827000000E+00 0. -1.
     999902    2    1    2    0    0 -0.79854795346E-02  0.21931626201E-01 -0.26936485719E-02  0.10204348972E+01  0.10201643787E+01 0.  0.
     999903    2    3    3    0    0 -0.11966439064E-01 -0.12557089288E+00  0.92773145079E-02  0.12806941991E+00  0.20111264227E-01 0.  0.
         14    1    1    2    0    0  0.79854795346E-02 -0.21931626201E-01  0.26936485719E-02  0.23495102763E-01  0.00000000000E+00 0. -1.
     999901    1    3    3    0    0  0.39809595293E-02  0.14750251908E+00 -0.11970963080E-01  0.89236547733E+00  0.88000000000E+00 0.  1.
        -11    1    4    4    0    0 -0.95735985751E-02 -0.12467058553E+00  0.97558807799E-02  0.12541868688E+00  0.51100000000E-03 0.  1.
         11    1    4    4    0    0 -0.23928404888E-02 -0.90030734291E-03 -0.47856627194E-03  0.26507330294E-02  0.51100000000E-03 0. -1.
</event>
<event>
 8    1  0.1088021E+005  0.1043930E+01  0.7957747E-01            NaN
         13   -1    0    0    0    0  0.00000000000E+00  0.00000000000E+00  0.74505805969E-08  0.10566000000E+00  0.10566000000E+00 0. -1.
     999900   -1    0    0    0    0 -0.00000000000E+00 -0.00000000000E+00 -0.74505805969E-08  0.93827000000E+00  0.93827000000E+00 0.  1.
     999902    2    1    2    0    0 -0.15669389420E-01  0.17518217974E-01  0.39587670674E-02  0.10200953705E+01  0.10198168833E+01 0.  0.
     999903    2    3    3    0    0 -0.57932022912E-01 -0.11298604434E+00 -0.13243703888E-01  0.12930166955E+00  0.20531940065E-01 0.  0.
         14    1    1    2    0    0  0.15669389420E-01 -0.17518217974E-01 -0.39587670674E-02  0.23834629480E-01  0.00000000000E+00 0. -1.
     999901    1    3    3    0    0  0.42262633492E-01  0.13050426231E+00  0.17202470955E-01  0.89079370096E+00  0.88000000000E+00 0. -1.
        -11    1    4    4    0    0 -0.23558133342E-01 -0.54987350137E-01 -0.15651473209E-01  0.61837076711E-01  0.51100000000E-03 0.  1.
         11    1    4    4    0    0 -0.34373889570E-01 -0.57998694203E-01  0.24077693215E-02  0.67464592843E-01  0.51100000000E-03 0. -1.
</event>
<event>
 8    1  0.1247022E+005  0.1043930E+01  0.7957747E-01            NaN
         13   -1    0    0    0    0  0.00000000000E+00  0.00000000000E+00  0.74505805969E-08  0.10566000000E+00  0.10566000000E+00 0.  1.
     999900   -1    0    0    0    0 -0.00000000000E+00 -0.00000000000E+00 -0.74505805969E-08  0.93827000000E+00  0.93827000000E+00 0. -1.
     999902    2    1    2    0    0  0.14487738923E-01  0.18844453091E-01  0.72750027022E-02  0.10190717286E+01  0.10187684989E+01 0.  0.
     999903    2    3    3    0    0 -0.52940865281E-01  0.85776533274E-01 -0.78496362295E-01  0.12981178515E+00  0.23001560648E-01 0.  0.
         14    1    1    2    0    0 -0.14487738923E-01 -0.18844453091E-01 -0.72750027022E-02  0.24858271374E-01  0.00000000000E+00 0. -1.
     999901    1    3    3    0    0  0.67428604204E-01 -0.66932080184E-01  0.85771364998E-01  0.88925994348E+00  0.88000000000E+00 0.  1.
        -11    1    4    4    0    0 -0.37488980693E-01  0.39458140678E-01 -0.44609444039E-01  0.70374939841E-01  0.51100000000E-03 0.  1.
         11    1    4    4    0    0 -0.15451884588E-01  0.46318392596E-01 -0.33886918257E-01  0.59436845306E-01  0.51100000000E-03 0. -1.
</event>
<event>
 8    1  0.1088021E+005  0.1043930E+01  0.7957747E-01            NaN
         13   -1    0    0    0    0  0.00000000000E+00  0.00000000000E+00  0.74505805969E-08  0.10566000000E+00  0.10566000000E+00 0. -1.
     999900   -1    0    0    0    0 -0.00000000000E+00 -0.00000000000E+00 -0.74505805969E-08  0.93827000000E+00  0.93827000000E+00 0.  1.
     999902    2    1    2    0    0 -0.99981855844E-02 -0.20870548471E-01 -0.19359923377E-04  0.10207881789E+01  0.10205258264E+01 0.  0.
     999903    2    3    3    0    0 -0.88719977766E-01  0.22277506424E-01  0.92271283898E-01  0.13141961744E+00  0.19738395767E-01 0.  0.
         14    1    1    2    0    0  0.99981855844E-02  0.20870548471E-01  0.19359923377E-04  0.23141821088E-01  0.00000000000E+00 0.  1.
     999901    1    3    3    0    0  0.78721792181E-01 -0.43148054895E-01 -0.92290643821E-01  0.88936856148E+00  0.88000000000E+00 0.  1.
        -11    1    4    4    0    0 -0.21797522052E-01  0.12511704284E-01  0.33042846293E-01  0.41518255308E-01  0.51100000000E-03 0.  1.
         11    1    4    4    0    0 -0.66922455714E-01  0.97658021407E-02  0.59228437605E-01  0.89901362127E-01  0.51100000000E-03 0. -1.
</event>
<event>
 8    1  0.1129897E+005  0.1043930E+01  0.7957747E-01            NaN
         13   -1    0    0    0    0  0.00000000000E+00  0.00000000000E+00  0.74505805969E-08  0.10566000000E+00  0.10566000000E+00 0.  1.
     999900   -1    0    0    0    0 -0.00000000000E+00 -0.00000000000E+00 -0.74505805969E-08  0.93827000000E+00  0.93827000000E+00 0. -1.
     999902    2    1    2    0    0  0.23554607211E-02 -0.62352522824E-02  0.22324033283E-01  0.10206321669E+01  0.10203662240E+01 0.  0.
     999903    2    3    3    0    0  0.15015749914E-01 -0.99624294226E-01 -0.79489974019E-01  0.12976299121E+00  0.19217314367E-01 0.  0.
         14    1    1    2    0    0 -0.23554607211E-02  0.62352522824E-02 -0.22324033283E-01  0.23297833124E-01  0.00000000000E+00 0. -1.
     999901    1    3    3    0    0 -0.12660289193E-01  0.93389041944E-01  0.10181400730E+00  0.89086917567E+00  0.88000000000E+00 0.  1.
        -11    1    4    4    0    0  0.13239059352E-01 -0.33501067063E-01 -0.33527800610E-01  0.49213501416E-01  0.51100000000E-03 0.  1.
         11    1    4    4    0    0  0.17766905621E-02 -0.66123227163E-01 -0.45962173409E-01  0.80549489789E-01  0.51100000000E-03 0. -1.
</event>
<event>
 8    1  0.1088021E+005  0.1043930E+01  0.7957747E-01            NaN
         13   -1    0    0    0    0  0.00000000000E+00  0.00000000000E+00  0.74505805969E-08  0.10566000000E+00  0.10566000000E+00 0.  1.
     999900   -1    0    0    0    0 -0.00000000000E+00 -0.00000000000E+00 -0.74505805969E-08  0.93827000000E+00  0.93827000000E+00 0. -1.
     999902    2    1    2    0    0 -0.60852625102E-02 -0.23466795586E-01 -0.56487353968E-03  0.10196804640E+01  0.10193920780E+01 0.  0.
     999903    2    3    3    0    0  0.73382554457E-01 -0.95640380609E-01 -0.49570220776E-01  0.13180339796E+00  0.19566482185E-01 0.  0.
         14    1    1    2    0    0  0.60852625102E-02  0.23466795586E-01  0.56487353968E-03  0.24249536017E-01  0.00000000000E+00 0.  1.
     999901    1    3    3    0    0 -0.79467816967E-01  0.72173585022E-01  0.49005347236E-01  0.88787706602E+00  0.88000000000E+00 0.  1.
        -11    1    4    4    0    0  0.34408802933E-01 -0.29372801261E-01 -0.17951868510E-01  0.48675023135E-01  0.51100000000E-03 0.  1.
         11    1    4    4    0    0  0.38973751524E-01 -0.66267579347E-01 -0.31618352266E-01  0.83128374827E-01  0.51100000000E-03 0. -1.
</event>
<event>
 8    1  0.1088021E+005  0.1043930E+01  0.7957747E-01            NaN
         13   -1    0    0    0    0  0.00000000000E+00  0.00000000000E+00  0.74505805969E-08  0.10566000000E+00  0.10566000000E+00 0. -1.
     999900   -1    0    0    0    0 -0.00000000000E+00 -0.00000000000E+00 -0.74505805969E-08  0.93827000000E+00  0.93827000000E+00 0. -1.
     999902    2    1    2    0    0  0.17480300857E-01 -0.97615048487E-03  0.16380654987E-01  0.10199541862E+01  0.10196723505E+01 0.  0.
     999903    2    3    3    0    0  0.88340010315E-01  0.95083179639E-01  0.12503802008E-01  0.13188688962E+00  0.19825188940E-01 0.  0.
         14    1    1    2    0    0 -0.17480300857E-01  0.97615048487E-03 -0.16380654987E-01  0.23975813764E-01  0.00000000000E+00 0.  1.
     999901    1    3    3    0    0 -0.70859709458E-01 -0.96059330124E-01  0.38768529798E-02  0.88806729662E+00  0.88000000000E+00 0.  1.
        -11    1    4    4    0    0  0.58344329663E-02  0.12904990228E-01 -0.27673305806E-02  0.14439481305E-01  0.51100000000E-03 0.  1.
         11    1    4    4    0    0  0.82505577349E-01  0.82178189411E-01  0.15271132588E-01  0.11744740832E+00  0.51100000000E-03 0. -1.
</event>
<event>
 8    1  0.1088021E+005  0.1043930E+01  0.7957747E-01            NaN
         13   -1    0    0    0    0  0.00000000000E+00  0.00000000000E+00  0.74505805969E-08  0.10566000000E+00  0.10566000000E+00 0.  1.
     999900   -1    0    0    0    0 -0.00000000000E+00 -0.00000000000E+00 -0.74505805969E-08  0.93827000000E+00  0.93827000000E+00 0. -1.
     999902    2    1    2    0    0  0.84335629347E-02 -0.15022484378E-01 -0.14128012678E-01  0.10216499470E+01  0.10214069774E+01 0.  0.
     999903    2    3    3    0    0 -0.11662857139E-01  0.68492283645E-01  0.10702155058E+00  0.12920622367E+00  0.20332751721E-01 0.  0.
         14    1    1    2    0    0 -0.84335629347E-02  0.15022484378E-01  0.14128012678E-01  0.22280053027E-01  0.00000000000E+00 0.  1.
     999901    1    3    3    0    0  0.20096420073E-01 -0.83514768022E-01 -0.12114956326E+00  0.89244372330E+00  0.88000000000E+00 0. -1.
        -11    1    4    4    0    0 -0.12431347041E-01  0.27679437183E-01  0.34203186328E-01  0.45725361760E-01  0.51100000000E-03 0. -1.
         11    1    4    4    0    0  0.76848990192E-03  0.40812846461E-01  0.72818364250E-01  0.83480861915E-01  0.51100000000E-03 0.  1.
</event>
<event>
 8    1  0.1088021E+005  0.1043930E+01  0.7957747E-01            NaN
         13   -1    0    0    0    0  0.00000000000E+00  0.00000000000E+00  0.74505805969E-08  0.10566000000E+00  0.10566000000E+00 0. -1.
     999900   -1    0    0    0    0 -0.00000000000E+00 -0.00000000000E+00 -0.74505805969E-08  0.93827000000E+00  0.93827000000E+00 0. -1.
     999902    2    1    2    0    0 -0.16248873860E-01 -0.78606975250E-02  0.15749875996E-01  0.10199743105E+01  0.10196929533E+01 0.  0.
     999903    2    3    3    0    0  0.10760715991E+00 -0.57423443017E-01 -0.33536133152E-01  0.12855639863E+00  0.22919919932E-01 0.  0.
         14    1    1    2    0    0  0.16248873860E-01  0.78606975250E-02 -0.15749875996E-01  0.23955689536E-01  0.00000000000E+00 0.  1.
     999901    1    3    3    0    0 -0.12385603377E+00  0.49562745492E-01  0.49286009148E-01  0.89141791183E+00  0.88000000000E+00 0.  1.
        -11    1    4    4    0    0  0.83594105471E-02  0.93587229410E-03 -0.54787307069E-02  0.10051527884E-01  0.51100000000E-03 0.  1.
         11    1    4    4    0    0  0.99247749363E-01 -0.58359315311E-01 -0.28057402445E-01  0.11850487074E+00  0.51100000000E-03 0. -1.
</event>
<event>
 8    1  0.1088021E+005  0.1043930E+01  0.7957747E-01            NaN
         13   -1    0    0    0    0  0.00000000000E+00  0.00000000000E+00  0.74505805969E-08  0.10566000000E+00  0.10566000000E+00 0. -1.
     999900   -1    0    0    0    0 -0.00000000000E+00 -0.00000000000E+00 -0.74505805969E-08  0.93827000000E+00  0.93827000000E+00 0.  1.
     999902    2    1    2    0    0 -0.15975925672E-01  0.17341520190E-01  0.47782974127E-02  0.10198719317E+01  0.10195881357E+01 0.  0.
     999903    2    3    3    0    0  0.10359964819E+00 -0.54810311924E-02  0.73530990375E-01  0.12883538953E+00  0.20708023624E-01 0.  0.
         14    1    1    2    0    0  0.15975925672E-01 -0.17341520190E-01 -0.47782974127E-02  0.24058068288E-01  0.00000000000E+00 0.  1.
     999901    1    3    3    0    0 -0.11957557386E+00  0.22822551382E-01 -0.68752692962E-01  0.89103654218E+00  0.88000000000E+00 0. -1.
        -11    1    4    4    0    0  0.17576922259E-01  0.67749175097E-02  0.11555480975E-01  0.22105156976E-01  0.51100000000E-03 0. -1.
         11    1    4    4    0    0  0.86022725927E-01 -0.12255948702E-01  0.61975509400E-01  0.10673023255E+00  0.51100000000E-03 0.  1.
</event>
<event>
 8    1  0.1088021E+005  0.1043930E+01  0.7957747E-01            NaN
         13   -1    0    0    0    0  0.00000000000E+00  0.00000000000E+00  0.74505805969E-08  0.10566000000E+00  0.10566000000E+00 0.  1.
     999900   -1    0    0    0    0 -0.00000000000E+00 -0.00000000000E+00 -0.74505805969E-08  0.93827000000E+00  0.93827000000E+00 0. -1.
     999902    2    1    2    0    0 -0.16754254468E-01  0.13406525067E-01 -0.10305353619E-01  0.10201257930E+01  0.10198480246E+01 0.  0.
     999903    2    3    3    0    0  0.99559886851E-01 -0.77546236134E-01 -0.62471616989E-02  0.12781539121E+00  0.19291381308E-01 0.  0.
         14    1    1    2    0    0  0.16754254468E-01 -0.13406525067E-01  0.10305353619E-01  0.23804206989E-01  0.00000000000E+00 0.  1.
     999901    1    3    3    0    0 -0.11631414132E+00  0.90952761200E-01 -0.40581919199E-02  0.89231040180E+00  0.88000000000E+00 0. -1.
        -11    1    4    4    0    0  0.39145725448E-01 -0.39300860636E-01  0.38301091970E-02  0.55604643017E-01  0.51100000000E-03 0. -1.
         11    1    4    4    0    0  0.60414161403E-01 -0.38245375497E-01 -0.10077270896E-01  0.72210748193E-01  0.51100000000E-03 0.  1.
</event>
<event>
 8    1  0.1088021E+005  0.1043930E+01  0.7957747E-01            NaN
         13   -1    0    0    0    0  0.00000000000E+00  0.00000000000E+00  0.74505805969E-08  0.10566000000E+00  0.10566000000E+00 0. -1.
     999900   -1    0    0    0    0 -0.00000000000E+00 -0.00000000000E+00 -0.74505805969E-08  0.93827000000E+00  0.93827000000E+00 0. -1.
     999902    2    1    2    0    0 -0.12537822586E-01  0.19860769750E-01  0.55446300925E-02  0.10197972403E+01  0.10195116582E+01 0.  0.
     999903    2    3    3    0    0  0.11167900117E+00 -0.16102545735E-01 -0.57300026122E-01  0.12812878719E+00  0.20054970292E-01 0.  0.
         14    1    1    2    0    0  0.12537822586E-01 -0.19860769750E-01 -0.55446300925E-02  0.24132759749E-01  0.00000000000E+00 0. -1.
     999901    1    3    3    0    0 -0.12421682375E+00  0.35963315485E-01  0.62844656215E-01  0.89166845306E+00  0.88000000000E+00 0.  1.
        -11    1    4    4    0    0  0.59059835251E-01 -0.17130525775E-01 -0.36662972715E-01  0.71595766233E-01  0.51100000000E-03 0. -1.
         11    1    4    4    0    0  0.52619165915E-01  0.10279800405E-02 -0.20637053408E-01  0.56533020960E-01  0.51100000000E-03 0.  1.
</event>
<event>
 8    1  0.1088021E+005  0.1043930E+01  0.7957747E-01            NaN
         13   -1    0    0    0    0  0.00000000000E+00  0.00000000000E+00  0.74505805969E-08  0.10566000000E+00  0.10566000000E+00 0.  1.
     999900   -1    0    0    0    0 -0.00000000000E+00 -0.00000000000E+00 -0.74505805969E-08  0.93827000000E+00  0.93827000000E+00 0.  1.
     999902    2    1    2    0    0  0.74859640869E-05 -0.12162844427E-01 -0.20368274749E-01  0.10202065631E+01  0.10199306986E+01 0.  0.
     999903    2    3    3    0    0  0.19447498901E-01  0.12567979360E+00  0.75030811754E-02  0.12882823748E+00  0.19152096821E-01 0.  0.
         14    1    1    2    0    0 -0.74859640869E-05  0.12162844427E-01  0.20368274749E-01  0.23723436868E-01  0.00000000000E+00 0.  1.
     999901    1    3    3    0    0 -0.19440012937E-01 -0.13784263803E+00 -0.27871355925E-01  0.89137832565E+00  0.88000000000E+00 0. -1.
        -11    1    4    4    0    0 -0.23486207203E-02  0.44100417488E-01  0.28458049122E-02  0.44257457773E-01  0.51100000000E-03 0. -1.
         11    1    4    4    0    0  0.21796119621E-01  0.81579376110E-01  0.46572762633E-02  0.84570779707E-01  0.51100000000E-03 0.  1.
</event>
<event>
 8    1  0.1088021E+005  0.1043930E+01  0.7957747E-01            NaN
         13   -1    0    0    0    0  0.00000000000E+00  0.00000000000E+00  0.74505805969E-08  0.10566000000E+00  0.10566000000E+00 0. -1.
     999900   -1    0    0    0    0 -0.00000000000E+00 -0.00000000000E+00 -0.74505805969E-08  0.93827000000E+00  0.93827000000E+00 0. -1.
     999902    2    1    2    0    0 -0.19082753798E-01  0.13175938500E-01  0.51894529225E-02  0.10201668506E+01  0.10198900508E+01 0.  0.
     999903    2    3    3    0    0  0.48415214079E-01 -0.10730833656E+00  0.47147332478E-01  0.12840853140E+00  0.20168488457E-01 0.  0.
         14    1    1    2    0    0  0.19082753798E-01 -0.13175938500E-01 -0.51894529225E-02  0.23763149402E-01  0.00000000000E+00 0.  1.
     999901    1    3    3    0    0 -0.67497967877E-01  0.12048427506E+00 -0.41957879556E-01  0.89175831920E+00  0.88000000000E+00 0.  1.
        -11    1    4    4    0    0  0.37452552400E-01 -0.75214045586E-01  0.24141674647E-01  0.87423840630E-01  0.51100000000E-03 0.  1.
         11    1    4    4    0    0  0.10962661679E-01 -0.32094290974E-01  0.23005657831E-01  0.40984690769E-01  0.51100000000E-03 0. -1.
</event>
<event>
 8    1  0.1088021E+005  0.1043930E+01  0.7957747E-01            NaN
         13   -1    0    0    0    0  0.00000000000E+00  0.00000000000E+00  0.74505805969E-08  0.10566000000E+00  0.10566000000E+00 0. -1.
     999900   -1    0    0    0    0 -0.00000000000E+00 -0.00000000000E+00 -0.74505805969E-08  0.93827000000E+00  0.93827000000E+00 0.  1.
     999902    2    1    2    0    0  0.42390852492E-02 -0.12685528158E-01 -0.19127433499E-01  0.10205900947E+01  0.10203231793E+01 0.  0.
     999903    2    3    3    0    0 -0.33082365722E-01 -0.82333723689E-01 -0.97968815372E-01  0.13353895447E+00  0.19012590484E-01 0.  0.
         14    1    1    2    0    0 -0.42390852492E-02  0.12685528158E-01  0.19127433499E-01  0.23339905327E-01  0.00000000000E+00 0. -1.
     999901    1    3    3    0    0  0.37321450971E-01  0.69648195530E-01  0.78841381873E-01  0.88705114020E+00  0.88000000000E+00 0. -1.
        -11    1    4    4    0    0 -0.24680616384E-01 -0.38140484076E-01 -0.54874876788E-01  0.71241438602E-01  0.51100000000E-03 0.  1.
         11    1    4    4    0    0 -0.84017493380E-02 -0.44193239612E-01 -0.43093938584E-01  0.62297515866E-01  0.51100000000E-03 0. -1.
</event>
<event>
 8    1  0.1088021E+005  0.1043930E+01  0.7957747E-01            NaN
         13   -1    0    0    0    0  0.00000000000E+00  0.00000000000E+00  0.74505805969E-08  0.10566000000E+00  0.10566000000E+00 0. -1.
     999900   -1    0    0    0    0 -0.00000000000E+00 -0.00000000000E+00 -0.74505805969E-08  0.93827000000E+00  0.93827000000E+00 0. -1.
     999902    2    1    2    0    0 -0.22075845327E-02 -0.13992973503E-01  0.18346505977E-01  0.10207508926E+01  0.10204876843E+01 0.  0.
     999903    2    3    3    0    0 -0.49563992850E-02  0.11917788684E-01 -0.12625055711E+00  0.12856972592E+00  0.20600283279E-01 0.  0.
         14    1    1    2    0    0  0.22075845327E-02  0.13992973503E-01 -0.18346505977E-01  0.23179107371E-01  0.00000000000E+00 0.  1.
     999901    1    3    3    0    0  0.27488147524E-02 -0.25910762186E-01  0.14459706309E+00  0.89218116671E+00  0.88000000000E+00 0.  1.
        -11    1    4    4    0    0  0.63120331348E-02  0.10992776809E-02 -0.16428009381E-01  0.17640600527E-01  0.51100000000E-03 0. -1.
         11    1    4    4    0    0 -0.11268432420E-01  0.10818511003E-01 -0.10982254773E+00  0.11092912539E+00  0.51100000000E-03 0.  1.
</event>
<event>
 8    1  0.1088021E+005  0.1043930E+01  0.7957747E-01            NaN
         13   -1    0    0    0    0  0.00000000000E+00  0.00000000000E+00  0.74505805969E-08  0.10566000000E+00  0.10566000000E+00 0. -1.
     999900   -1    0    0    0    0 -0.00000000000E+00 -0.00000000000E+00 -0.74505805969E-08  0.93827000000E+00  0.93827000000E+00 0. -1.
     999902    2    1    2    0    0  0.14279693498E-01 -0.76689257800E-02  0.17052822247E-01  0.10204029769E+01  0.10201317143E+01 0.  0.
     999903    2    3    3    0    0  0.11602291651E+00  0.15803441739E-01 -0.55632533788E-01  0.13125405999E+00  0.20532499197E-01 0.  0.
         14    1    1    2    0    0 -0.14279693498E-01  0.76689257800E-02 -0.17052822247E-01  0.23527023093E-01  0.00000000000E+00 0.  1.
     999901    1    3    3    0    0 -0.10174322301E+00 -0.23472367519E-01  0.72685356036E-01  0.88914891691E+00  0.88000000000E+00 0.  1.
        -11    1    4    4    0    0  0.18497469660E-01  0.71864308207E-02 -0.29370639214E-02  0.20067103360E-01  0.51100000000E-03 0.  1.
         11    1    4    4    0    0  0.97525446848E-01  0.86170109186E-02 -0.52695469867E-01  0.11118695663E+00  0.51100000000E-03 0. -1.
</event>
<event>
 8    1  0.1088021E+005  0.1043930E+01  0.7957747E-01            NaN
         13   -1    0    0    0    0  0.00000000000E+00  0.00000000000E+00  0.74505805969E-08  0.10566000000E+00  0.10566000000E+00 0.  1.
     999900   -1    0    0    0    0 -0.00000000000E+00 -0.00000000000E+00 -0.74505805969E-08  0.93827000000E+00  0.93827000000E+00 0. -1.
     999902    2    1    2    0    0 -0.63982248926E-02  0.20827996617E-01 -0.75217978427E-02  0.10208796168E+01  0.10206193569E+01 0.  0.
     999903    2    3    3    0    0 -0.12284611455E+00  0.34777497596E-01 -0.30841458238E-01  0.13279262432E+00  0.19545928635E-01 0.  0.
         14    1    1    2    0    0  0.63982248926E-02 -0.20827996617E-01  0.75217978427E-02  0.23050383243E-01  0.00000000000E+00 0.  1.
     999901    1    3    3    0    0  0.11644788966E+00 -0.13949500979E-01  0.23319660396E-01  0.88808699244E+00  0.88000000000E+00 0.  1.
        -11    1    4    4    0    0 -0.90230596719E-01  0.27626960395E-01 -0.31218281740E-01  0.99396437364E-01  0.51100000000E-03 0.  1.
         11    1    4    4    0    0 -0.32615517835E-01  0.71505372009E-02  0.37682350147E-03  0.33396186951E-01  0.51100000000E-03 0. -1.
</event>
<event>
 8    1  0.1088021E+005  0.1043930E+01  0.7957747E-01            NaN
         13   -1    0    0    0    0  0.00000000000E+00  0.00000000000E+00  0.74505805969E-08  0.10566000000E+00  0.10566000000E+00 0. -1.
     999900   -1    0    0    0    0 -0.00000000000E+00 -0.00000000000E+00 -0.74505805969E-08  0.93827000000E+00  0.93827000000E+00 0.  1.
     999902    2    1    2    0    0  0.14087965453E-01  0.74501538996E-02  0.16744957402E-01  0.10208135738E+01  0.10205518033E+01 0.  0.
     999903    2    3    3    0    0  0.35937547538E-01 -0.89378520945E-01  0.88539833252E-01  0.13232738889E+00  0.19778990073E-01 0.  0.
         14    1    1    2    0    0 -0.14087965453E-01 -0.74501538996E-02 -0.16744957402E-01  0.23116426240E-01  0.00000000000E+00 0. -1.
     999901    1    3    3    0    0 -0.21849582085E-01  0.96828674844E-01 -0.71794875850E-01  0.88848618487E+00  0.88000000000E+00 0. -1.
        -11    1    4    4    0    0  0.13367880526E-01 -0.40355067688E-01  0.51916474552E-01  0.67103004171E-01  0.51100000000E-03 0.  1.
         11    1    4    4    0    0  0.22569667012E-01 -0.49023453257E-01  0.36623358700E-01  0.65224384717E-01  0.51100000000E-03 0. -1.
</event>
<event>
 8    1  0.1088021E+005  0.1043930E+01  0.7957747E-01            NaN
         13   -1    0    0    0    0  0.00000000000E+00  0.00000000000E+00  0.74505805969E-08  0.10566000000E+00  0.10566000000E+00 0. -1.
     999900   -1    0    0    0    0 -0.00000000000E+00 -0.00000000000E+00 -0.74505805969E-08  0.93827000000E+00  0.93827000000E+00 0. -1.
     999902    2    1    2    0    0  0.15614640094E-01 -0.14883380410E-01 -0.93643451452E-02  0.10204135598E+01  0.10201425440E+01 0.  0.
     999903    2    3    3    0    0  0.78631523426E-01  0.98335755632E-01 -0.28989545142E-01  0.13070863751E+00  0.19786785478E-01 0.  0.
         14    1    1    2    0    0 -0.15614640094E-01  0.14883380410E-01  0.93643451452E-02  0.23516440158E-01  0.00000000000E+00 0. -1.
     999901    1    3    3    0    0 -0.63016883332E-01 -0.11321913604E+00  0.19625199997E-01  0.88970492233E+00  0.88000000000E+00 0.  1.
        -11    1    4    4    0    0  0.65075459087E-01  0.90862912254E-01 -0.23017760347E-01  0.11410943261E+00  0.51100000000E-03 0.  1.
         11    1    4    4    0    0  0.13556064339E-01  0.74728433774E-02 -0.59717847957E-02  0.16599204895E-01  0.51100000000E-03 0. -1.
</event>
<event>
 8    1  0.1088021E+005  0.1043930E+01  0.7957747E-01            NaN
         13   -1    0    0    0    0  0.00000000000E+00  0.00000000000E+00  0.74505805969E-08  0.10566000000E+00  0.10566000000E+00 0.  1.
     999900   -1    0    0    0    0 -0.00000000000E+00 -0.00000000000E+00 -0.74505805969E-08  0.93827000000E+00  0.93827000000E+00 0.  1.
     999902    2    1    2    0    0 -0.19004189111E-01 -0.58246725032E-02 -0.14081957723E-01  0.10195704527E+01  0.10192794123E+01 0.  0.
     999903    2    3    3    0    0  0.92667115896E-02 -0.10070538446E+00  0.78005272950E-01  0.12924374218E+00  0.19790802958E-01 0.  0.
         14    1    1    2    0    0  0.19004189111E-01  0.58246725032E-02  0.14081957723E-01  0.24359547345E-01  0.00000000000E+00 0. -1.
     999901    1    3    3    0    0 -0.28270900700E-01  0.94880711960E-01 -0.92087230674E-01  0.89032671047E+00  0.88000000000E+00 0. -1.
        -11    1    4    4    0    0  0.10140137789E-01 -0.72486502325E-01  0.45487372586E-01  0.86177013173E-01  0.51100000000E-03 0.  1.
         11    1    4    4    0    0 -0.87342619908E-03 -0.28218882138E-01  0.32517900364E-01  0.43066729009E-01  0.51100000000E-03 0. -1.
</event>
<event>
 8    1  0.1088021E+005  0.1043930E+01  0.7957747E-01            NaN
         13   -1    0    0    0    0  0.00000000000E+00  0.00000000000E+00  0.74505805969E-08  0.10566000000E+00  0.10566000000E+00 0. -1.
     999900   -1    0    0    0    0 -0.00000000000E+00 -0.00000000000E+00 -0.74505805969E-08  0.93827000000E+00  0.93827000000E+00 0.  1.
     999902    2    1    2    0    0  0.16376317249E-01 -0.65224882191E-02 -0.16013381767E-01  0.10201149834E+01  0.10198369597E+01 0.  0.
     999903    2    3    3    0    0 -0.81388068170E-02 -0.79894945902E-01 -0.10321868498E+00  0.13242738422E+00  0.20820004939E-01 0.  0.
         14    1    1    2    0    0 -0.16376317249E-01  0.65224882191E-02  0.16013381767E-01  0.23815016583E-01  0.00000000000E+00 0. -1.
     999901    1    3    3    0    0  0.24515124066E-01  0.73372457683E-01  0.87205303215E-01  0.88768759919E+00  0.88000000000E+00 0. -1.
        -11    1    4    4    0    0 -0.62885068779E-03 -0.63458358809E-01 -0.69141807691E-01  0.93852061499E-01  0.51100000000E-03 0.  1.
         11    1    4    4    0    0 -0.75099561292E-02 -0.16436587093E-01 -0.34076877291E-01  0.38575322724E-01  0.51100000000E-03 0. -1.
</event>
<event>
 8    1  0.1152911E+005  0.1043930E+01  0.7957747E-01            NaN
         13   -1    0    0    0    0  0.00000000000E+00  0.00000000000E+00  0.74505805969E-08  0.10566000000E+00  0.10566000000E+00 0. -1.
     999900   -1    0    0    0    0 -0.00000000000E+00 -0.00000000000E+00 -0.74505805969E-08  0.93827000000E+00  0.93827000000E+00 0.  1.
     999902    2    1    2    0    0  0.67354227663E-02  0.73020162736E-02  0.22023697228E-01  0.10197695240E+01  0.10194832777E+01 0.  0.
     999903    2    3    3    0    0 -0.60245208028E-01  0.23227949728E-01  0.11208507317E+00  0.13249781155E+00  0.28698147990E-01 0.  0.
         14    1    1    2    0    0 -0.67354227663E-02 -0.73020162736E-02 -0.22023697228E-01  0.24160476011E-01  0.00000000000E+00 0.  1.
     999901    1    3    3    0    0  0.66980630794E-01 -0.15925933454E-01 -0.90061375946E-01  0.88727171244E+00  0.88000000000E+00 0.  1.
        -11    1    4    4    0    0 -0.48004567878E-01  0.23529540461E-01  0.66673289878E-01  0.85461491419E-01  0.51100000000E-03 0.  1.
         11    1    4    4    0    0 -0.12240640150E-01 -0.30159073279E-03  0.45411783296E-01  0.47036320130E-01  0.51100000000E-03 0. -1.
</event>
<event>
 8    1  0.1088021E+005  0.1043930E+01  0.7957747E-01            NaN
         13   -1    0    0    0    0  0.00000000000E+00  0.00000000000E+00  0.74505805969E-08  0.10566000000E+00  0.10566000000E+00 0.  1.
     999900   -1    0    0    0    0 -0.00000000000E+00 -0.00000000000E+00 -0.74505805969E-08  0.93827000000E+00  0.93827000000E+00 0. -1.
     999902    2    1    2    0    0 -0.15255795823E-01  0.12578331598E-01 -0.13077766500E-01  0.10202238466E+01  0.10199483886E+01 0.  0.
     999903    2    3    3    0    0 -0.86082657108E-01 -0.81616580235E-01 -0.52920000422E-01  0.13147386529E+00  0.20331276024E-01 0.  0.
         14    1    1    2    0    0  0.15255795823E-01 -0.12578331598E-01  0.13077766500E-01  0.23706153391E-01  0.00000000000E+00 0.  1.
     999901    1    3    3    0    0  0.70826861285E-01  0.94194911833E-01  0.39842233922E-01  0.88874998132E+00  0.88000000000E+00 0.  1.
        -11    1    4    4    0    0 -0.29897262116E-01 -0.22274098370E-01 -0.25905502337E-01  0.45401959347E-01  0.51100000000E-03 0.  1.
         11    1    4    4    0    0 -0.56185394992E-01 -0.59342481866E-01 -0.27014498085E-01  0.86071905940E-01  0.51100000000E-03 0. -1.
</event>
<event>
 8    1  0.1088021E+005  0.1043930E+01  0.7957747E-01            NaN
         13   -1    0    0    0    0  0.00000000000E+00  0.00000000000E+00  0.74505805969E-08  0.10566000000E+00  0.10566000000E+00 0. -1.
     999900   -1    0    0    0    0 -0.00000000000E+00 -0.00000000000E+00 -0.74505805969E-08  0.93827000000E+00  0.93827000000E+00 0.  1.
     999902    2    1    2    0    0 -0.19954967531E-01  0.87910371172E-02 -0.11054368523E-01  0.10194824618E+01  0.10191892894E+01 0.  0.
     999903    2    3    3    0    0 -0.82807347052E-01 -0.77528555770E-01 -0.63640140986E-01  0.13146964811E+00  0.19143331604E-01 0.  0.
         14    1    1    2    0    0  0.19954967531E-01 -0.87910371172E-02  0.11054368523E-01  0.24447538244E-01  0.00000000000E+00 0. -1.
     999901    1    3    3    0    0  0.62852379521E-01  0.86319592887E-01  0.52585772463E-01  0.88801281364E+00  0.88000000000E+00 0.  1.
        -11    1    4    4    0    0 -0.51934871868E-01 -0.60471945289E-01 -0.42297626375E-01  0.90240996232E-01  0.51100000000E-03 0.  1.
         11    1    4    4    0    0 -0.30872475184E-01 -0.17056610481E-01 -0.21342514611E-01  0.41228651882E-01  0.51100000000E-03 0. -1.
</event>
<event>
 8    1  0.1088021E+005  0.1043930E+01  0.7957747E-01            NaN
         13   -1    0    0    0    0  0.00000000000E+00  0.00000000000E+00  0.74505805969E-08  0.10566000000E+00  0.10566000000E+00 0. -1.
     999900   -1    0    0    0    0 -0.00000000000E+00 -0.00000000000E+00 -0.74505805969E-08  0.93827000000E+00  0.93827000000E+00 0. -1.
     999902    2    1    2    0    0  0.27709038043E-03 -0.57209211836E-02 -0.24378826788E-01  0.10188873781E+01  0.10185795778E+01 0.  0.
     999903    2    3    3    0    0  0.38691356850E-01 -0.11212848556E-01  0.11840930323E+00  0.12653415920E+00  0.19167192898E-01 0.  0.
         14    1    1    2    0    0 -0.27709038043E-03  0.57209211836E-02  0.24378826788E-01  0.25042621944E-01  0.00000000000E+00 0. -1.
     999901    1    3    3    0    0 -0.38414266469E-01  0.54919273725E-02 -0.14278813002E+00  0.89235321886E+00  0.88000000000E+00 0. -1.
        -11    1    4    4    0    0  0.19046429758E-01 -0.28919690012E-02  0.82857174187E-01  0.85068809834E-01  0.51100000000E-03 0. -1.
         11    1    4    4    0    0  0.19644927092E-01 -0.83208795549E-02  0.35552129046E-01  0.41465349362E-01  0.51100000000E-03 0.  1.
</event>
<event>
 8    1  0.1088021E+005  0.1043930E+01  0.7957747E-01            NaN
         13   -1    0    0    0    0  0.00000000000E+00  0.00000000000E+00  0.74505805969E-08  0.10566000000E+00  0.10566000000E+00 0.  1.
     999900   -1    0    0    0    0 -0.00000000000E+00 -0.00000000000E+00 -0.74505805969E-08  0.93827000000E+00  0.93827000000E+00 0.  1.
     999902    2    1    2    0    0 -0.23839444116E-01  0.42521672869E-02  0.11312582603E-01  0.10172022139E+01  0.10168510065E+01 0.  0.
     999903    2    3    3    0    0 -0.97106346087E-01  0.29063891928E-01  0.80602531020E-01  0.13109569802E+00  0.20370610418E-01 0.  0.
         14    1    1    2    0    0  0.23839444116E-01 -0.42521672869E-02 -0.11312582603E-01  0.26727786058E-01  0.00000000000E+00 0. -1.
     999901    1    3    3    0    0  0.73266901971E-01 -0.24811724641E-01 -0.69289948417E-01  0.88610651592E+00  0.88000000000E+00 0.  1.
        -11    1    4    4    0    0 -0.84948559063E-02  0.60701012622E-02  0.24742556396E-02  0.10742056050E-01  0.51100000000E-03 0. -1.
         11    1    4    4    0    0 -0.88611490181E-01  0.22993790665E-01  0.78128275381E-01  0.12035364197E+00  0.51100000000E-03 0.  1.
</event>
<event>
 8    1  0.1088021E+005  0.1043930E+01  0.7957747E-01            NaN
         13   -1    0    0    0    0  0.00000000000E+00  0.00000000000E+00  0.74505805969E-08  0.10566000000E+00  0.10566000000E+00 0.  1.
     999900   -1    0    0    0    0 -0.00000000000E+00 -0.00000000000E+00 -0.74505805969E-08  0.93827000000E+00  0.93827000000E+00 0.  1.
     999902    2    1    2    0    0 -0.14655970454E-01 -0.63235963877E-02  0.18172876503E-01  0.10197424251E+01  0.10194555285E+01 0.  0.
     999903    2    3    3    0    0 -0.11213422978E+00  0.28285345186E-01  0.61243390673E-01  0.13263766288E+00  0.21629851453E-01 0.  0.
         14    1    1    2    0    0  0.14655970454E-01  0.63235963877E-02 -0.18172876503E-01  0.24187574943E-01  0.00000000000E+00 0.  1.
     999901    1    3    3    0    0  0.97478259325E-01 -0.34608941574E-01 -0.43070514170E-01  0.88710476217E+00  0.88000000000E+00 0. -1.
        -11    1    4    4    0    0 -0.38319342041E-01  0.15214870378E-01  0.11991018840E-01  0.42940772104E-01  0.51100000000E-03 0.  1.
         11    1    4    4    0    0 -0.73814887738E-01  0.13070474808E-01  0.49252371833E-01  0.89696890781E-01  0.51100000000E-03 0. -1.
</event>
<event>
 8    1  0.1088021E+005  0.1043930E+01  0.7957747E-01            NaN
         13   -1    0    0    0    0  0.00000000000E+00  0.00000000000E+00  0.74505805969E-08  0.10566000000E+00  0.10566000000E+00 0.  1.
     999900   -1    0    0    0    0 -0.00000000000E+00 -0.00000000000E+00 -0.74505805969E-08  0.93827000000E+00  0.93827000000E+00 0. -1.
     999902    2    1    2    0    0  0.31323349761E-02 -0.23429250496E-01  0.62160508409E-02  0.10194886296E+01  0.10191956069E+01 0.  0.
     999903    2    3    3    0    0 -0.83944166342E-01  0.75684784380E-01  0.57228052219E-01  0.12819286872E+00  0.19584483178E-01 0.  0.
         14    1    1    2    0    0 -0.31323349761E-02  0.23429250496E-01 -0.62160508409E-02  0.24441370446E-01  0.00000000000E+00 0. -1.
     999901    1    3    3    0    0  0.87076501318E-01 -0.99114034875E-01 -0.51012001378E-01  0.89129576083E+00  0.88000000000E+00 0.  1.
        -11    1    4    4    0    0 -0.58206041582E-01  0.42993525875E-01  0.29258526531E-01  0.78055807212E-01  0.51100000000E-03 0.  1.
         11    1    4    4    0    0 -0.25738124760E-01  0.32691258505E-01  0.27969525688E-01  0.50137061511E-01  0.51100000000E-03 0. -1.
</event>
<event>
 8    1  0.1268276E+005  0.1043930E+01  0.7957747E-01            NaN
         13   -1    0    0    0    0  0.00000000000E+00  0.00000000000E+00  0.74505805969E-08  0.10566000000E+00  0.10566000000E+00 0. -1.
     999900   -1    0    0    0    0 -0.00000000000E+00 -0.00000000000E+00 -0.74505805969E-08  0.93827000000E+00  0.93827000000E+00 0. -1.
     999902    2    1    2    0    0 -0.62242668971E-02 -0.11953749712E-01  0.19202784766E-01  0.10204698088E+01  0.10202001029E+01 0.  0.
     999903    2    3    3    0    0  0.14644271072E-01  0.80718672691E-01 -0.96107316972E-01  0.12787802450E+00  0.19652327557E-01 0.  0.
         14    1    1    2    0    0  0.62242668971E-02  0.11953749712E-01 -0.19202784766E-01  0.23460191247E-01  0.00000000000E+00 0.  1.
     999901    1    3    3    0    0 -0.20868537969E-01 -0.92672422403E-01  0.11531010174E+00  0.89259178425E+00  0.88000000000E+00 0.  1.
        -11    1    4    4    0    0  0.16217617287E-01  0.38620777245E-01 -0.42214504315E-01  0.59471850829E-01  0.51100000000E-03 0.  1.
         11    1    4    4    0    0 -0.15733462150E-02  0.42097895446E-01 -0.53892812657E-01  0.68406173671E-01  0.51100000000E-03 0. -1.
</event>
<event>
 8    1  0.1088021E+005  0.1043930E+01  0.7957747E-01            NaN
         13   -1    0    0    0    0  0.00000000000E+00  0.00000000000E+00  0.74505805969E-08  0.10566000000E+00  0.10566000000E+00 0. -1.
     999900   -1    0    0    0    0 -0.00000000000E+00 -0.00000000000E+00 -0.74505805969E-08  0.93827000000E+00  0.93827000000E+00 0.  1.
     999902    2    1    2    0    0  0.18673453268E-02 -0.21117046843E-01  0.10101193133E-01  0.10204470115E+01  0.10201767751E+01 0.  0.
     999903    2    3    3    0    0  0.56645172458E-02 -0.13168392333E+00  0.68279256321E-02  0.13351399996E+00  0.20164949745E-01 0.  0.
         14    1    1    2    0    0 -0.18673453268E-02  0.21117046843E-01 -0.10101193133E-01  0.23482988495E-01  0.00000000000E+00 0.  1.
     999901    1    3    3    0    0 -0.37971719190E-02  0.11056687648E+00  0.32732675009E-02  0.88693301155E+00  0.88000000000E+00 0. -1.
        -11    1    4    4    0    0  0.50390584026E-02 -0.23585089365E-01 -0.54088910942E-02  0.24721767206E-01  0.51100000000E-03 0. -1.
         11    1    4    4    0    0  0.62545884319E-03 -0.10809883396E+00  0.12236816726E-01  0.10879223275E+00  0.51100000000E-03 0.  1.
</event>
<event>
 8    1  0.1088021E+005  0.1043930E+01  0.7957747E-01            NaN
         13   -1    0    0    0    0  0.00000000000E+00  0.00000000000E+00  0.74505805969E-08  0.10566000000E+00  0.10566000000E+00 0.  1.
     999900   -1    0    0    0    0 -0.00000000000E+00 -0.00000000000E+00 -0.74505805969E-08  0.93827000000E+00  0.93827000000E+00 0. -1.
     999902    2    1    2    0    0 -0.16951177210E-01  0.11267971149E-01  0.12994790546E-01  0.10197810008E+01  0.10194950296E+01 0.  0.
     999903    2    3    3    0    0  0.39756290538E-01  0.10554802803E+00  0.64413016423E-01  0.13144080694E+00  0.20166808979E-01 0.  0.
         14    1    1    2    0    0  0.16951177210E-01 -0.11267971149E-01 -0.12994790546E-01  0.24148999233E-01  0.00000000000E+00 0. -1.
     999901    1    3    3    0    0 -0.56707467748E-01 -0.94280056883E-01 -0.51418225877E-01  0.88834019383E+00  0.88000000000E+00 0. -1.
        -11    1    4    4    0    0  0.66268975181E-02  0.21201993603E-01  0.22414209593E-01  0.31561023686E-01  0.51100000000E-03 0. -1.
         11    1    4    4    0    0  0.33129393020E-01  0.84346034429E-01  0.41998806830E-01  0.99879783249E-01  0.51100000000E-03 0.  1.
</event>
<event>
 8    1  0.1088021E+005  0.1043930E+01  0.7957747E-01            NaN
         13   -1    0    0    0    0  0.00000000000E+00  0.00000000000E+00  0.74505805969E-08  0.10566000000E+00  0.10566000000E+00 0. -1.
     999900   -1    0    0    0    0 -0.00000000000E+00 -0.00000000000E+00 -0.74505805969E-08  0.93827000000E+00  0.93827000000E+00 0.  1.
     999902    2    1    2    0    0  0.76715976530E-02  0.10195229764E-01  0.30144602510E-02  0.10308195808E+01  0.10307362054E+01 0.  0.
     999903    2    3    3    0    0  0.41062994553E-01  0.13031193964E+00  0.31498516384E-01  0.14157588484E+00  0.19601109669E-01 0.  0.
         14    1    1    2    0    0 -0.76715976530E-02 -0.10195229764E-01 -0.30144602510E-02  0.13110419181E-01  0.00000000000E+00 0.  1.
     999901    1    3    3    0    0 -0.33391396900E-01 -0.12011670988E+00 -0.28484056133E-01  0.88924369598E+00  0.88000000000E+00 0.  1.
        -11    1    4    4    0    0  0.34955634873E-01  0.85117746438E-01  0.15943217456E-01  0.93388299438E-01  0.51100000000E-03 0.  1.
         11    1    4    4    0    0  0.61073596807E-02  0.45194193203E-01  0.15555298928E-01  0.48187585406E-01  0.51100000000E-03 0. -1.
</event>
<event>
 8    1  0.1088021E+005  0.1043930E+01  0.7957747E-01            NaN
         13   -1    0    0    0    0  0.00000000000E+00  0.00000000000E+00  0.74505805969E-08  0.10566000000E+00  0.10566000000E+00 0. -1.
     999900   -1    0    0    0    0 -0.00000000000E+00 -0.00000000000E+00 -0.74505805969E-08  0.93827000000E+00  0.93827000000E+00 0.  1.
     999902    2    1    2    0    0  0.21055192292E-01 -0.11858913626E-02 -0.10777924644E-01  0.10202468600E+01  0.10199719429E+01 0.  0.
     999903    2    3    3    0    0  0.50847108588E-01 -0.77160127013E-01 -0.93031133554E-01  0.13265166334E+00  0.20063856130E-01 0.  0.
         14    1    1    2    0    0 -0.21055192292E-01  0.11858913626E-02  0.10777924644E-01  0.23683140004E-01  0.00000000000E+00 0. -1.
     999901    1    3    3    0    0 -0.29791916296E-01  0.75974235651E-01  0.82253208910E-01  0.88759519666E+00  0.88000000000E+00 0. -1.
        -11    1    4    4    0    0  0.43324222135E-02 -0.17730807216E-01 -0.11635156470E-01  0.21651544837E-01  0.51100000000E-03 0.  1.
         11    1    4    4    0    0  0.46514686374E-01 -0.59429319797E-01 -0.81395977084E-01  0.11100011850E+00  0.51100000000E-03 0. -1.
</event>
<event>
 8    1  0.1088021E+005  0.1043930E+01  0.7957747E-01            NaN
         13   -1    0    0    0    0  0.00000000000E+00  0.00000000000E+00  0.74505805969E-08  0.10566000000E+00  0.10566000000E+00 0.  1.
     999900   -1    0    0    0    0 -0.00000000000E+00 -0.00000000000E+00 -0.74505805969E-08  0.93827000000E+00  0.93827000000E+00 0. -1.
     999902    2    1    2    0    0  0.80306903447E-02  0.15300371256E-01  0.43458329871E-02  0.10261120424E+01  0.10259573305E+01 0.  0.
     999903    2    3    3    0    0 -0.93727379355E-01 -0.58997415217E-01 -0.72306504017E-01  0.13383941223E+00  0.20475377873E-01 0.  0.
         14    1    1    2    0    0 -0.80306903447E-02 -0.15300371256E-01 -0.43458329871E-02  0.17817957580E-01  0.00000000000E+00 0. -1.
     999901    1    3    3    0    0  0.10175806970E+00  0.74297786472E-01  0.76652337004E-01  0.89227263019E+00  0.88000000000E+00 0. -1.
        -11    1    4    4    0    0 -0.40605486592E-01 -0.37042225230E-01 -0.39115370713E-01  0.67462621787E-01  0.51100000000E-03 0. -1.
         11    1    4    4    0    0 -0.53121892763E-01 -0.21955189987E-01 -0.33191133304E-01  0.66376790439E-01  0.51100000000E-03 0.  1.
</event>
<event>
 8    1  0.1088021E+005  0.1043930E+01  0.7957747E-01            NaN
         13   -1    0    0    0    0  0.00000000000E+00  0.00000000000E+00  0.74505805969E-08  0.10566000000E+00  0.10566000000E+00 0.  1.
     999900   -1    0    0    0    0 -0.00000000000E+00 -0.00000000000E+00 -0.74505805969E-08  0.93827000000E+00  0.93827000000E+00 0.  1.
     999902    2    1    2    0    0  0.21565083455E-01 -0.16797262194E-01  0.42606138182E-03  0.10165917051E+01  0.10162240464E+01 0.  0.
     999903    2    3    3    0    0  0.10185867003E+00  0.69479555402E-01  0.29151621196E-01  0.12826974368E+00  0.20017813196E-01 0.  0.
         14    1    1    2    0    0 -0.21565083455E-01  0.16797262194E-01 -0.42606138182E-03  0.27338294935E-01  0.00000000000E+00 0.  1.
     999901    1    3    3    0    0 -0.80293586576E-01 -0.86276817595E-01 -0.28725559814E-01  0.88832196139E+00  0.88000000000E+00 0. -1.
        -11    1    4    4    0    0  0.28613432792E-01  0.22608661514E-01  0.17764827465E-01  0.40567601944E-01  0.51100000000E-03 0.  1.
         11    1    4    4    0    0  0.73245237239E-01  0.46870893887E-01  0.11386793731E-01  0.87702141732E-01  0.51100000000E-03 0. -1.
</event>
<event>
 8    1  0.1088021E+005  0.1043930E+01  0.7957747E-01            NaN
         13   -1    0    0    0    0  0.00000000000E+00  0.00000000000E+00  0.74505805969E-08  0.10566000000E+00  0.10566000000E+00 0.  1.
     999900   -1    0    0    0    0 -0.00000000000E+00 -0.00000000000E+00 -0.74505805969E-08  0.93827000000E+00  0.93827000000E+00 0.  1.
     999902    2    1    2    0    0  0.10393989043E-02 -0.23649186752E-01 -0.23472106356E-02  0.10201418983E+01  0.10198645101E+01 0.  0.
     999903    2    3    3    0    0 -0.12871229821E+00 -0.67692937039E-02  0.60515601381E-03  0.13046265827E+00  0.20185637034E-01 0.  0.
         14    1    1    2    0    0 -0.10393989043E-02  0.23649186752E-01  0.23472106356E-02  0.23788101687E-01  0.00000000000E+00 0.  1.
     999901    1    3    3    0    0  0.12975169711E+00 -0.16879893048E-01 -0.29523666494E-02  0.88967924004E+00  0.88000000000E+00 0. -1.
        -11    1    4    4    0    0 -0.60326384113E-01 -0.13132843216E-01 -0.12555998383E-02  0.61754205063E-01  0.51100000000E-03 0.  1.
         11    1    4    4    0    0 -0.68385914094E-01  0.63635495120E-02  0.18607558521E-02  0.68708453208E-01  0.51100000000E-03 0. -1.
</event>
<event>
 8    1  0.1088021E+005  0.1043930E+01  0.7957747E-01            NaN
         13   -1    0    0    0    0  0.00000000000E+00  0.00000000000E+00  0.74505805969E-08  0.10566000000E+00  0.10566000000E+00 0. -1.
     999900   -1    0    0    0    0 -0.00000000000E+00 -0.00000000000E+00 -0.74505805969E-08  0.93827000000E+00  0.93827000000E+00 0.  1.
     999902    2    1    2    0    0  0.11486058578E-01 -0.16046895683E-01  0.12880980796E-01  0.10203640910E+01  0.10200919204E+01 0.  0.
     999903    2    3    3    0    0  0.27518300427E-01 -0.61064714677E-01 -0.11065870540E+00  0.13045078570E+00  0.16908641980E-01 0.  0.
         14    1    1    2    0    0 -0.11486058578E-01  0.16046895683E-01 -0.12880980796E-01  0.23565909042E-01  0.00000000000E+00 0.  1.
     999901    1    3    3    0    0 -0.16032241850E-01  0.45017818994E-01  0.12353968619E+00  0.88991330526E+00  0.88000000000E+00 0. -1.
        -11    1    4    4    0    0  0.19485036688E-01 -0.25213786746E-01 -0.43898237411E-01  0.54246825397E-01  0.51100000000E-03 0.  1.
         11    1    4    4    0    0  0.80332637393E-02 -0.35850927931E-01 -0.66760467984E-01  0.76203960306E-01  0.51100000000E-03 0. -1.
</event>
<event>
 8    1  0.1088021E+005  0.1043930E+01  0.7957747E-01            NaN
         13   -1    0    0    0    0  0.00000000000E+00  0.00000000000E+00  0.74505805969E-08  0.10566000000E+00  0.10566000000E+00 0. -1.
     999900   -1    0    0    0    0 -0.00000000000E+00 -0.00000000000E+00 -0.74505805969E-08  0.93827000000E+00  0.93827000000E+00 0. -1.
     999902    2    1    2    0    0  0.17274612160E-01  0.90827743231E-02  0.13406153468E-01  0.10202522897E+01  0.10199775001E+01 0.  0.
     999903    2    3    3    0    0  0.94592019399E-01  0.65054737524E-01 -0.62448180371E-01  0.13184657039E+00  0.17434846812E-01 0.  0.
         14    1    1    2    0    0 -0.17274612160E-01 -0.90827743231E-02 -0.13406153468E-01  0.23677710309E-01  0.00000000000E+00 0. -1.
     999901    1    3    3    0    0 -0.77317407240E-01 -0.55971963200E-01  0.75854333838E-01  0.88840571930E+00  0.88000000000E+00 0.  1.
        -11    1    4    4    0    0  0.55624895981E-01  0.46618750611E-01 -0.33640360841E-01  0.79996074653E-01  0.51100000000E-03 0. -1.
         11    1    4    4    0    0  0.38967123419E-01  0.18435986912E-01 -0.28807819530E-01  0.51850495735E-01  0.51100000000E-03 0.  1.
</event>
<event>
 8    1  0.1088021E+005  0.1043930E+01  0.7957747E-01            NaN
         13   -1    0    0    0    0  0.00000000000E+00  0.00000000000E+00  0.74505805969E-08  0.10566000000E+00  0.10566000000E+00 0. -1.
     999900   -1    0    0    0    0 -0.00000000000E+00 -0.00000000000E+00 -0.74505805969E-08  0.93827000000E+00  0.93827000000E+00 0. -1.
     999902    2    1    2    0    0  0.16964759251E-02  0.31325572097E-01 -0.12944203383E-01  0.10099929716E+01  0.10094226472E+01 0.  0.
     999903    2    3    3    0    0  0.55922623984E-01  0.25214054607E-01  0.10219757609E+00  0.12081613023E+00  0.19725727969E-01 0.  0.
         14    1    1    2    0    0 -0.16964759251E-02 -0.31325572097E-01  0.12944203383E-01  0.33937028434E-01  0.00000000000E+00 0. -1.
     999901    1    3    3    0    0 -0.54226148059E-01  0.61115174901E-02 -0.11514177947E+00  0.88917684133E+00  0.88000000000E+00 0. -1.
        -11    1    4    4    0    0  0.21658658497E-01  0.20258794640E-01  0.51310422554E-01  0.59266658687E-01  0.51100000000E-03 0.  1.
         11    1    4    4    0    0  0.34263965487E-01  0.49552599662E-02  0.50887153533E-01  0.61549471548E-01  0.51100000000E-03 0. -1.
</event>
<event>
 8    1  0.1088021E+005  0.1043930E+01  0.7957747E-01            NaN
         13   -1    0    0    0    0  0.00000000000E+00  0.00000000000E+00  0.74505805969E-08  0.10566000000E+00  0.10566000000E+00 0.  1.
     999900   -1    0    0    0    0 -0.00000000000E+00 -0.00000000000E+00 -0.74505805969E-08  0.93827000000E+00  0.93827000000E+00 0. -1.
     999902    2    1    2    0    0  0.20975978632E-01 -0.10087605933E-01 -0.26514055949E-02  0.10205039157E+01  0.10202350026E+01 0.  0.
     999903    2    3    3    0    0 -0.34948689573E-01 -0.10650735381E+00 -0.65365944771E-01  0.13125847732E+00  0.19770023092E-01 0.  0.
         14    1    1    2    0    0 -0.20975978632E-01  0.10087605933E-01  0.26514055949E-02  0.23426084279E-01  0.00000000000E+00 0.  1.
     999901    1    3    3    0    0  0.55924668205E-01  0.96419747880E-01  0.62714539176E-01  0.88924543840E+00  0.88000000000E+00 0.  1.
        -11    1    4    4    0    0 -0.28182284975E-01 -0.55976609670E-01 -0.32492518922E-01  0.70594949702E-01  0.51100000000E-03 0. -1.
         11    1    4    4    0    0 -0.67664045983E-02 -0.50530744143E-01 -0.32873425849E-01  0.60663527617E-01  0.51100000000E-03 0.  1.
</event>
<event>
 8    1  0.1088021E+005  0.1043930E+01  0.7957747E-01            NaN
         13   -1    0    0    0    0  0.00000000000E+00  0.00000000000E+00  0.74505805969E-08  0.10566000000E+00  0.10566000000E+00 0.  1.
     999900   -1    0    0    0    0 -0.00000000000E+00 -0.00000000000E+00 -0.74505805969E-08  0.93827000000E+00  0.93827000000E+00 0. -1.
     999902    2    1    2    0    0 -0.63859472836E-02 -0.17428650232E-01 -0.14795362474E-01  0.10201930895E+01  0.10199169078E+01 0.  0.
     999903    2    3    3    0    0  0.24215663815E-01  0.12046735085E+00 -0.31767697299E-01  0.12876736295E+00  0.21750084482E-01 0.  0.
         14    1    1    2    0    0  0.63859472836E-02  0.17428650232E-01  0.14795362474E-01  0.23736910548E-01  0.00000000000E+00 0.  1.
     999901    1    3    3    0    0 -0.30601611099E-01 -0.13789600108E+00  0.16972334825E-01  0.89142572650E+00  0.88000000000E+00 0.  1.
        -11    1    4    4    0    0  0.27125565261E-01  0.89902973647E-01 -0.20995445095E-01  0.96225832275E-01  0.51100000000E-03 0.  1.
         11    1    4    4    0    0 -0.29099014452E-02  0.30564377204E-01 -0.10772252204E-01  0.32541530677E-01  0.51100000000E-03 0. -1.
</event>
<event>
 8    1  0.1088021E+005  0.1043930E+01  0.7957747E-01            NaN
         13   -1    0    0    0    0  0.00000000000E+00  0.00000000000E+00  0.74505805969E-08  0.10566000000E+00  0.10566000000E+00 0. -1.
     999900   -1    0    0    0    0 -0.00000000000E+00 -0.00000000000E+00 -0.74505805969E-08  0.93827000000E+00  0.93827000000E+00 0.  1.
     999902    2    1    2    0    0 -0.70167077935E-02  0.10289050161E-01 -0.20087873885E-01  0.10202948267E+01  0.10200210350E+01 0.  0.
     999903    2    3    3    0    0  0.11087489957E+00 -0.47123997920E-01  0.40514306203E-01  0.12851721234E+00  0.19009216892E-01 0.  0.
         14    1    1    2    0    0  0.70167077935E-02 -0.10289050161E-01  0.20087873885E-01  0.23635173338E-01  0.00000000000E+00 0. -1.
     999901    1    3    3    0    0 -0.11789160736E+00  0.57413048081E-01 -0.60602180088E-01  0.89177761432E+00  0.88000000000E+00 0.  1.
        -11    1    4    4    0    0  0.29448013733E-01 -0.13743367389E-01  0.19969955071E-01  0.38146112339E-01  0.51100000000E-03 0. -1.
         11    1    4    4    0    0  0.81426885832E-01 -0.33380630531E-01  0.20544351132E-01  0.90371100001E-01  0.51100000000E-03 0.  1.
</event>
<event>
 8    1  0.1088021E+005  0.1043930E+01  0.7957747E-01            NaN
         13   -1    0    0    0    0  0.00000000000E+00  0.00000000000E+00  0.74505805969E-08  0.10566000000E+00  0.10566000000E+00 0. -1.
     999900   -1    0    0    0    0 -0.00000000000E+00 -0.00000000000E+00 -0.74505805969E-08  0.93827000000E+00  0.93827000000E+00 0. -1.
     999902    2    1    2    0    0  0.44050733680E-02 -0.11140914076E-01  0.20818915688E-01  0.10199101772E+01  0.10196272935E+01 0.  0.
     999903    2    3    3    0    0  0.96399755103E-01 -0.53765145203E-01 -0.65455114415E-01  0.12989722513E+00  0.20132398539E-01 0.  0.
         14    1    1    2    0    0 -0.44050733680E-02  0.11140914076E-01 -0.20818915688E-01  0.24019822819E-01  0.00000000000E+00 0.  1.
     999901    1    3    3    0    0 -0.91994681735E-01  0.42624231127E-01  0.86274030104E-01  0.89001295205E+00  0.88000000000E+00 0.  1.
        -11    1    4    4    0    0  0.54635259096E-01 -0.30133486610E-01 -0.48399101528E-01  0.78966908901E-01  0.51100000000E-03 0.  1.
         11    1    4    4    0    0  0.41764496008E-01 -0.23631658593E-01 -0.17056012887E-01  0.50930316230E-01  0.51100000000E-03 0. -1.
</event>
<event>
 8    1  0.1088021E+005  0.1043930E+01  0.7957747E-01            NaN
         13   -1    0    0    0    0  0.00000000000E+00  0.00000000000E+00  0.74505805969E-08  0.10566000000E+00  0.10566000000E+00 0.  1.
     999900   -1    0    0    0    0 -0.00000000000E+00 -0.00000000000E+00 -0.74505805969E-08  0.93827000000E+00  0.93827000000E+00 0. -1.
     999902    2    1    2    0    0 -0.10148860659E-01  0.67234098078E-02  0.19741253529E-01  0.10207368824E+01  0.10204733521E+01 0.  0.
     999903    2    3    3    0    0  0.21462960020E-01 -0.12602843262E+00 -0.97777948811E-02  0.12972973705E+00  0.19757907841E-01 0.  0.
         14    1    1    2    0    0  0.10148860659E-01 -0.67234098078E-02 -0.19741253529E-01  0.23193117579E-01  0.00000000000E+00 0. -1.
     999901    1    3    3    0    0 -0.31611820679E-01  0.13275184243E+00  0.29519048410E-01  0.89100714537E+00  0.88000000000E+00 0.  1.
        -11    1    4    4    0    0  0.94362171292E-02 -0.41857808203E-01 -0.12384711397E-01  0.44662741728E-01  0.51100000000E-03 0.  1.
         11    1    4    4    0    0  0.12026742890E-01 -0.84170624417E-01  0.26069165161E-02  0.85066995327E-01  0.51100000000E-03 0. -1.
</event>
<event>
 8    1  0.1088021E+005  0.1043930E+01  0.7957747E-01            NaN
         13   -1    0    0    0    0  0.00000000000E+00  0.00000000000E+00  0.74505805969E-08  0.10566000000E+00  0.10566000000E+00 0. -1.
     999900   -1    0    0    0    0 -0.00000000000E+00 -0.00000000000E+00 -0.74505805969E-08  0.93827000000E+00  0.93827000000E+00 0. -1.
     999902    2    1    2    0    0 -0.84389702921E-02  0.51550759508E-02  0.22567144229E-01  0.10192912698E+01  0.10189934375E+01 0.  0.
     999903    2    3    3    0    0  0.10874903067E+00  0.35011306897E-01  0.59266560681E-01  0.13026299731E+00  0.20094277106E-01 0.  0.
         14    1    1    2    0    0  0.84389702921E-02 -0.51550759508E-02 -0.22567144229E-01  0.24638730209E-01  0.00000000000E+00 0.  1.
     999901    1    3    3    0    0 -0.11718800096E+00 -0.29856230946E-01 -0.36699416452E-01  0.88902827248E+00  0.88000000000E+00 0. -1.
        -11    1    4    4    0    0  0.86857081582E-01  0.20010014787E-01  0.41492020222E-01  0.98317862954E-01  0.51100000000E-03 0. -1.
         11    1    4    4    0    0  0.21891949086E-01  0.15001292110E-01  0.17774540459E-01  0.31945134360E-01  0.51100000000E-03 0.  1.
</event>
<event>
 8    1  0.1088021E+005  0.1043930E+01  0.7957747E-01            NaN
         13   -1    0    0    0    0  0.00000000000E+00  0.00000000000E+00  0.74505805969E-08  0.10566000000E+00  0.10566000000E+00 0.  1.
     999900   -1    0    0    0    0 -0.00000000000E+00 -0.00000000000E+00 -0.74505805969E-08  0.93827000000E+00  0.93827000000E+00 0. -1.
     999902    2    1    2    0    0 -0.16851209660E-01 -0.10816798622E-01  0.11938754190E-01  0.10206169082E+01  0.10203506128E+01 0.  0.
     999903    2    3    3    0    0 -0.75243231151E-01  0.72341723053E-01  0.78252301556E-01  0.13229126153E+00  0.21970126306E-01 0.  0.
         14    1    1    2    0    0  0.16851209660E-01  0.10816798622E-01 -0.11938754190E-01  0.23313091837E-01  0.00000000000E+00 0. -1.
     999901    1    3    3    0    0  0.58392021492E-01 -0.83158521675E-01 -0.66313547367E-01  0.88832564663E+00  0.88000000000E+00 0. -1.
        -11    1    4    4    0    0 -0.59835468300E-01  0.43561514331E-01  0.53921670307E-01  0.91573448374E-01  0.51100000000E-03 0. -1.
         11    1    4    4    0    0 -0.15407762852E-01  0.28780208722E-01  0.24330631249E-01  0.40717813156E-01  0.51100000000E-03 0.  1.
</event>
<event>
 8    1  0.1088021E+005  0.1043930E+01  0.7957747E-01            NaN
         13   -1    0    0    0    0  0.00000000000E+00  0.00000000000E+00  0.74505805969E-08  0.10566000000E+00  0.10566000000E+00 0. -1.
     999900   -1    0    0    0    0 -0.00000000000E+00 -0.00000000000E+00 -0.74505805969E-08  0.93827000000E+00  0.93827000000E+00 0.  1.
     999902    2    1    2    0    0 -0.13365302203E-01 -0.12289397592E-01  0.23438760997E-02  0.10256227787E+01  0.10254593750E+01 0.  0.
     999903    2    3    3    0    0 -0.12397269670E-01 -0.13503581093E+00  0.37721447722E-02  0.13710172717E+00  0.19856786947E-01 0.  0.
         14    1    1    2    0    0  0.13365302203E-01  0.12289397592E-01 -0.23438760997E-02  0.18307221288E-01  0.00000000000E+00 0.  1.
     999901    1    3    3    0    0 -0.96803253283E-03  0.12274641334E+00 -0.14282686725E-02  0.88852105154E+00  0.88000000000E+00 0. -1.
        -11    1    4    4    0    0 -0.67091363257E-02 -0.64231589120E-01 -0.80766501697E-02  0.65086119489E-01  0.51100000000E-03 0.  1.
         11    1    4    4    0    0 -0.56881333440E-02 -0.70804221814E-01  0.11848794942E-01  0.72015607684E-01  0.51100000000E-03 0. -1.
</event>
<event>
 8    1  0.1088021E+005  0.1043930E+01  0.7957747E-01            NaN
         13   -1    0    0    0    0  0.00000000000E+00  0.00000000000E+00  0.74505805969E-08  0.10566000000E+00  0.10566000000E+00 0.  1.
     999900   -1    0    0    0    0 -0.00000000000E+00 -0.00000000000E+00 -0.74505805969E-08  0.93827000000E+00  0.93827000000E+00 0.  1.
     999902    2    1    2    0    0  0.14898948267E-01 -0.58819962350E-02 -0.17417237832E-01  0.10202670181E+01  0.10199925742E+01 0.  0.
     999903    2    3    3    0    0  0.12186105910E+00  0.22616835257E-01 -0.43478451727E-01  0.13294956451E+00  0.20580864373E-01 0.  0.
         14    1    1    2    0    0 -0.14898948267E-01  0.58819962350E-02  0.17417237832E-01  0.23662981910E-01  0.00000000000E+00 0. -1.
     999901    1    3    3    0    0 -0.10696211083E+00 -0.28498831492E-01  0.26061213895E-01  0.88731745358E+00  0.88000000000E+00 0. -1.
        -11    1    4    4    0    0  0.28495562786E-01  0.13532735754E-01 -0.71273882728E-02  0.32344904082E-01  0.51100000000E-03 0. -1.
         11    1    4    4    0    0  0.93365496313E-01  0.90840995029E-02 -0.36351063454E-01  0.10060466043E+00  0.51100000000E-03 0.  1.
</event>
<event>
 8    1  0.1088021E+005  0.1043930E+01  0.7957747E-01            NaN
         13   -1    0    0    0    0  0.00000000000E+00  0.00000000000E+00  0.74505805969E-08  0.10566000000E+00  0.10566000000E+00 0. -1.
     999900   -1    0    0    0    0 -0.00000000000E+00 -0.00000000000E+00 -0.74505805969E-08  0.93827000000E+00  0.93827000000E+00 0. -1.
     999902    2    1    2    0    0  0.10762033580E-01 -0.18278657582E-01 -0.79501101291E-02  0.10212775180E+01  0.10210262650E+01 0.  0.
     999903    2    3    3    0    0 -0.39603865849E-01 -0.57083635221E-01 -0.11184924591E+00  0.13288707426E+00  0.17936362306E-01 0.  0.
         14    1    1    2    0    0 -0.10762033580E-01  0.18278657582E-01  0.79501101291E-02  0.22652482002E-01  0.00000000000E+00 0. -1.
     999901    1    3    3    0    0  0.50365899429E-01  0.38804977639E-01  0.10389913578E+00  0.88839044374E+00  0.88000000000E+00 0.  1.
        -11    1    4    4    0    0 -0.44003256784E-02 -0.19390811664E-01 -0.36644331243E-01  0.41694538927E-01  0.51100000000E-03 0.  1.
         11    1    4    4    0    0 -0.35203540171E-01 -0.37692823556E-01 -0.75204914671E-01  0.91192535329E-01  0.51100000000E-03 0. -1.
</event>
<event>
 8    1  0.1088021E+005  0.1043930E+01  0.7957747E-01            NaN
         13   -1    0    0    0    0  0.00000000000E+00  0.00000000000E+00  0.74505805969E-08  0.10566000000E+00  0.10566000000E+00 0. -1.
     999900   -1    0    0    0    0 -0.00000000000E+00 -0.00000000000E+00 -0.74505805969E-08  0.93827000000E+00  0.93827000000E+00 0.  1.
     999902    2    1    2    0    0  0.66963350748E-02  0.83977778561E-02 -0.21272064739E-01  0.10201000962E+01  0.10198217207E+01 0.  0.
     999903    2    3    3    0    0  0.20093265086E-01  0.28719630146E-01 -0.12715236862E+00  0.13341915350E+00  0.20109431080E-01 0.  0.
         14    1    1    2    0    0 -0.66963350748E-02 -0.83977778561E-02  0.21272064739E-01  0.23829903789E-01  0.00000000000E+00 0.  1.
     999901    1    3    3    0    0 -0.13396930012E-01 -0.20321852290E-01  0.10588030388E+00  0.88668094271E+00  0.88000000000E+00 0. -1.
        -11    1    4    4    0    0  0.43596894501E-02  0.21824747404E-01 -0.85729132998E-01  0.88572410247E-01  0.51100000000E-03 0. -1.
         11    1    4    4    0    0  0.15733575636E-01  0.68948827428E-02 -0.41423235620E-01  0.44846743255E-01  0.51100000000E-03 0.  1.
</event>
<event>
 8    1  0.1088021E+005  0.1043930E+01  0.7957747E-01            NaN
         13   -1    0    0    0    0  0.00000000000E+00  0.00000000000E+00  0.74505805969E-08  0.10566000000E+00  0.10566000000E+00 0.  1.
     999900   -1    0    0    0    0 -0.00000000000E+00 -0.00000000000E+00 -0.74505805969E-08  0.93827000000E+00  0.93827000000E+00 0. -1.
     999902    2    1    2    0    0 -0.25459710934E-01  0.72937861937E-02 -0.12992313279E-01  0.10144309085E+01  0.10140019091E+01 0.  0.
     999903    2    3    3    0    0 -0.43860974796E-01 -0.11565282008E+00  0.66314888022E-02  0.12547670934E+00  0.20026683208E-01 0.  0.
         14    1    1    2    0    0  0.25459710934E-01 -0.72937861937E-02  0.12992313279E-01  0.29499091550E-01  0.00000000000E+00 0. -1.
     999901    1    3    3    0    0  0.18401263861E-01  0.12294660628E+00 -0.19623802082E-01  0.88895419911E+00  0.88000000000E+00 0. -1.
        -11    1    4    4    0    0 -0.11055987210E-01 -0.57284790499E-01  0.30291534833E-02  0.58422760698E-01  0.51100000000E-03 0.  1.
         11    1    4    4    0    0 -0.32804987585E-01 -0.58368029583E-01  0.36023353189E-02  0.67053948643E-01  0.51100000000E-03 0. -1.
</event>
<event>
 8    1  0.1088021E+005  0.1043930E+01  0.7957747E-01            NaN
         13   -1    0    0    0    0  0.00000000000E+00  0.00000000000E+00  0.74505805969E-08  0.10566000000E+00  0.10566000000E+00 0. -1.
     999900   -1    0    0    0    0 -0.00000000000E+00 -0.00000000000E+00 -0.74505805969E-08  0.93827000000E+00  0.93827000000E+00 0.  1.
     999902    2    1    2    0    0  0.11883494371E-01  0.18900995777E-01 -0.26246862495E-02  0.10214499186E+01  0.10212025177E+01 0.  0.
     999903    2    3    3    0    0 -0.12416005744E+00 -0.29493611435E-01 -0.99183260594E-02  0.12965224923E+00  0.20633457254E-01 0.  0.
         14    1    1    2    0    0 -0.11883494371E-01 -0.18900995777E-01  0.26246862495E-02  0.22480081355E-01  0.00000000000E+00 0. -1.
     999901    1    3    3    0    0  0.13604355181E+00  0.48394607212E-01  0.72936398098E-02  0.89179766942E+00  0.88000000000E+00 0. -1.
        -11    1    4    4    0    0 -0.73744023104E-01 -0.13515434973E-01 -0.15199870563E-01  0.76499314456E-01  0.51100000000E-03 0.  1.
         11    1    4    4    0    0 -0.50416034338E-01 -0.15978176462E-01  0.52815445036E-02  0.53152934771E-01  0.51100000000E-03 0. -1.
</event>
<event>
 8    1  0.1088021E+005  0.1043930E+01  0.7957747E-01            NaN
         13   -1    0    0    0    0  0.00000000000E+00  0.00000000000E+00  0.74505805969E-08  0.10566000000E+00  0.10566000000E+00 0.  1.
     999900   -1    0    0    0    0 -0.00000000000E+00 -0.00000000000E+00 -0.74505805969E-08  0.93827000000E+00  0.93827000000E+00 0.  1.
     999902    2    1    2    0    0  0.13769890552E-01 -0.19115748988E-01 -0.26544191502E-02  0.10202220333E+01  0.10199465327E+01 0.  0.
     999903    2    3    3    0    0  0.89817647237E-01 -0.95177915607E-01  0.15835206661E-01  0.13348048088E+00  0.20981888157E-01 0.  0.
         14    1    1    2    0    0 -0.13769890552E-01  0.19115748988E-01  0.26544191502E-02  0.23707966725E-01  0.00000000000E+00 0. -1.
     999901    1    3    3    0    0 -0.76047756684E-01  0.76062166620E-01 -0.18489625811E-01  0.88674155240E+00  0.88000000000E+00 0.  1.
        -11    1    4    4    0    0  0.22038126439E-01 -0.11602705226E-01  0.38921680165E-02  0.25213327396E-01  0.51100000000E-03 0.  1.
         11    1    4    4    0    0  0.67779520798E-01 -0.83575210381E-01  0.11943038644E-01  0.10826715348E+00  0.51100000000E-03 0. -1.
</event>
<event>
 8    1  0.1088021E+005  0.1043930E+01  0.7957747E-01            NaN
         13   -1    0    0    0    0  0.00000000000E+00  0.00000000000E+00  0.74505805969E-08  0.10566000000E+00  0.10566000000E+00 0.  1.
     999900   -1    0    0    0    0 -0.00000000000E+00 -0.00000000000E+00 -0.74505805969E-08  0.93827000000E+00  0.93827000000E+00 0.  1.
     999902    2    1    2    0    0  0.22153597024E-01 -0.93219093248E-02  0.23791396967E-02  0.10197775641E+01  0.10194915105E+01 0.  0.
     999903    2    3    3    0    0 -0.11822263312E+00  0.41570061904E-01 -0.74536734787E-02  0.12714540977E+00  0.20142913099E-01 0.  0.
         14    1    1    2    0    0 -0.22153597024E-01  0.93219093248E-02 -0.23791396967E-02  0.24152435907E-01  0.00000000000E+00 0.  1.
     999901    1    3    3    0    0  0.14037623014E+00 -0.50891971229E-01  0.98328131755E-02  0.89263215433E+00  0.88000000000E+00 0. -1.
        -11    1    4    4    0    0 -0.76138981068E-01  0.23238934070E-01  0.44145569524E-02  0.79730432891E-01  0.51100000000E-03 0.  1.
         11    1    4    4    0    0 -0.42083652049E-01  0.18331127834E-01 -0.11868230431E-01  0.47414976875E-01  0.51100000000E-03 0. -1.
</event>
<event>
 8    1  0.1088021E+005  0.1043930E+01  0.7957747E-01            NaN
         13   -1    0    0    0    0  0.00000000000E+00  0.00000000000E+00  0.74505805969E-08  0.10566000000E+00  0.10566000000E+00 0. -1.
     999900   -1    0    0    0    0 -0.00000000000E+00 -0.00000000000E+00 -0.74505805969E-08  0.93827000000E+00  0.93827000000E+00 0.  1.
     999902    2    1    2    0    0  0.85226891531E-02 -0.12315532033E-01 -0.18501535971E-01  0.10201263156E+01  0.10198485595E+01 0.  0.
     999903    2    3    3    0    0  0.30079329195E-01  0.11107277085E+00 -0.58078488322E-01  0.13037595890E+00  0.19566639548E-01 0.  0.
         14    1    1    2    0    0 -0.85226891531E-02  0.12315532033E-01  0.18501535971E-01  0.23803684440E-01  0.00000000000E+00 0. -1.
     999901    1    3    3    0    0 -0.21556640042E-01 -0.12338830289E+00  0.39576952350E-01  0.88975035666E+00  0.88000000000E+00 0. -1.
        -11    1    4    4    0    0  0.91446713906E-02  0.27609862701E-01 -0.57130990766E-02  0.29645069662E-01  0.51100000000E-03 0. -1.
         11    1    4    4    0    0  0.20934657804E-01  0.83462908153E-01 -0.52365389245E-01  0.10073088924E+00  0.51100000000E-03 0.  1.
</event>
<event>
 8    1  0.1088021E+005  0.1043930E+01  0.7957747E-01            NaN
         13   -1    0    0    0    0  0.00000000000E+00  0.00000000000E+00  0.74505805969E-08  0.10566000000E+00  0.10566000000E+00 0. -1.
     999900   -1    0    0    0    0 -0.00000000000E+00 -0.00000000000E+00 -0.74505805969E-08  0.93827000000E+00  0.93827000000E+00 0. -1.
     999902    2    1    2    0    0 -0.14030917346E-01 -0.17797037747E-01 -0.84455022527E-02  0.10197447214E+01  0.10194578800E+01 0.  0.
     999903    2    3    3    0    0  0.39869290224E-01  0.11919103443E+00  0.47928883242E-02  0.12741842495E+00  0.20406377597E-01 0.  0.
         14    1    1    2    0    0  0.14030917346E-01  0.17797037747E-01  0.84455022527E-02  0.24185278631E-01  0.00000000000E+00 0.  1.
     999901    1    3    3    0    0 -0.53900207569E-01 -0.13698807218E+00 -0.13238390577E-01  0.89232629642E+00  0.88000000000E+00 0.  1.
        -11    1    4    4    0    0  0.17706200337E-01  0.53941024434E-01 -0.79750632529E-02  0.57332420167E-01  0.51100000000E-03 0.  1.
         11    1    4    4    0    0  0.22163089887E-01  0.65250009998E-01  0.12767951577E-01  0.70086004784E-01  0.51100000000E-03 0. -1.
</event>
<event>
 8    1  0.1088021E+005  0.1043930E+01  0.7957747E-01            NaN
         13   -1    0    0    0    0  0.00000000000E+00  0.00000000000E+00  0.74505805969E-08  0.10566000000E+00  0.10566000000E+00 0. -1.
     999900   -1    0    0    0    0 -0.00000000000E+00 -0.00000000000E+00 -0.74505805969E-08  0.93827000000E+00  0.93827000000E+00 0.  1.
     999902    2    1    2    0    0  0.45505854761E-02 -0.21844197051E-01 -0.70630074929E-02  0.10205256660E+01  0.10202572579E+01 0.  0.
     999903    2    3    3    0    0 -0.56251525242E-01 -0.32507894821E-01  0.11153276727E+00  0.13042703729E+00  0.18725826155E-01 0.  0.
         14    1    1    2    0    0 -0.45505854761E-02  0.21844197051E-01  0.70630074929E-02  0.23404333954E-01  0.00000000000E+00 0. -1.
     999901    1    3    3    0    0  0.60802110718E-01  0.10663697770E-01 -0.11859577476E+00  0.89009862875E+00  0.88000000000E+00 0.  1.
        -11    1    4    4    0    0 -0.55809491555E-01 -0.33810298127E-01  0.11118467696E+00  0.12891907973E+00  0.51100000000E-03 0.  1.
         11    1    4    4    0    0 -0.44203368640E-03  0.13024033058E-02  0.34809030898E-03  0.15079575638E-02  0.51100000000E-03 0. -1.
</event>
<event>
 8    1  0.1088021E+005  0.1043930E+01  0.7957747E-01            NaN
         13   -1    0    0    0    0  0.00000000000E+00  0.00000000000E+00  0.74505805969E-08  0.10566000000E+00  0.10566000000E+00 0. -1.
     999900   -1    0    0    0    0 -0.00000000000E+00 -0.00000000000E+00 -0.74505805969E-08  0.93827000000E+00  0.93827000000E+00 0.  1.
     999902    2    1    2    0    0 -0.47185759378E-02  0.20977440210E-01 -0.74611391001E-02  0.10211706821E+01  0.10209170267E+01 0.  0.
     999903    2    3    3    0    0  0.38275297457E-01  0.18493628111E-01  0.12207779301E+00  0.13064556876E+00  0.18927874014E-01 0.  0.
         14    1    1    2    0    0  0.47185759378E-02 -0.20977440210E-01  0.74611391001E-02  0.22759317945E-01  0.00000000000E+00 0. -1.
     999901    1    3    3    0    0 -0.42993873394E-01  0.24838120991E-02 -0.12953893211E+00  0.89052511329E+00  0.88000000000E+00 0.  1.
        -11    1    4    4    0    0  0.20257267972E-01  0.31639715941E-03  0.65092206988E-01  0.68174141317E-01  0.51100000000E-03 0. -1.
         11    1    4    4    0    0  0.18018029484E-01  0.18177230952E-01  0.56985586024E-01  0.62471427445E-01  0.51100000000E-03 0.  1.
</event>
<event>
 8    1  0.1088021E+005  0.1043930E+01  0.7957747E-01            NaN
         13   -1    0    0    0    0  0.00000000000E+00  0.00000000000E+00  0.74505805969E-08  0.10566000000E+00  0.10566000000E+00 0.  1.
     999900   -1    0    0    0    0 -0.00000000000E+00 -0.00000000000E+00 -0.74505805969E-08  0.93827000000E+00  0.93827000000E+00 0. -1.
     999902    2    1    2    0    0  0.54624611927E-02  0.22833726917E-01 -0.54326137085E-02  0.10198316420E+01  0.10195468832E+01 0.  0.
     999903    2    3    3    0    0  0.10922249313E+00  0.40169480863E-01 -0.58848197493E-01  0.13195783497E+00  0.20164812549E-01 0.  0.
         14    1    1    2    0    0 -0.54624611927E-02 -0.22833726917E-01  0.54326137085E-02  0.24098358012E-01  0.00000000000E+00 0. -1.
     999901    1    3    3    0    0 -0.10376003193E+00 -0.17335753946E-01  0.53415583785E-01  0.88787380701E+00  0.88000000000E+00 0.  1.
        -11    1    4    4    0    0  0.42770861103E-01  0.25382628877E-01 -0.29447163495E-01  0.57801565439E-01  0.51100000000E-03 0. -1.
         11    1    4    4    0    0  0.66451632023E-01  0.14786851986E-01 -0.29401033998E-01  0.74156269535E-01  0.51100000000E-03 0.  1.
</event>
<event>
 8    1  0.1088021E+005  0.1043930E+01  0.7957747E-01            NaN
         13   -1    0    0    0    0  0.00000000000E+00  0.00000000000E+00  0.74505805969E-08  0.10566000000E+00  0.10566000000E+00 0. -1.
     999900   -1    0    0    0    0 -0.00000000000E+00 -0.00000000000E+00 -0.74505805969E-08  0.93827000000E+00  0.93827000000E+00 0. -1.
     999902    2    1    2    0    0  0.16542195693E-01 -0.72878710646E-03  0.16186387109E-01  0.10207745579E+01  0.10205118930E+01 0.  0.
     999903    2    3    3    0    0  0.10103704508E+00 -0.83004483546E-01  0.12414489348E-01  0.13289906160E+00  0.20243820357E-01 0.  0.
         14    1    1    2    0    0 -0.16542195693E-01  0.72878710646E-03 -0.16186387109E-01  0.23155442052E-01  0.00000000000E+00 0. -1.
     999901    1    3    3    0    0 -0.84494849384E-01  0.82275696439E-01  0.37718977609E-02  0.88787549634E+00  0.88000000000E+00 0. -1.
        -11    1    4    4    0    0  0.17370247213E-01 -0.24016063254E-01 -0.94575317210E-03  0.29658933772E-01  0.51100000000E-03 0.  1.
         11    1    4    4    0    0  0.83666797863E-01 -0.58988420292E-01  0.13360242520E-01  0.10324012783E+00  0.51100000000E-03 0. -1.
</event>
<event>
 8    1  0.1088021E+005  0.1043930E+01  0.7957747E-01            NaN
         13   -1    0    0    0    0  0.00000000000E+00  0.00000000000E+00  0.74505805969E-08  0.10566000000E+00  0.10566000000E+00 0. -1.
     999900   -1    0    0    0    0 -0.00000000000E+00 -0.00000000000E+00 -0.74505805969E-08  0.93827000000E+00  0.93827000000E+00 0.  1.
     999902    2    1    2    0    0 -0.23661594743E-01  0.22758490181E-02  0.41192987543E-02  0.10198049264E+01  0.10195195284E+01 0.  0.
     999903    2    3    3    0    0 -0.88536038642E-01 -0.47976762567E-01  0.83547730448E-01  0.13242513498E+00  0.20391008466E-01 0.  0.
         14    1    1    2    0    0  0.23661594743E-01 -0.22758490181E-02 -0.41192987543E-02  0.24125073611E-01  0.00000000000E+00 0. -1.
     999901    1    3    3    0    0  0.64874443899E-01  0.50252611585E-01 -0.79428431693E-01  0.88737979141E+00  0.88000000000E+00 0.  1.
        -11    1    4    4    0    0 -0.34842095712E-01 -0.26910142857E-01  0.26986190281E-01  0.51639548885E-01  0.51100000000E-03 0. -1.
         11    1    4    4    0    0 -0.53693942930E-01 -0.21066619710E-01  0.56561540167E-01  0.80785586093E-01  0.51100000000E-03 0.  1.
</event>
<event>
 8    1  0.1088021E+005  0.1043930E+01  0.7957747E-01            NaN
         13   -1    0    0    0    0  0.00000000000E+00  0.00000000000E+00  0.74505805969E-08  0.10566000000E+00  0.10566000000E+00 0.  1.
     999900   -1    0    0    0    0 -0.00000000000E+00 -0.00000000000E+00 -0.74505805969E-08  0.93827000000E+00  0.93827000000E+00 0.  1.
     999902    2    1    2    0    0  0.97310688920E-02 -0.18825392087E-01 -0.10854512575E-01  0.10201201379E+01  0.10198422360E+01 0.  0.
     999903    2    3    3    0    0 -0.76507674538E-01  0.60697297733E-01  0.79773531607E-01  0.12772200846E+00  0.20285681796E-01 0.  0.
         14    1    1    2    0    0 -0.97310688920E-02  0.18825392087E-01  0.10854512575E-01  0.23809862080E-01  0.00000000000E+00 0. -1.
     999901    1    3    3    0    0  0.86238743430E-01 -0.79522689819E-01 -0.90628044182E-01  0.89239812946E+00  0.88000000000E+00 0. -1.
        -11    1    4    4    0    0 -0.19693098801E-01  0.25963492568E-01  0.32726418315E-01  0.46186585319E-01  0.51100000000E-03 0. -1.
         11    1    4    4    0    0 -0.56814575737E-01  0.34733805165E-01  0.47047113292E-01  0.81535423145E-01  0.51100000000E-03 0.  1.
</event>
<event>
 8    1  0.1088021E+005  0.1043930E+01  0.7957747E-01            NaN
         13   -1    0    0    0    0  0.00000000000E+00  0.00000000000E+00  0.74505805969E-08  0.10566000000E+00  0.10566000000E+00 0.  1.
     999900   -1    0    0    0    0 -0.00000000000E+00 -0.00000000000E+00 -0.74505805969E-08  0.93827000000E+00  0.93827000000E+00 0. -1.
     999902    2    1    2    0    0 -0.18540196907E-01 -0.20742628222E-02 -0.15435417981E-01  0.10197164997E+01  0.10194289805E+01 0.  0.
     999903    2    3    3    0    0  0.62147533967E-01 -0.11137056013E+00 -0.50773992392E-02  0.12923153125E+00  0.20230942763E-01 0.  0.
         14    1    1    2    0    0  0.18540196907E-01  0.20742628222E-02  0.15435417981E-01  0.24213500281E-01  0.00000000000E+00 0. -1.
     999901    1    3    3    0    0 -0.80687730875E-01  0.10929629730E+00 -0.10358018742E-01  0.89048496847E+00  0.88000000000E+00 0.  1.
        -11    1    4    4    0    0  0.16387124257E-01 -0.19111413312E-01 -0.73163461972E-02  0.26221632346E-01  0.51100000000E-03 0. -1.
         11    1    4    4    0    0  0.45760409710E-01 -0.92259146814E-01  0.22389469579E-02  0.10300989890E+00  0.51100000000E-03 0.  1.
</event>
<event>
 8    1  0.1088021E+005  0.1043930E+01  0.7957747E-01            NaN
         13   -1    0    0    0    0  0.00000000000E+00  0.00000000000E+00  0.74505805969E-08  0.10566000000E+00  0.10566000000E+00 0.  1.
     999900   -1    0    0    0    0 -0.00000000000E+00 -0.00000000000E+00 -0.74505805969E-08  0.93827000000E+00  0.93827000000E+00 0. -1.
     999902    2    1    2    0    0 -0.16636444802E-01 -0.14287343717E-01  0.17745840155E-02  0.10219288947E+01  0.10216920364E+01 0.  0.
     999903    2    3    3    0    0 -0.79707053190E-01  0.10274277558E+00 -0.11007107007E-01  0.13185175080E+00  0.18826458054E-01 0.  0.
         14    1    1    2    0    0  0.16636444802E-01  0.14287343717E-01 -0.17745840155E-02  0.22001105303E-01  0.00000000000E+00 0. -1.
     999901    1    3    3    0    0  0.63070608389E-01 -0.11703011929E+00  0.12781691023E-01  0.89007714390E+00  0.88000000000E+00 0. -1.
        -11    1    4    4    0    0 -0.39776322290E-01  0.54856349141E-01  0.34347766498E-02  0.67848608443E-01  0.51100000000E-03 0. -1.
         11    1    4    4    0    0 -0.39930730901E-01  0.47886426435E-01 -0.14441883657E-01  0.64003142356E-01  0.51100000000E-03 0.  1.
</event>
<event>
 8    1  0.1088021E+005  0.1043930E+01  0.7957747E-01            NaN
         13   -1    0    0    0    0  0.00000000000E+00  0.00000000000E+00  0.74505805969E-08  0.10566000000E+00  0.10566000000E+00 0.  1.
     999900   -1    0    0    0    0 -0.00000000000E+00 -0.00000000000E+00 -0.74505805969E-08  0.93827000000E+00  0.93827000000E+00 0.  1.
     999902    2    1    2    0    0 -0.33322731051E-02 -0.17692982766E-01 -0.14777674743E-01  0.10206378263E+01  0.10203720141E+01 0.  0.
     999903    2    3    3    0    0 -0.15529364428E-01  0.41799708262E-01 -0.12262134681E+00  0.13197680720E+00  0.19836990086E-01 0.  0.
         14    1    1    2    0    0  0.33322731051E-02  0.17692982766E-01  0.14777674743E-01  0.23292173665E-01  0.00000000000E+00 0.  1.
     999901    1    3    3    0    0  0.12197091323E-01 -0.59492691028E-01  0.10784367207E+00  0.88866101913E+00  0.88000000000E+00 0. -1.
        -11    1    4    4    0    0 -0.82923660141E-02  0.57358784080E-02 -0.44454276701E-01  0.45586264085E-01  0.51100000000E-03 0. -1.
         11    1    4    4    0    0 -0.72369984141E-02  0.36063829854E-01 -0.78167070108E-01  0.86390543117E-01  0.51100000000E-03 0.  1.
</event>
<event>
 8    1  0.1088021E+005  0.1043930E+01  0.7957747E-01            NaN
         13   -1    0    0    0    0  0.00000000000E+00  0.00000000000E+00  0.74505805969E-08  0.10566000000E+00  0.10566000000E+00 0.  1.
     999900   -1    0    0    0    0 -0.00000000000E+00 -0.00000000000E+00 -0.74505805969E-08  0.93827000000E+00  0.93827000000E+00 0. -1.
     999902    2    1    2    0    0 -0.10299534064E-01  0.20396887115E-01  0.26274305860E-02  0.10209296348E+01  0.10206705161E+01 0.  0.
     999903    2    3    3    0    0 -0.83376700495E-01 -0.73075587582E-01  0.66225720608E-01  0.13069252133E+00  0.20074196761E-01 0.  0.
         14    1    1    2    0    0  0.10299534064E-01 -0.20396887115E-01 -0.26274305860E-02  0.23000365158E-01  0.00000000000E+00 0. -1.
     999901    1    3    3    0    0  0.73077166431E-01  0.93472474697E-01 -0.63598290022E-01  0.89023711351E+00  0.88000000000E+00 0. -1.
        -11    1    4    4    0    0 -0.55046207619E-01 -0.60115425433E-01  0.47772274974E-01  0.94479631272E-01  0.51100000000E-03 0. -1.
         11    1    4    4    0    0 -0.28330492876E-01 -0.12960162149E-01  0.18453445634E-01  0.36212890058E-01  0.51100000000E-03 0.  1.
</event>
<event>
 8    1  0.1088021E+005  0.1043930E+01  0.7957747E-01            NaN
         13   -1    0    0    0    0  0.00000000000E+00  0.00000000000E+00  0.74505805969E-08  0.10566000000E+00  0.10566000000E+00 0.  1.
     999900   -1    0    0    0    0 -0.00000000000E+00 -0.00000000000E+00 -0.74505805969E-08  0.93827000000E+00  0.93827000000E+00 0. -1.
     999902    2    1    2    0    0  0.36335829312E-02  0.21633980382E-01 -0.12907131003E-01  0.10184775726E+01  0.10181594864E+01 0.  0.
     999903    2    3    3    0    0 -0.11770221119E+00 -0.32852332572E-01  0.29985717586E-01  0.12744955409E+00  0.20277063453E-01 0.  0.
         14    1    1    2    0    0 -0.36335829312E-02 -0.21633980382E-01  0.12907131003E-01  0.25452427444E-01  0.00000000000E+00 0. -1.
     999901    1    3    3    0    0  0.12133579413E+00  0.54486312954E-01 -0.42892848589E-01  0.89102801847E+00  0.88000000000E+00 0. -1.
        -11    1    4    4    0    0 -0.16752338535E-01 -0.97290868529E-02 -0.82873403267E-03  0.19397007462E-01  0.51100000000E-03 0. -1.
         11    1    4    4    0    0 -0.10094987266E+00 -0.23123245720E-01  0.30814451619E-01  0.10805254663E+00  0.51100000000E-03 0.  1.
</event>
<event>
 7    1  0.1088021E+005  0.1043930E+01  0.7957747E-01            NaN
         13   -1    0    0    0    0  0.00000000000E+00  0.00000000000E+00  0.74505805969E-08  0.10566000000E+00  0.10566000000E+00 0. -1.
     999900   -1    0    0    0    0 -0.00000000000E+00 -0.00000000000E+00 -0.74505805969E-08  0.93827000000E+00  0.93827000000E+00 0.  1.
     999902    2    1    2    0    0 -0.46822494858E-02 -0.22142920895E-01 -0.31783190970E-02  0.10210753699E+01  0.10208195614E+01 0.  0.
         14    1    1    2    0    0  0.46822494858E-02  0.22142920895E-01  0.31783190970E-02  0.22854630128E-01  0.00000000000E+00 0. -1.
     999901    1    3    3    0    0  0.10041347148E+00  0.16640508322E-01 -0.92111450880E-02  0.88591456527E+00  0.88000000000E+00 0.  1.
        -11    1    3    3    0    0 -0.97053606260E-02 -0.77596521762E-02  0.29611474464E-01  0.32117079065E-01  0.51100000000E-03 0. -1.
         11    1    3    3    0    0 -0.95390360335E-01 -0.31023777041E-01 -0.23578648473E-01  0.10304372553E+00  0.51100000000E-03 0.  1.
</event>
<event>
 8    1  0.1088021E+005  0.1043930E+01  0.7957747E-01            NaN
         13   -1    0    0    0    0  0.00000000000E+00  0.00000000000E+00  0.74505805969E-08  0.10566000000E+00  0.10566000000E+00 0.  1.
     999900   -1    0    0    0    0 -0.00000000000E+00 -0.00000000000E+00 -0.74505805969E-08  0.93827000000E+00  0.93827000000E+00 0.  1.
     999902    2    1    2    0    0  0.19282475282E-01  0.16903381494E-02 -0.15135530448E-01  0.10193585658E+01  0.10190623780E+01 0.  0.
     999903    2    3    3    0    0  0.41070565228E-01  0.10394917255E-01  0.11993537981E+00  0.12874381107E+00  0.19890397871E-01 0.  0.
         14    1    1    2    0    0 -0.19282475282E-01 -0.16903381494E-02  0.15135530448E-01  0.24571434187E-01  0.00000000000E+00 0.  1.
     999901    1    3    3    0    0 -0.21788089946E-01 -0.87045791055E-02 -0.13507091026E+00  0.89061475474E+00  0.88000000000E+00 0.  1.
        -11    1    4    4    0    0  0.38443449460E-01  0.29462961897E-02  0.93206538840E-01  0.10086773256E+00  0.51100000000E-03 0.  1.
         11    1    4    4    0    0  0.26271157675E-02  0.74486210652E-02  0.26728840969E-01  0.27876078518E-01  0.51100000000E-03 0. -1.
</event>
<event>
 8    1  0.1088021E+005  0.1043930E+01  0.7957747E-01            NaN
         13   -1    0    0    0    0  0.00000000000E+00  0.00000000000E+00  0.74505805969E-08  0.10566000000E+00  0.10566000000E+00 0. -1.
     999900   -1    0    0    0    0 -0.00000000000E+00 -0.00000000000E+00 -0.74505805969E-08  0.93827000000E+00  0.93827000000E+00 0. -1.
     999902    2    1    2    0    0  0.40545086377E-02 -0.71857823697E-02  0.20057515665E-01  0.10222417902E+01  0.10220116923E+01 0.  0.
     999903    2    3    3    0    0  0.11471195549E+00 -0.42695574308E-01  0.51531299435E-01  0.13404326797E+00  0.18176305135E-01 0.  0.
         14    1    1    2    0    0 -0.40545086377E-02  0.71857823697E-02 -0.20057515665E-01  0.21688209774E-01  0.00000000000E+00 0.  1.
     999901    1    3    3    0    0 -0.11065744686E+00  0.35509791938E-01 -0.31473783769E-01  0.88819852225E+00  0.88000000000E+00 0. -1.
        -11    1    4    4    0    0  0.49004446529E-01 -0.18992027954E-01  0.31905322600E-01  0.61484499157E-01  0.51100000000E-03 0. -1.
         11    1    4    4    0    0  0.65707508966E-01 -0.23703546354E-01  0.19625976835E-01  0.72558768815E-01  0.51100000000E-03 0.  1.
</event>
<event>
 8    1  0.1088021E+005  0.1043930E+01  0.7957747E-01            NaN
         13   -1    0    0    0    0  0.00000000000E+00  0.00000000000E+00  0.74505805969E-08  0.10566000000E+00  0.10566000000E+00 0.  1.
     999900   -1    0    0    0    0 -0.00000000000E+00 -0.00000000000E+00 -0.74505805969E-08  0.93827000000E+00  0.93827000000E+00 0. -1.
     999902    2    1    2    0    0  0.32169156819E-02 -0.18580457897E-01  0.15675123808E-01  0.10194087548E+01  0.10191137904E+01 0.  0.
     999903    2    3    3    0    0  0.13606128759E-01  0.10597210619E+00  0.69770365470E-01  0.12893271794E+00  0.18453396052E-01 0.  0.
         14    1    1    2    0    0 -0.32169156819E-02  0.18580457897E-01 -0.15675123808E-01  0.24521245249E-01  0.00000000000E+00 0.  1.
     999901    1    3    3    0    0 -0.10389213078E-01 -0.12455256409E+00 -0.54095241663E-01  0.89047603681E+00  0.88000000000E+00 0.  1.
        -11    1    4    4    0    0 -0.44534853869E-02  0.24092577875E-01  0.13882592160E-01  0.28165108322E-01  0.51100000000E-03 0.  1.
         11    1    4    4    0    0  0.18059614146E-01  0.81879528318E-01  0.55887773310E-01  0.10076760961E+00  0.51100000000E-03 0. -1.
</event>
<event>
 8    1  0.1088021E+005  0.1043930E+01  0.7957747E-01            NaN
         13   -1    0    0    0    0  0.00000000000E+00  0.00000000000E+00  0.74505805969E-08  0.10566000000E+00  0.10566000000E+00 0.  1.
     999900   -1    0    0    0    0 -0.00000000000E+00 -0.00000000000E+00 -0.74505805969E-08  0.93827000000E+00  0.93827000000E+00 0.  1.
     999902    2    1    2    0    0 -0.87952076758E-03 -0.36232555125E-02 -0.29260926878E-01  0.10144324852E+01  0.10140035324E+01 0.  0.
     999903    2    3    3    0    0 -0.32637432710E-01 -0.99792809225E-01  0.62896779760E-01  0.12384268573E+00  0.18899712125E-01 0.  0.
         14    1    1    2    0    0  0.87952076758E-03  0.36232555125E-02  0.29260926878E-01  0.29497514795E-01  0.00000000000E+00 0.  1.
     999901    1    3    3    0    0  0.31757911942E-01  0.96169553712E-01 -0.92157706638E-01  0.89058979947E+00  0.88000000000E+00 0.  1.
        -11    1    4    4    0    0 -0.19462270492E-02 -0.11305767969E-01  0.14255076346E-01  0.18305095239E-01  0.51100000000E-03 0.  1.
         11    1    4    4    0    0 -0.30691205661E-01 -0.88487041255E-01  0.48641703414E-01  0.10553759049E+00  0.51100000000E-03 0. -1.
</event>
<event>
 8    1  0.1088021E+005  0.1043930E+01  0.7957747E-01            NaN
         13   -1    0    0    0    0  0.00000000000E+00  0.00000000000E+00  0.74505805969E-08  0.10566000000E+00  0.10566000000E+00 0. -1.
     999900   -1    0    0    0    0 -0.00000000000E+00 -0.00000000000E+00 -0.74505805969E-08  0.93827000000E+00  0.93827000000E+00 0.  1.
     999902    2    1    2    0    0 -0.20501082462E-02  0.12722076178E-01  0.19486342361E-01  0.10205682427E+01  0.10203008215E+01 0.  0.
     999903    2    3    3    0    0 -0.10044359017E+00  0.76989953035E-01 -0.23995218840E-01  0.13169126389E+00  0.27394356743E-01 0.  0.
         14    1    1    2    0    0  0.20501082462E-02 -0.12722076178E-01 -0.19486342361E-01  0.23361757312E-01  0.00000000000E+00 0. -1.
     999901    1    3    3    0    0  0.98393481927E-01 -0.64267876856E-01  0.43481561201E-01  0.88887697880E+00  0.88000000000E+00 0.  1.
        -11    1    4    4    0    0 -0.23766653512E-01  0.63231304634E-02  0.39189444651E-03  0.24601839367E-01  0.51100000000E-03 0.  1.
         11    1    4    4    0    0 -0.76676936662E-01  0.70666822571E-01 -0.24387113287E-01  0.10708942452E+00  0.51100000000E-03 0. -1.
</event>
<event>
 8    1  0.1088021E+005  0.1043930E+01  0.7957747E-01            NaN
         13   -1    0    0    0    0  0.00000000000E+00  0.00000000000E+00  0.74505805969E-08  0.10566000000E+00  0.10566000000E+00 0.  1.
     999900   -1    0    0    0    0 -0.00000000000E+00 -0.00000000000E+00 -0.74505805969E-08  0.93827000000E+00  0.93827000000E+00 0.  1.
     999902    2    1    2    0    0 -0.72088662568E-02 -0.20841132837E-01 -0.95764190734E-02  0.10198877794E+01  0.10196043616E+01 0.  0.
     999903    2    3    3    0    0 -0.44759109520E-01  0.18711734815E-01  0.11788922475E+00  0.12903316695E+00  0.19954497124E-01 0.  0.
         14    1    1    2    0    0  0.72088662568E-02  0.20841132837E-01  0.95764190734E-02  0.24042220632E-01  0.00000000000E+00 0.  1.
     999901    1    3    3    0    0  0.37550243264E-01 -0.39552867653E-01 -0.12746564383E+00  0.89085461242E+00  0.88000000000E+00 0.  1.
        -11    1    4    4    0    0 -0.30854757839E-01  0.23536013610E-02  0.67339089667E-01  0.74110523132E-01  0.51100000000E-03 0. -1.
         11    1    4    4    0    0 -0.13904351681E-01  0.16358133454E-01  0.50550135087E-01  0.54922643819E-01  0.51100000000E-03 0.  1.
</event>
<event>
 8    1  0.1088021E+005  0.1043930E+01  0.7957747E-01            NaN
         13   -1    0    0    0    0  0.00000000000E+00  0.00000000000E+00  0.74505805969E-08  0.10566000000E+00  0.10566000000E+00 0.  1.
     999900   -1    0    0    0    0 -0.00000000000E+00 -0.00000000000E+00 -0.74505805969E-08  0.93827000000E+00  0.93827000000E+00 0.  1.
     999902    2    1    2    0    0 -0.20828306798E-02 -0.21763298297E-01 -0.55845981310E-02  0.10213652693E+01  0.10211159808E+01 0.  0.
     999903    2    3    3    0    0  0.14039690103E-01  0.38695866058E-01  0.12256131022E+00  0.12988525264E+00  0.12426630406E-01 0.  0.
         14    1    1    2    0    0  0.20828306798E-02  0.21763298297E-01  0.55845981310E-02  0.22564730725E-01  0.00000000000E+00 0. -1.
     999901    1    3    3    0    0 -0.16122520783E-01 -0.60459164355E-01 -0.12814590835E+00  0.89148001663E+00  0.88000000000E+00 0.  1.
        -11    1    4    4    0    0  0.51515661004E-02  0.13179270883E-01  0.25908617437E-01  0.29525402500E-01  0.51100000000E-03 0.  1.
         11    1    4    4    0    0  0.88881240027E-02  0.25516595175E-01  0.96652692780E-01  0.10035985014E+00  0.51100000000E-03 0. -1.
</event>
<event>
 8    1  0.1629728E+005  0.1043930E+01  0.7957747E-01            NaN
         13   -1    0    0    0    0  0.00000000000E+00  0.00000000000E+00  0.74505805969E-08  0.10566000000E+00  0.10566000000E+00 0.  1.
     999900   -1    0    0    0    0 -0.00000000000E+00 -0.00000000000E+00 -0.74505805969E-08  0.93827000000E+00  0.93827000000E+00 0. -1.
     999902    2    1    2    0    0  0.18124205850E-01 -0.33692235271E-03  0.14467933678E-01  0.10207368661E+01  0.10204733355E+01 0.  0.
     999903    2    3    3    0    0 -0.33411975855E-01  0.84180953797E-01 -0.89410433242E-01  0.12911476874E+00  0.21762463614E-01 0.  0.
         14    1    1    2    0    0 -0.18124205850E-01  0.33692235271E-03 -0.14467933678E-01  0.23193133882E-01  0.00000000000E+00 0. -1.
     999901    1    3    3    0    0  0.51536181705E-01 -0.84517876149E-01  0.10387836692E+00  0.89162209737E+00  0.88000000000E+00 0.  1.
        -11    1    4    4    0    0 -0.12431110628E-01  0.52208226135E-01 -0.41691737514E-01  0.67960970311E-01  0.51100000000E-03 0.  1.
         11    1    4    4    0    0 -0.20980865227E-01  0.31972727661E-01 -0.47718695728E-01  0.61153798433E-01  0.51100000000E-03 0. -1.
</event>
<event>
 8    1  0.1088021E+005  0.1043930E+01  0.7957747E-01            NaN
         13   -1    0    0    0    0  0.00000000000E+00  0.00000000000E+00  0.74505805969E-08  0.10566000000E+00  0.10566000000E+00 0.  1.
     999900   -1    0    0    0    0 -0.00000000000E+00 -0.00000000000E+00 -0.74505805969E-08  0.93827000000E+00  0.93827000000E+00 0.  1.
     999902    2    1    2    0    0  0.18666570818E-01  0.70608167571E-02 -0.10817194479E-01  0.10212296102E+01  0.10209772814E+01 0.  0.
     999903    2    3    3    0    0  0.11766032387E+00  0.60943395297E-01  0.18290250775E-02  0.13395117463E+00  0.19532603726E-01 0.  0.
         14    1    1    2    0    0 -0.18666570818E-01 -0.70608167571E-02  0.10817194479E-01  0.22700389771E-01  0.00000000000E+00 0.  1.
     999901    1    3    3    0    0 -0.98993753051E-01 -0.53882578539E-01 -0.12646219557E-01  0.88727843560E+00  0.88000000000E+00 0.  1.
        -11    1    4    4    0    0  0.60857596214E-01  0.24307270778E-01 -0.64525105204E-02  0.65851244807E-01  0.51100000000E-03 0.  1.
         11    1    4    4    0    0  0.56802727655E-01  0.36636124519E-01  0.82815355979E-02  0.68099929821E-01  0.51100000000E-03 0. -1.
</event>
<event>
 8    1  0.1088021E+005  0.1043930E+01  0.7957747E-01            NaN
         13   -1    0    0    0    0  0.00000000000E+00  0.00000000000E+00  0.74505805969E-08  0.10566000000E+00  0.10566000000E+00 0. -1.
     999900   -1    0    0    0    0 -0.00000000000E+00 -0.00000000000E+00 -0.74505805969E-08  0.93827000000E+00  0.93827000000E+00 0. -1.
     999902    2    1    2    0    0 -0.29345138615E-02 -0.14772942029E-01  0.21039000095E-01  0.10180554814E+01  0.10177266197E+01 0.  0.
     999903    2    3    3    0    0 -0.69457328801E-01 -0.83211822812E-01  0.71554903206E-01  0.13145465703E+00  0.20290261246E-01 0.  0.
         14    1    1    2    0    0  0.29345138615E-02  0.14772942029E-01 -0.21039000095E-01  0.25874518600E-01  0.00000000000E+00 0.  1.
     999901    1    3    3    0    0  0.66522814940E-01  0.68438880783E-01 -0.50515903111E-01  0.88660082437E+00  0.88000000000E+00 0. -1.
        -11    1    4    4    0    0 -0.20529055115E-01 -0.17126448653E-01  0.92746222196E-02  0.28302598567E-01  0.51100000000E-03 0. -1.
         11    1    4    4    0    0 -0.48928273687E-01 -0.66085374159E-01  0.62280280987E-01  0.10315205846E+00  0.51100000000E-03 0.  1.
</event>
<event>
 8    1  0.1088021E+005  0.1043930E+01  0.7957747E-01            NaN
         13   -1    0    0    0    0  0.00000000000E+00  0.00000000000E+00  0.74505805969E-08  0.10566000000E+00  0.10566000000E+00 0. -1.
     999900   -1    0    0    0    0 -0.00000000000E+00 -0.00000000000E+00 -0.74505805969E-08  0.93827000000E+00  0.93827000000E+00 0.  1.
     999902    2    1    2    0    0  0.20919224213E-01 -0.23727371311E-02 -0.10776109916E-01  0.10202790303E+01  0.10200048683E+01 0.  0.
     999903    2    3    3    0    0  0.86098127529E-01  0.14683105650E-01  0.96082090308E-01  0.13125829591E+00  0.19196119694E-01 0.  0.
         14    1    1    2    0    0 -0.20919224213E-01  0.23727371311E-02  0.10776109916E-01  0.23650969707E-01  0.00000000000E+00 0. -1.
     999901    1    3    3    0    0 -0.65178903316E-01 -0.17055842782E-01 -0.10685820022E+00  0.88902073438E+00  0.88000000000E+00 0.  1.
        -11    1    4    4    0    0  0.14871631319E-01 -0.39485745793E-02  0.21639611138E-01  0.26557306913E-01  0.51100000000E-03 0. -1.
         11    1    4    4    0    0  0.71226496210E-01  0.18631680230E-01  0.74442479170E-01  0.10470098899E+00  0.51100000000E-03 0.  1.
</event>
<event>
 8    1  0.1088021E+005  0.1043930E+01  0.7957747E-01            NaN
         13   -1    0    0    0    0  0.00000000000E+00  0.00000000000E+00  0.74505805969E-08  0.10566000000E+00  0.10566000000E+00 0.  1.
     999900   -1    0    0    0    0 -0.00000000000E+00 -0.00000000000E+00 -0.74505805969E-08  0.93827000000E+00  0.93827000000E+00 0. -1.
     999902    2    1    2    0    0  0.53488185579E-02  0.22203608515E-01 -0.70029143148E-02  0.10200416995E+01  0.10197619418E+01 0.  0.
     999903    2    3    3    0    0 -0.87271521347E-01  0.61790696045E-01 -0.74324436476E-01  0.13174115792E+00  0.19929934161E-01 0.  0.
         14    1    1    2    0    0 -0.53488185579E-02 -0.22203608515E-01  0.70029143148E-02  0.23888300483E-01  0.00000000000E+00 0. -1.
     999901    1    3    3    0    0  0.92620339905E-01 -0.39587087530E-01  0.67321522162E-01  0.88830054160E+00  0.88000000000E+00 0.  1.
        -11    1    4    4    0    0 -0.72753341694E-01  0.41665459247E-01 -0.54800766793E-01  0.10016209055E+00  0.51100000000E-03 0. -1.
         11    1    4    4    0    0 -0.14518179653E-01  0.20125236798E-01 -0.19523669684E-01  0.31579067363E-01  0.51100000000E-03 0.  1.
</event>
<event>
 8    1  0.1088021E+005  0.1043930E+01  0.7957747E-01            NaN
         13   -1    0    0    0    0  0.00000000000E+00  0.00000000000E+00  0.74505805969E-08  0.10566000000E+00  0.10566000000E+00 0.  1.
     999900   -1    0    0    0    0 -0.00000000000E+00 -0.00000000000E+00 -0.74505805969E-08  0.93827000000E+00  0.93827000000E+00 0.  1.
     999902    2    1    2    0    0 -0.68372757731E-02 -0.10220511767E-01  0.20511033964E-01  0.10200153661E+01  0.10197349839E+01 0.  0.
     999903    2    3    3    0    0  0.17244860273E-01 -0.58736383343E-01 -0.11124493014E+00  0.12855960547E+00  0.20119387241E-01 0.  0.
         14    1    1    2    0    0  0.68372757731E-02  0.10220511767E-01 -0.20511033964E-01  0.23914633910E-01  0.00000000000E+00 0. -1.
     999901    1    3    3    0    0 -0.24082136046E-01  0.48515871576E-01  0.13175596410E+00  0.89145576062E+00  0.88000000000E+00 0. -1.
        -11    1    4    4    0    0  0.35160678851E-02 -0.23987107710E-01 -0.63214946319E-01  0.67706237739E-01  0.51100000000E-03 0.  1.
         11    1    4    4    0    0  0.13728792388E-01 -0.34749275633E-01 -0.48029983817E-01  0.60853367728E-01  0.51100000000E-03 0. -1.
</event>
<event>
 8    1  0.1088021E+005  0.1043930E+01  0.7957747E-01            NaN
         13   -1    0    0    0    0  0.00000000000E+00  0.00000000000E+00  0.74505805969E-08  0.10566000000E+00  0.10566000000E+00 0. -1.
     999900   -1    0    0    0    0 -0.00000000000E+00 -0.00000000000E+00 -0.74505805969E-08  0.93827000000E+00  0.93827000000E+00 0.  1.
     999902    2    1    2    0    0 -0.65026347290E-02 -0.17857480187E-01 -0.12009788121E-01  0.10214486996E+01  0.10212012716E+01 0.  0.
     999903    2    3    3    0    0  0.13708390009E-01  0.80393569356E-01 -0.10054094219E+00  0.13133661705E+00  0.22130973141E-01 0.  0.
         14    1    1    2    0    0  0.65026347290E-02  0.17857480187E-01  0.12009788121E-01  0.22481300402E-01  0.00000000000E+00 0. -1.
     999901    1    3    3    0    0 -0.20211024738E-01 -0.98251049543E-01  0.88531154064E-01  0.89011208255E+00  0.88000000000E+00 0. -1.
        -11    1    4    4    0    0  0.15283551511E-01  0.28996702972E-01 -0.33846277775E-01  0.47119288729E-01  0.51100000000E-03 0.  1.
         11    1    4    4    0    0 -0.15751615015E-02  0.51396866384E-01 -0.66694664410E-01  0.84217328322E-01  0.51100000000E-03 0. -1.
</event>
<event>
 8    1  0.1088021E+005  0.1043930E+01  0.7957747E-01            NaN
         13   -1    0    0    0    0  0.00000000000E+00  0.00000000000E+00  0.74505805969E-08  0.10566000000E+00  0.10566000000E+00 0. -1.
     999900   -1    0    0    0    0 -0.00000000000E+00 -0.00000000000E+00 -0.74505805969E-08  0.93827000000E+00  0.93827000000E+00 0. -1.
     999902    2    1    2    0    0 -0.20086544907E-01 -0.69245489695E-03  0.14910777095E-01  0.10189044120E+01  0.10185970355E+01 0.  0.
     999903    2    3    3    0    0  0.49846798601E-02 -0.72318849880E-01 -0.10335951202E+00  0.12775528418E+00  0.19579602390E-01 0.  0.
         14    1    1    2    0    0  0.20086544907E-01  0.69245489695E-03 -0.14910777095E-01  0.25025587978E-01  0.00000000000E+00 0. -1.
     999901    1    3    3    0    0 -0.25071224767E-01  0.71626394983E-01  0.11827028911E+00  0.89114912784E+00  0.88000000000E+00 0.  1.
        -11    1    4    4    0    0 -0.39414055803E-02 -0.54726518330E-01 -0.82103602150E-01  0.98751147302E-01  0.51100000000E-03 0.  1.
         11    1    4    4    0    0  0.89260854403E-02 -0.17592331549E-01 -0.21255909867E-01  0.29004136876E-01  0.51100000000E-03 0. -1.
</event>
<event>
 8    1  0.1248542E+005  0.1043930E+01  0.7957747E-01            NaN
         13   -1    0    0    0    0  0.00000000000E+00  0.00000000000E+00  0.74505805969E-08  0.10566000000E+00  0.10566000000E+00 0.  1.
     999900   -1    0    0    0    0 -0.00000000000E+00 -0.00000000000E+00 -0.74505805969E-08  0.93827000000E+00  0.93827000000E+00 0.  1.
     999902    2    1    2    0    0 -0.15541154501E-01 -0.33874934494E-02  0.20019857098E-01  0.10183605402E+01  0.10180394848E+01 0.  0.
     999903    2    3    3    0    0 -0.80383576987E-01 -0.10053191204E+00 -0.63792680576E-02  0.13025103592E+00  0.18879949987E-01 0.  0.
         14    1    1    2    0    0  0.15541154501E-01  0.33874934494E-02 -0.20019857098E-01  0.25569459777E-01  0.00000000000E+00 0. -1.
     999901    1    3    3    0    0  0.64842422487E-01  0.97144418586E-01  0.26399125155E-01  0.88810950430E+00  0.88000000000E+00 0.  1.
        -11    1    4    4    0    0 -0.42333318894E-01 -0.52978563165E-01  0.60667598481E-02  0.68087478582E-01  0.51100000000E-03 0.  1.
         11    1    4    4    0    0 -0.38050258094E-01 -0.47553348871E-01 -0.12446027906E-01  0.62163557342E-01  0.51100000000E-03 0. -1.
</event>
<event>
 8    1  0.1088021E+005  0.1043930E+01  0.7957747E-01            NaN
         13   -1    0    0    0    0  0.00000000000E+00  0.00000000000E+00  0.74505805969E-08  0.10566000000E+00  0.10566000000E+00 0.  1.
     999900   -1    0    0    0    0 -0.00000000000E+00 -0.00000000000E+00 -0.74505805969E-08  0.93827000000E+00  0.93827000000E+00 0.  1.
     999902    2    1    2    0    0 -0.38929021660E-02 -0.19623059618E-01  0.13802149865E-01  0.10196252989E+01  0.10193355834E+01 0.  0.
     999903    2    3    3    0    0  0.68390215883E-01 -0.11105556795E+00  0.85205946963E-02  0.13192453422E+00  0.17914279085E-01 0.  0.
         14    1    1    2    0    0  0.38929021660E-02  0.19623059618E-01 -0.13802149865E-01  0.24304701129E-01  0.00000000000E+00 0. -1.
     999901    1    3    3    0    0 -0.72283118049E-01  0.91432508328E-01  0.52815551689E-02  0.88770076465E+00  0.88000000000E+00 0.  1.
        -11    1    4    4    0    0  0.30080760646E-01 -0.64874317317E-01  0.75902362866E-02  0.71912460786E-01  0.51100000000E-03 0. -1.
         11    1    4    4    0    0  0.38309455238E-01 -0.46181250630E-01  0.93035840967E-03  0.60012073436E-01  0.51100000000E-03 0.  1.
</event>
<event>
 8    1  0.1088021E+005  0.1043930E+01  0.7957747E-01            NaN
         13   -1    0    0    0    0  0.00000000000E+00  0.00000000000E+00  0.74505805969E-08  0.10566000000E+00  0.10566000000E+00 0. -1.
     999900   -1    0    0    0    0 -0.00000000000E+00 -0.00000000000E+00 -0.74505805969E-08  0.93827000000E+00  0.93827000000E+00 0. -1.
     999902    2    1    2    0    0 -0.95314098610E-02 -0.17973584206E-01  0.12649268748E-01  0.10199737586E+01  0.10196923883E+01 0.  0.
     999903    2    3    3    0    0 -0.13289124816E-01 -0.41739011200E-01  0.12369956591E+00  0.13266823936E+00  0.19507261011E-01 0.  0.
         14    1    1    2    0    0  0.95314098610E-02  0.17973584206E-01 -0.12649268748E-01  0.23956241421E-01  0.00000000000E+00 0.  1.
     999901    1    3    3    0    0  0.37577149547E-02  0.23765426994E-01 -0.11105029717E+00  0.88730551922E+00  0.88000000000E+00 0. -1.
        -11    1    4    4    0    0 -0.51525778538E-02  0.23688172957E-03  0.12670804013E-01  0.13689980527E-01  0.51100000000E-03 0.  1.
         11    1    4    4    0    0 -0.81365469618E-02 -0.41975892929E-01  0.11102876190E+00  0.11897825883E+00  0.51100000000E-03 0. -1.
</event>
<event>
 8    1  0.1088021E+005  0.1043930E+01  0.7957747E-01            NaN
         13   -1    0    0    0    0  0.00000000000E+00  0.00000000000E+00  0.74505805969E-08  0.10566000000E+00  0.10566000000E+00 0.  1.
     999900   -1    0    0    0    0 -0.00000000000E+00 -0.00000000000E+00 -0.74505805969E-08  0.93827000000E+00  0.93827000000E+00 0. -1.
     999902    2    1    2    0    0 -0.45364797659E-02 -0.68142994969E-02  0.23378817090E-01  0.10191593840E+01  0.10188583153E+01 0.  0.
     999903    2    3    3    0    0 -0.38447249152E-01  0.12138903031E+00  0.31340360903E-02  0.12899317192E+00  0.20394326936E-01 0.  0.
         14    1    1    2    0    0  0.45364797659E-02  0.68142994969E-02 -0.23378817090E-01  0.24770615956E-01  0.00000000000E+00 0. -1.
     999901    1    3    3    0    0  0.33910769386E-01 -0.12820332981E+00  0.20244780999E-01  0.89016621213E+00  0.88000000000E+00 0. -1.
        -11    1    4    4    0    0 -0.16273773414E-01  0.69831202659E-01 -0.66832430101E-02  0.72014994439E-01  0.51100000000E-03 0. -1.
         11    1    4    4    0    0 -0.22173475738E-01  0.51557827655E-01  0.98172791004E-02  0.56978177479E-01  0.51100000000E-03 0.  1.
</event>
<event>
 8    1  0.1088021E+005  0.1043930E+01  0.7957747E-01            NaN
         13   -1    0    0    0    0  0.00000000000E+00  0.00000000000E+00  0.74505805969E-08  0.10566000000E+00  0.10566000000E+00 0.  1.
     999900   -1    0    0    0    0 -0.00000000000E+00 -0.00000000000E+00 -0.74505805969E-08  0.93827000000E+00  0.93827000000E+00 0. -1.
     999902    2    1    2    0    0 -0.11701359700E-01  0.28188379114E-02  0.19832272590E-01  0.10207311487E+01  0.10204674866E+01 0.  0.
     999903    2    3    3    0    0  0.36007532209E-01  0.10732995540E+00 -0.60125654648E-01  0.12966887131E+00  0.19561700783E-01 0.  0.
         14    1    1    2    0    0  0.11701359700E-01 -0.28188379114E-02 -0.19832272590E-01  0.23198851309E-01  0.00000000000E+00 0. -1.
     999901    1    3    3    0    0 -0.47708891908E-01 -0.10451111749E+00  0.79957927238E-01  0.89106227738E+00  0.88000000000E+00 0.  1.
        -11    1    4    4    0    0  0.18622755741E-01  0.51263971251E-01 -0.39901506771E-01  0.67581011707E-01  0.51100000000E-03 0.  1.
         11    1    4    4    0    0  0.17384776467E-01  0.56065984150E-01 -0.20224147877E-01  0.62087859601E-01  0.51100000000E-03 0. -1.
</event>
<event>
 8    1  0.1088021E+005  0.1043930E+01  0.7957747E-01            NaN
         13   -1    0    0    0    0  0.00000000000E+00  0.00000000000E+00  0.74505805969E-08  0.10566000000E+00  0.10566000000E+00 0. -1.
     999900   -1    0    0    0    0 -0.00000000000E+00 -0.00000000000E+00 -0.74505805969E-08  0.93827000000E+00  0.93827000000E+00 0. -1.
     999902    2    1    2    0    0  0.15704895762E-01  0.20266003573E-02  0.22504156131E-01  0.10164129525E+01  0.10160404038E+01 0.  0.
     999903    2    3    3    0    0  0.66755864448E-01  0.80671666404E-01  0.74212041952E-01  0.12992270818E+00  0.20204448321E-01 0.  0.
         14    1    1    2    0    0 -0.15704895762E-01 -0.20266003573E-02 -0.22504156131E-01  0.27517047499E-01  0.00000000000E+00 0.  1.
     999901    1    3    3    0    0 -0.51050968686E-01 -0.78645066047E-01 -0.51707885822E-01  0.88649024432E+00  0.88000000000E+00 0. -1.
        -11    1    4    4    0    0  0.38921157700E-01  0.46712995100E-01  0.55011568778E-01  0.81996916090E-01  0.51100000000E-03 0. -1.
         11    1    4    4    0    0  0.27834706748E-01  0.33958671304E-01  0.19200473175E-01  0.47925792092E-01  0.51100000000E-03 0.  1.
</event>
<event>
 8    1  0.1088021E+005  0.1043930E+01  0.7957747E-01            NaN
         13   -1    0    0    0    0  0.00000000000E+00  0.00000000000E+00  0.74505805969E-08  0.10566000000E+00  0.10566000000E+00 0.  1.
     999900   -1    0    0    0    0 -0.00000000000E+00 -0.00000000000E+00 -0.74505805969E-08  0.93827000000E+00  0.93827000000E+00 0. -1.
     999902    2    1    2    0    0 -0.26109172277E-01  0.15100828787E-02  0.23718943306E-02  0.10176698570E+01  0.10173309898E+01 0.  0.
     999903    2    3    3    0    0 -0.66154875765E-01  0.84387540841E-01 -0.70228026126E-01  0.12989562903E+00  0.21051701864E-01 0.  0.
         14    1    1    2    0    0  0.26109172277E-01 -0.15100828787E-02 -0.23718943306E-02  0.26260142993E-01  0.00000000000E+00 0. -1.
     999901    1    3    3    0    0  0.40045703489E-01 -0.82877457963E-01  0.72599920457E-01  0.88777422798E+00  0.88000000000E+00 0. -1.
        -11    1    4    4    0    0 -0.40012221902E-01  0.35212249447E-01 -0.38969914041E-01  0.66028749299E-01  0.51100000000E-03 0. -1.
         11    1    4    4    0    0 -0.26142653864E-01  0.49175291394E-01 -0.31258112085E-01  0.63866879733E-01  0.51100000000E-03 0.  1.
</event>
<event>
 8    1  0.1088021E+005  0.1043930E+01  0.7957747E-01            NaN
         13   -1    0    0    0    0  0.00000000000E+00  0.00000000000E+00  0.74505805969E-08  0.10566000000E+00  0.10566000000E+00 0.  1.
     999900   -1    0    0    0    0 -0.00000000000E+00 -0.00000000000E+00 -0.74505805969E-08  0.93827000000E+00  0.93827000000E+00 0.  1.
     999902    2    1    2    0    0 -0.11157029350E-01 -0.87968203881E-02  0.19041792900E-01  0.10201717755E+01  0.10198950918E+01 0.  0.
     999903    2    3    3    0    0 -0.93085840204E-01  0.39435354984E-01  0.83548977130E-01  0.13270355097E+00  0.20240553169E-01 0.  0.
         14    1    1    2    0    0  0.11157029350E-01  0.87968203881E-02 -0.19041792900E-01  0.23758224464E-01  0.00000000000E+00 0.  1.
     999901    1    3    3    0    0  0.81928810854E-01 -0.48232175372E-01 -0.64507184230E-01  0.88746822456E+00  0.88000000000E+00 0.  1.
        -11    1    4    4    0    0 -0.36724085333E-01  0.21861627334E-01  0.45701851678E-01  0.62574032642E-01  0.51100000000E-03 0.  1.
         11    1    4    4    0    0 -0.56361754870E-01  0.17573727650E-01  0.37847125452E-01  0.70129518333E-01  0.51100000000E-03 0. -1.
</event>
<event>
 8    1  0.1088021E+005  0.1043930E+01  0.7957747E-01            NaN
         13   -1    0    0    0    0  0.00000000000E+00  0.00000000000E+00  0.74505805969E-08  0.10566000000E+00  0.10566000000E+00 0. -1.
     999900   -1    0    0    0    0 -0.00000000000E+00 -0.00000000000E+00 -0.74505805969E-08  0.93827000000E+00  0.93827000000E+00 0. -1.
     999902    2    1    2    0    0  0.14090198878E-01  0.55371235548E-02 -0.17753207965E-01  0.10205982655E+01  0.10203315391E+01 0.  0.
     999903    2    3    3    0    0  0.90061474306E-01  0.75384522343E-01 -0.60504924622E-01  0.13353682282E+00  0.19425287210E-01 0.  0.
         14    1    1    2    0    0 -0.14090198878E-01 -0.55371235548E-02  0.17753207965E-01  0.23331734499E-01  0.00000000000E+00 0. -1.
     999901    1    3    3    0    0 -0.75971275428E-01 -0.69847398788E-01  0.42751716658E-01  0.88706144268E+00  0.88000000000E+00 0.  1.
        -11    1    4    4    0    0  0.46134285583E-01  0.41849354212E-01 -0.21515897440E-01  0.65900953846E-01  0.51100000000E-03 0.  1.
         11    1    4    4    0    0  0.43927188724E-01  0.33535168131E-01 -0.38989027182E-01  0.67635868978E-01  0.51100000000E-03 0. -1.
</event>
<event>
 8    1  0.1088021E+005  0.1043930E+01  0.7957747E-01            NaN
         13   -1    0    0    0    0  0.00000000000E+00  0.00000000000E+00  0.74505805969E-08  0.10566000000E+00  0.10566000000E+00 0. -1.
     999900   -1    0    0    0    0 -0.00000000000E+00 -0.00000000000E+00 -0.74505805969E-08  0.93827000000E+00  0.93827000000E+00 0. -1.
     999902    2    1    2    0    0 -0.18474277573E-01 -0.30103030291E-02 -0.17867969774E-01  0.10180528827E+01  0.10177239541E+01 0.  0.
     999903    2    3    3    0    0 -0.49991395593E-01  0.66845866182E-02  0.11532185641E+00  0.12742004622E+00  0.19822065516E-01 0.  0.
         14    1    1    2    0    0  0.18474277573E-01  0.30103030291E-02  0.17867969774E-01  0.25877117305E-01  0.00000000000E+00 0. -1.
     999901    1    3    3    0    0  0.31517118020E-01 -0.96948896473E-02 -0.13318982618E+00  0.89063283648E+00  0.88000000000E+00 0. -1.
        -11    1    4    4    0    0 -0.34939727080E-01  0.18648662801E-02  0.97525530975E-01  0.10361347677E+00  0.51100000000E-03 0. -1.
         11    1    4    4    0    0 -0.15051668512E-01  0.48197203381E-02  0.17796325433E-01  0.23806569451E-01  0.51100000000E-03 0.  1.
</event>
<event>
 8    1  0.1088021E+005  0.1043930E+01  0.7957747E-01            NaN
         13   -1    0    0    0    0  0.00000000000E+00  0.00000000000E+00  0.74505805969E-08  0.10566000000E+00  0.10566000000E+00 0. -1.
     999900   -1    0    0    0    0 -0.00000000000E+00 -0.00000000000E+00 -0.74505805969E-08  0.93827000000E+00  0.93827000000E+00 0.  1.
     999902    2    1    2    0    0 -0.13807989761E-01 -0.11975086432E-01  0.12284638142E-01  0.10219078382E+01  0.10216705213E+01 0.  0.
     999903    2    3    3    0    0 -0.71532618462E-01 -0.61995927911E-01 -0.90514907033E-01  0.13263737100E+00  0.20959799824E-01 0.  0.
         14    1    1    2    0    0  0.13807989761E-01  0.11975086432E-01 -0.12284638142E-01  0.22022161805E-01  0.00000000000E+00 0.  1.
     999901    1    3    3    0    0  0.57724628701E-01  0.50020841479E-01  0.10279954517E+00  0.88927046720E+00  0.88000000000E+00 0. -1.
        -11    1    4    4    0    0 -0.30631477772E-01 -0.40383121872E-01 -0.47150888936E-01  0.69228255872E-01  0.51100000000E-03 0.  1.
         11    1    4    4    0    0 -0.40901140690E-01 -0.21612806039E-01 -0.43364018097E-01  0.63409115126E-01  0.51100000000E-03 0. -1.
</event>
<event>
 8    1  0.1088021E+005  0.1043930E+01  0.7957747E-01            NaN
         13   -1    0    0    0    0  0.00000000000E+00  0.00000000000E+00  0.74505805969E-08  0.10566000000E+00  0.10566000000E+00 0. -1.
     999900   -1    0    0    0    0 -0.00000000000E+00 -0.00000000000E+00 -0.74505805969E-08  0.93827000000E+00  0.93827000000E+00 0. -1.
     999902    2    1    2    0    0 -0.11545679074E-01 -0.19966758316E-01  0.48756789637E-02  0.10203557261E+01  0.10200833601E+01 0.  0.
     999903    2    3    3    0    0 -0.12797686746E+00 -0.27169268997E-01 -0.87120226482E-02  0.13255353903E+00  0.19449770900E-01 0.  0.
         14    1    1    2    0    0  0.11545679074E-01  0.19966758316E-01 -0.48756789637E-02  0.23574273865E-01  0.00000000000E+00 0.  1.
     999901    1    3    3    0    0  0.11643118839E+00  0.72025106813E-02  0.13587701612E-01  0.88780218710E+00  0.88000000000E+00 0. -1.
        -11    1    4    4    0    0 -0.83996588130E-01 -0.16330156797E-01  0.34827782163E-02  0.85641647016E-01  0.51100000000E-03 0. -1.
         11    1    4    4    0    0 -0.43980279332E-01 -0.10839112200E-01 -0.12194800864E-01  0.46911892016E-01  0.51100000000E-03 0.  1.
</event>
<event>
 8    1  0.1088021E+005  0.1043930E+01  0.7957747E-01            NaN
         13   -1    0    0    0    0  0.00000000000E+00  0.00000000000E+00  0.74505805969E-08  0.10566000000E+00  0.10566000000E+00 0.  1.
     999900   -1    0    0    0    0 -0.00000000000E+00 -0.00000000000E+00 -0.74505805969E-08  0.93827000000E+00  0.93827000000E+00 0.  1.
     999902    2    1    2    0    0  0.14457579969E-01  0.24360480235E-02 -0.17784799575E-01  0.10208810294E+01  0.10206208019E+01 0.  0.
     999903    2    3    3    0    0 -0.11099011694E+00  0.34767714272E-01  0.51459497923E-01  0.12870546709E+00  0.19733659479E-01 0.  0.
         14    1    1    2    0    0 -0.14457579969E-01 -0.24360480235E-02  0.17784799575E-01  0.23048970572E-01  0.00000000000E+00 0.  1.
     999901    1    3    3    0    0  0.12544769691E+00 -0.32331666248E-01 -0.69244297497E-01  0.89217556234E+00  0.88000000000E+00 0.  1.
        -11    1    4    4    0    0 -0.60008195160E-01  0.84803837455E-02  0.26120772171E-01  0.65995880588E-01  0.51100000000E-03 0.  1.
         11    1    4    4    0    0 -0.50981921785E-01  0.26287330526E-01  0.25338725751E-01  0.62709586498E-01  0.51100000000E-03 0. -1.
</event>
<event>
 8    1  0.1088021E+005  0.1043930E+01  0.7957747E-01            NaN
         13   -1    0    0    0    0  0.00000000000E+00  0.00000000000E+00  0.74505805969E-08  0.10566000000E+00  0.10566000000E+00 0.  1.
     999900   -1    0    0    0    0 -0.00000000000E+00 -0.00000000000E+00 -0.74505805969E-08  0.93827000000E+00  0.93827000000E+00 0.  1.
     999902    2    1    2    0    0 -0.14809826138E-02 -0.32270086113E-03 -0.23274323992E-01  0.10206063724E+01  0.10203398335E+01 0.  0.
     999903    2    3    3    0    0 -0.79629872221E-01 -0.69658138143E-01  0.71515743903E-01  0.12937138166E+00  0.20719073529E-01 0.  0.
         14    1    1    2    0    0  0.14809826138E-02  0.32270086113E-03  0.23274323992E-01  0.23323627562E-01  0.00000000000E+00 0.  1.
     999901    1    3    3    0    0  0.78148889607E-01  0.69335437282E-01 -0.94790067896E-01  0.89123499077E+00  0.88000000000E+00 0.  1.
        -11    1    4    4    0    0 -0.22464226228E-01 -0.31943768731E-01  0.30378000432E-01  0.49478579729E-01  0.51100000000E-03 0.  1.
         11    1    4    4    0    0 -0.57165645993E-01 -0.37714369412E-01  0.41137743471E-01  0.79892801934E-01  0.51100000000E-03 0. -1.
</event>
<event>
 8    1  0.1088021E+005  0.1043930E+01  0.7957747E-01            NaN
         13   -1    0    0    0    0  0.00000000000E+00  0.00000000000E+00  0.74505805969E-08  0.10566000000E+00  0.10566000000E+00 0.  1.
     999900   -1    0    0    0    0 -0.00000000000E+00 -0.00000000000E+00 -0.74505805969E-08  0.93827000000E+00  0.93827000000E+00 0. -1.
     999902    2    1    2    0    0 -0.32954876962E-02 -0.22257950722E-01  0.77238028065E-02  0.10201406381E+01  0.10198632201E+01 0.  0.
     999903    2    3    3    0    0  0.69247277353E-01 -0.69952947115E-01 -0.81523278044E-01  0.13137615475E+00  0.30414617244E-01 0.  0.
         14    1    1    2    0    0  0.32954876962E-02  0.22257950722E-01 -0.77238028065E-02  0.23789361893E-01  0.00000000000E+00 0. -1.
     999901    1    3    3    0    0 -0.72542765049E-01  0.47694996393E-01  0.89247080850E-01  0.88876448336E+00  0.88000000000E+00 0.  1.
        -11    1    4    4    0    0  0.21492674046E-01 -0.40045851616E-01 -0.26470972194E-01  0.52598277150E-01  0.51100000000E-03 0.  1.
         11    1    4    4    0    0  0.47754603307E-01 -0.29907095500E-01 -0.55052305850E-01  0.78777877597E-01  0.51100000000E-03 0. -1.
</event>
<event>
 8    1  0.1088021E+005  0.1043930E+01  0.7957747E-01            NaN
         13   -1    0    0    0    0  0.00000000000E+00  0.00000000000E+00  0.74505805969E-08  0.10566000000E+00  0.10566000000E+00 0.  1.
     999900   -1    0    0    0    0 -0.00000000000E+00 -0.00000000000E+00 -0.74505805969E-08  0.93827000000E+00  0.93827000000E+00 0.  1.
     999902    2    1    2    0    0 -0.16653456796E-01 -0.16758138415E-01  0.31816023753E-02  0.10200910525E+01  0.10198124631E+01 0.  0.
     999903    2    3    3    0    0 -0.12933394714E+00  0.10780371284E-01  0.17292342506E-01  0.13236678479E+00  0.19453902370E-01 0.  0.
         14    1    1    2    0    0  0.16653456796E-01  0.16758138415E-01 -0.31816023753E-02  0.23838947545E-01  0.00000000000E+00 0.  1.
     999901    1    3    3    0    0  0.11268049034E+00 -0.27538509698E-01 -0.14110740131E-01  0.88772426767E+00  0.88000000000E+00 0.  1.
        -11    1    4    4    0    0 -0.82862781083E-01  0.36086656545E-02  0.21711899299E-02  0.82971309158E-01  0.51100000000E-03 0.  1.
         11    1    4    4    0    0 -0.46471166057E-01  0.71717056291E-02  0.15121152576E-01  0.49395475628E-01  0.51100000000E-03 0. -1.
</event>
<event>
 8    1  0.1088021E+005  0.1043930E+01  0.7957747E-01            NaN
         13   -1    0    0    0    0  0.00000000000E+00  0.00000000000E+00  0.74505805969E-08  0.10566000000E+00  0.10566000000E+00 0. -1.
     999900   -1    0    0    0    0 -0.00000000000E+00 -0.00000000000E+00 -0.74505805969E-08  0.93827000000E+00  0.93827000000E+00 0. -1.
     999902    2    1    2    0    0  0.89402949334E-02 -0.22014069544E-01  0.63778467213E-03  0.10201612200E+01  0.10198842875E+01 0.  0.
     999903    2    3    3    0    0  0.10049072167E+00  0.73221315154E-01 -0.30164717945E-01  0.12976801853E+00  0.21681381153E-01 0.  0.
         14    1    1    2    0    0 -0.89402949334E-02  0.22014069544E-01 -0.63778467213E-03  0.23768779958E-01  0.00000000000E+00 0.  1.
     999901    1    3    3    0    0 -0.91550426741E-01 -0.95235384698E-01  0.30802502617E-01  0.89039320151E+00  0.88000000000E+00 0.  1.
        -11    1    4    4    0    0  0.25024098703E-01  0.77419091609E-02 -0.83662172419E-02  0.27502679602E-01  0.51100000000E-03 0.  1.
         11    1    4    4    0    0  0.75466622971E-01  0.65479405993E-01 -0.21798500703E-01  0.10226533893E+00  0.51100000000E-03 0. -1.
</event>
<event>
 8    1  0.1088021E+005  0.1043930E+01  0.7957747E-01            NaN
         13   -1    0    0    0    0  0.00000000000E+00  0.00000000000E+00  0.74505805969E-08  0.10566000000E+00  0.10566000000E+00 0.  1.
     999900   -1    0    0    0    0 -0.00000000000E+00 -0.00000000000E+00 -0.74505805969E-08  0.93827000000E+00  0.93827000000E+00 0.  1.
     999902    2    1    2    0    0  0.16166507200E-01  0.14283225265E-03  0.16690814183E-01  0.10206929685E+01  0.10204284278E+01 0.  0.
     999903    2    3    3    0    0 -0.22433245596E-01  0.10334158674E+00  0.76639222472E-01  0.13179829783E+00  0.17733776583E-01 0.  0.
         14    1    1    2    0    0 -0.16166507200E-01 -0.14283225265E-03 -0.16690814183E-01  0.23237031527E-01  0.00000000000E+00 0. -1.
     999901    1    3    3    0    0  0.38599752796E-01 -0.10319875449E+00 -0.59948408289E-01  0.88889467064E+00  0.88000000000E+00 0.  1.
        -11    1    4    4    0    0 -0.44615214379E-02  0.25945182936E-01  0.28927885336E-01  0.39117021386E-01  0.51100000000E-03 0.  1.
         11    1    4    4    0    0 -0.17971724158E-01  0.77396403802E-01  0.47711337136E-01  0.92681276442E-01  0.51100000000E-03 0. -1.
</event>
<event>
 8    1  0.1088021E+005  0.1043930E+01  0.7957747E-01            NaN
         13   -1    0    0    0    0  0.00000000000E+00  0.00000000000E+00  0.74505805969E-08  0.10566000000E+00  0.10566000000E+00 0. -1.
     999900   -1    0    0    0    0 -0.00000000000E+00 -0.00000000000E+00 -0.74505805969E-08  0.93827000000E+00  0.93827000000E+00 0.  1.
     999902    2    1    2    0    0  0.31320430558E-02 -0.22403359677E-01 -0.49351201761E-02  0.10207766929E+01  0.10205140769E+01 0.  0.
     999903    2    3    3    0    0 -0.70014780933E-01 -0.10998276813E+00  0.17637807101E-01  0.13312239775E+00  0.20302751317E-01 0.  0.
         14    1    1    2    0    0 -0.31320430558E-02  0.22403359677E-01  0.49351201761E-02  0.23153307101E-01  0.00000000000E+00 0. -1.
     999901    1    3    3    0    0  0.73146823988E-01  0.87579408448E-01 -0.22572927278E-01  0.88765429515E+00  0.88000000000E+00 0. -1.
        -11    1    4    4    0    0 -0.52016139303E-02 -0.17218503755E-01  0.75334620921E-02  0.19507635201E-01  0.51100000000E-03 0.  1.
         11    1    4    4    0    0 -0.64813167002E-01 -0.92764264370E-01  0.10104345009E-01  0.11361476255E+00  0.51100000000E-03 0. -1.
</event>
<event>
 8    1  0.1088021E+005  0.1043930E+01  0.7957747E-01            NaN
         13   -1    0    0    0    0  0.00000000000E+00  0.00000000000E+00  0.74505805969E-08  0.10566000000E+00  0.10566000000E+00 0. -1.
     999900   -1    0    0    0    0 -0.00000000000E+00 -0.00000000000E+00 -0.74505805969E-08  0.93827000000E+00  0.93827000000E+00 0.  1.
     999902    2    1    2    0    0 -0.54283943943E-02  0.20484715972E-01  0.10173324973E-01  0.10204228182E+01  0.10201520183E+01 0.  0.
     999903    2    3    3    0    0  0.86249634229E-01 -0.80561057601E-01  0.48517496064E-01  0.12908372184E+00  0.19482720866E-01 0.  0.
         14    1    1    2    0    0  0.54283943943E-02 -0.20484715972E-01 -0.10173324973E-01  0.23507181778E-01  0.00000000000E+00 0.  1.
     999901    1    3    3    0    0 -0.91678028623E-01  0.10104577357E+00 -0.38344171091E-01  0.89133909639E+00  0.88000000000E+00 0.  1.
        -11    1    4    4    0    0  0.74585107838E-01 -0.70659643538E-01  0.48865540574E-01  0.11377093527E+00  0.51100000000E-03 0.  1.
         11    1    4    4    0    0  0.11664526391E-01 -0.99014140636E-02 -0.34804451013E-03  0.15312786564E-01  0.51100000000E-03 0. -1.
</event>
<event>
 8    1  0.1088021E+005  0.1043930E+01  0.7957747E-01            NaN
         13   -1    0    0    0    0  0.00000000000E+00  0.00000000000E+00  0.74505805969E-08  0.10566000000E+00  0.10566000000E+00 0. -1.
     999900   -1    0    0    0    0 -0.00000000000E+00 -0.00000000000E+00 -0.74505805969E-08  0.93827000000E+00  0.93827000000E+00 0. -1.
     999902    2    1    2    0    0 -0.17893497729E-01 -0.14224632073E-01 -0.51959944966E-02  0.10204882471E+01  0.10202189700E+01 0.  0.
     999903    2    3    3    0    0 -0.12023050395E+00  0.32478224638E-01  0.39457791504E-01  0.13220451979E+00  0.20270880257E-01 0.  0.
         14    1    1    2    0    0  0.17893497729E-01  0.14224632073E-01  0.51959944966E-02  0.23441752865E-01  0.00000000000E+00 0.  1.
     999901    1    3    3    0    0  0.10233700622E+00 -0.46702856710E-01 -0.44653786001E-01  0.88828372735E+00  0.88000000000E+00 0.  1.
        -11    1    4    4    0    0 -0.41317684201E-01  0.59655742618E-02  0.47815874662E-02  0.42022182282E-01  0.51100000000E-03 0.  1.
         11    1    4    4    0    0 -0.78912819748E-01  0.26512650376E-01  0.34676204038E-01  0.90182337505E-01  0.51100000000E-03 0. -1.
</event>
<event>
 8    1  0.1088021E+005  0.1043930E+01  0.7957747E-01            NaN
         13   -1    0    0    0    0  0.00000000000E+00  0.00000000000E+00  0.74505805969E-08  0.10566000000E+00  0.10566000000E+00 0.  1.
     999900   -1    0    0    0    0 -0.00000000000E+00 -0.00000000000E+00 -0.74505805969E-08  0.93827000000E+00  0.93827000000E+00 0. -1.
     999902    2    1    2    0    0 -0.14711178150E-01  0.12558587447E-01  0.13778154572E-01  0.10201818543E+01  0.10199054081E+01 0.  0.
     999903    2    3    3    0    0  0.41413880555E-01  0.12016237051E+00  0.26059701336E-01  0.13176785579E+00  0.23012061967E-01 0.  0.
         14    1    1    2    0    0  0.14711178150E-01 -0.12558587447E-01 -0.13778154572E-01  0.23748145709E-01  0.00000000000E+00 0.  1.
     999901    1    3    3    0    0 -0.56125058705E-01 -0.10760378306E+00 -0.12281546763E-01  0.88841399850E+00  0.88000000000E+00 0. -1.
        -11    1    4    4    0    0  0.15734563669E-01  0.74137997514E-01  0.21931306999E-01  0.78900332806E-01  0.51100000000E-03 0.  1.
         11    1    4    4    0    0  0.25679316886E-01  0.46024372997E-01  0.41283943364E-02  0.52867522982E-01  0.51100000000E-03 0. -1.
</event>
<event>
 8    1  0.1088021E+005  0.1043930E+01  0.7957747E-01            NaN
         13   -1    0    0    0    0  0.00000000000E+00  0.00000000000E+00  0.74505805969E-08  0.10566000000E+00  0.10566000000E+00 0.  1.
     999900   -1    0    0    0    0 -0.00000000000E+00 -0.00000000000E+00 -0.74505805969E-08  0.93827000000E+00  0.93827000000E+00 0. -1.
     999902    2    1    2    0    0 -0.22896094427E-01  0.63878918702E-02  0.71544046115E-02  0.10191061847E+01  0.10188038054E+01 0.  0.
     999903    2    3    3    0    0  0.77281048096E-01 -0.20939794464E-01 -0.96821805740E-01  0.12692161035E+00  0.17994380227E-01 0.  0.
         14    1    1    2    0    0  0.22896094427E-01 -0.63878918702E-02 -0.71544046115E-02  0.24823815337E-01  0.00000000000E+00 0. -1.
     999901    1    3    3    0    0 -0.10017714252E+00  0.27327686334E-01  0.10397621035E+00  0.89218457431E+00  0.88000000000E+00 0.  1.
        -11    1    4    4    0    0  0.19190874860E-01 -0.13449984692E-01 -0.29722969046E-01  0.37853768320E-01  0.51100000000E-03 0. -1.
         11    1    4    4    0    0  0.58090173236E-01 -0.74898097725E-02 -0.67098836694E-01  0.89067842029E-01  0.51100000000E-03 0.  1.
</event>
<event>
 8    1  0.1088021E+005  0.1043930E+01  0.7957747E-01            NaN
         13   -1    0    0    0    0  0.00000000000E+00  0.00000000000E+00  0.74505805969E-08  0.10566000000E+00  0.10566000000E+00 0. -1.
     999900   -1    0    0    0    0 -0.00000000000E+00 -0.00000000000E+00 -0.74505805969E-08  0.93827000000E+00  0.93827000000E+00 0. -1.
     999902    2    1    2    0    0 -0.12181046964E-01 -0.10917531920E-01  0.17870755499E-01  0.10197032728E+01  0.10194154356E+01 0.  0.
     999903    2    3    3    0    0 -0.11626706178E+00  0.49386432035E-01 -0.25814088135E-01  0.13044581171E+00  0.19816491189E-01 0.  0.
         14    1    1    2    0    0  0.12181046964E-01  0.10917531920E-01 -0.17870755499E-01  0.24226727193E-01  0.00000000000E+00 0.  1.
     999901    1    3    3    0    0  0.10408601482E+00 -0.60303963954E-01  0.43684843634E-01  0.88925746109E+00  0.88000000000E+00 0. -1.
        -11    1    4    4    0    0 -0.62786342139E-01  0.16879727776E-01 -0.17318930001E-01  0.67284890030E-01  0.51100000000E-03 0.  1.
         11    1    4    4    0    0 -0.53480719641E-01  0.32506704258E-01 -0.84951581344E-02  0.63160921683E-01  0.51100000000E-03 0. -1.
</event>
<event>
 8    1  0.1088021E+005  0.1043930E+01  0.7957747E-01            NaN
         13   -1    0    0    0    0  0.00000000000E+00  0.00000000000E+00  0.74505805969E-08  0.10566000000E+00  0.10566000000E+00 0. -1.
     999900   -1    0    0    0    0 -0.00000000000E+00 -0.00000000000E+00 -0.74505805969E-08  0.93827000000E+00  0.93827000000E+00 0.  1.
     999902    2    1    2    0    0 -0.18917489974E-01 -0.73513121193E-02  0.13158273577E-01  0.10197421233E+01  0.10194552195E+01 0.  0.
     999903    2    3    3    0    0  0.88774655167E-02 -0.10227709786E+00 -0.77374253114E-01  0.12958505695E+00  0.16312504350E-01 0.  0.
         14    1    1    2    0    0  0.18917489974E-01  0.73513121193E-02 -0.13158273577E-01  0.24187876722E-01  0.00000000000E+00 0.  1.
     999901    1    3    3    0    0 -0.27794955491E-01  0.94925785741E-01  0.90532526692E-01  0.89015706633E+00  0.88000000000E+00 0. -1.
        -11    1    4    4    0    0 -0.41932261912E-02 -0.32133066208E-01 -0.20620009660E-01  0.38413057796E-01  0.51100000000E-03 0. -1.
         11    1    4    4    0    0  0.13070691708E-01 -0.70144031652E-01 -0.56754243454E-01  0.91171999151E-01  0.51100000000E-03 0.  1.
</event>
<event>
 8    1  0.1088021E+005  0.1043930E+01  0.7957747E-01            NaN
         13   -1    0    0    0    0  0.00000000000E+00  0.00000000000E+00  0.74505805969E-08  0.10566000000E+00  0.10566000000E+00 0.  1.
     999900   -1    0    0    0    0 -0.00000000000E+00 -0.00000000000E+00 -0.74505805969E-08  0.93827000000E+00  0.93827000000E+00 0.  1.
     999902    2    1    2    0    0 -0.89867185210E-02  0.18893541355E-01 -0.11024370216E-01  0.10202812420E+01  0.10200071319E+01 0.  0.
     999903    2    3    3    0    0  0.12763414196E+00 -0.68736616927E-02 -0.38242244420E-02  0.12933733226E+00  0.19385546284E-01 0.  0.
         14    1    1    2    0    0  0.89867185210E-02 -0.18893541355E-01  0.11024370216E-01  0.23648757967E-01  0.00000000000E+00 0. -1.
     999901    1    3    3    0    0 -0.13662086048E+00  0.25767203048E-01 -0.72001457738E-02  0.89094390978E+00  0.88000000000E+00 0. -1.
        -11    1    4    4    0    0  0.91910741284E-02 -0.17794412231E-02 -0.53088251194E-02  0.10774367724E-01  0.51100000000E-03 0.  1.
         11    1    4    4    0    0  0.11844306783E+00 -0.50942204695E-02  0.14846006774E-02  0.11856296453E+00  0.51100000000E-03 0. -1.
</event>
<event>
 8    1  0.1088021E+005  0.1043930E+01  0.7957747E-01            NaN
         13   -1    0    0    0    0  0.00000000000E+00  0.00000000000E+00  0.74505805969E-08  0.10566000000E+00  0.10566000000E+00 0.  1.
     999900   -1    0    0    0    0 -0.00000000000E+00 -0.00000000000E+00 -0.74505805969E-08  0.93827000000E+00  0.93827000000E+00 0.  1.
     999902    2    1    2    0    0 -0.12941783055E-01 -0.66737655012E-02  0.19322484491E-01  0.10197352216E+01  0.10194481521E+01 0.  0.
     999903    2    3    3    0    0  0.74626171218E-01 -0.88177045495E-01 -0.53039914805E-01  0.12869804612E+00  0.20141939584E-01 0.  0.
         14    1    1    2    0    0  0.12941783055E-01  0.66737655012E-02 -0.19322484491E-01  0.24194778393E-01  0.00000000000E+00 0. -1.
     999901    1    3    3    0    0 -0.87567954273E-01  0.81503279993E-01  0.72362399295E-01  0.89103717549E+00  0.88000000000E+00 0.  1.
        -11    1    4    4    0    0  0.62666801205E-01 -0.64163637154E-01 -0.46733018230E-01  0.10113523827E+00  0.51100000000E-03 0.  1.
         11    1    4    4    0    0  0.11959370013E-01 -0.24013408340E-01 -0.63068965744E-02  0.27562807851E-01  0.51100000000E-03 0. -1.
</event>
<event>
 8    1  0.1088021E+005  0.1043930E+01  0.7957747E-01            NaN
         13   -1    0    0    0    0  0.00000000000E+00  0.00000000000E+00  0.74505805969E-08  0.10566000000E+00  0.10566000000E+00 0. -1.
     999900   -1    0    0    0    0 -0.00000000000E+00 -0.00000000000E+00 -0.74505805969E-08  0.93827000000E+00  0.93827000000E+00 0.  1.
     999902    2    1    2    0    0  0.36325560235E-02 -0.20211797054E-01  0.34414977820E-02  0.10231079898E+01  0.10228960859E+01 0.  0.
     999903    2    3    3    0    0 -0.89660005238E-01  0.92572342213E-01  0.11907158903E-01  0.13097827303E+00  0.20123928306E-01 0.  0.
         14    1    1    2    0    0 -0.36325560235E-02  0.20211797054E-01 -0.34414977820E-02  0.20822010240E-01  0.00000000000E+00 0.  1.
     999901    1    3    3    0    0  0.93292561262E-01 -0.11278413927E+00 -0.84656611215E-02  0.89212971673E+00  0.88000000000E+00 0. -1.
        -11    1    4    4    0    0 -0.33405813588E-01  0.27858487588E-01  0.12384442069E-01  0.45229185694E-01  0.51100000000E-03 0.  1.
         11    1    4    4    0    0 -0.56254191650E-01  0.64713854625E-01 -0.47728316515E-03  0.85749087335E-01  0.51100000000E-03 0. -1.
</event>
<event>
 8    1  0.1088021E+005  0.1043930E+01  0.7957747E-01            NaN
         13   -1    0    0    0    0  0.00000000000E+00  0.00000000000E+00  0.74505805969E-08  0.10566000000E+00  0.10566000000E+00 0. -1.
     999900   -1    0    0    0    0 -0.00000000000E+00 -0.00000000000E+00 -0.74505805969E-08  0.93827000000E+00  0.93827000000E+00 0. -1.
     999902    2    1    2    0    0  0.85756825525E-02  0.59913750356E-03 -0.89275263168E-02  0.10315363717E+01  0.10314619160E+01 0.  0.
     999903    2    3    3    0    0  0.10404828385E+00  0.89999954689E-01 -0.26863737964E-01  0.14168850187E+00  0.20686563938E-01 0.  0.
         14    1    1    2    0    0 -0.85756825525E-02 -0.59913750356E-03  0.89275263168E-02  0.12393628328E-01  0.00000000000E+00 0. -1.
     999901    1    3    3    0    0 -0.95472601296E-01 -0.89400817186E-01  0.17936211647E-01  0.88984786981E+00  0.88000000000E+00 0.  1.
        -11    1    4    4    0    0  0.84830825653E-01  0.67218334921E-01 -0.13686911757E-01  0.10909704948E+00  0.51100000000E-03 0.  1.
         11    1    4    4    0    0  0.19217458195E-01  0.22781619768E-01 -0.13176826208E-01  0.32591452386E-01  0.51100000000E-03 0. -1.
</event>
<event>
 8    1  0.1088021E+005  0.1043930E+01  0.7957747E-01            NaN
         13   -1    0    0    0    0  0.00000000000E+00  0.00000000000E+00  0.74505805969E-08  0.10566000000E+00  0.10566000000E+00 0.  1.
     999900   -1    0    0    0    0 -0.00000000000E+00 -0.00000000000E+00 -0.74505805969E-08  0.93827000000E+00  0.93827000000E+00 0. -1.
     999902    2    1    2    0    0 -0.16961758779E-01 -0.12535825266E-01 -0.90820227009E-02  0.10209663045E+01  0.10207080207E+01 0.  0.
     999903    2    3    3    0    0  0.17429334373E-01  0.73566913642E-01 -0.10497539755E+00  0.13091463840E+00  0.20073265240E-01 0.  0.
         14    1    1    2    0    0  0.16961758779E-01  0.12535825266E-01  0.90820227009E-02  0.22963695528E-01  0.00000000000E+00 0.  1.
     999901    1    3    3    0    0 -0.34391093152E-01 -0.86102738908E-01  0.95893374849E-01  0.89005166607E+00  0.88000000000E+00 0.  1.
        -11    1    4    4    0    0  0.99727331567E-02  0.24243238741E-01 -0.51452310538E-01  0.57747652870E-01  0.51100000000E-03 0. -1.
         11    1    4    4    0    0  0.74566012164E-02  0.49323674901E-01 -0.53523087012E-01  0.73166985531E-01  0.51100000000E-03 0.  1.
</event>
<event>
 8    1  0.1088021E+005  0.1043930E+01  0.7957747E-01            NaN
         13   -1    0    0    0    0  0.00000000000E+00  0.00000000000E+00  0.74505805969E-08  0.10566000000E+00  0.10566000000E+00 0. -1.
     999900   -1    0    0    0    0 -0.00000000000E+00 -0.00000000000E+00 -0.74505805969E-08  0.93827000000E+00  0.93827000000E+00 0.  1.
     999902    2    1    2    0    0  0.13780025727E-01  0.61312668590E-02  0.17274407631E-01  0.10209977803E+01  0.10207402121E+01 0.  0.
     999903    2    3    3    0    0 -0.41653427728E-01  0.93409817503E-01 -0.77195761373E-01  0.12992257246E+00  0.21454305217E-01 0.  0.
         14    1    1    2    0    0 -0.13780025727E-01 -0.61312668590E-02 -0.17274407631E-01  0.22932219721E-01  0.00000000000E+00 0.  1.
     999901    1    3    3    0    0  0.55433453454E-01 -0.87278550644E-01  0.94470169004E-01  0.89107520782E+00  0.88000000000E+00 0. -1.
        -11    1    4    4    0    0 -0.26321851089E-01  0.72402769965E-01 -0.47774219332E-01  0.90651189166E-01  0.51100000000E-03 0. -1.
         11    1    4    4    0    0 -0.15331576639E-01  0.21007047537E-01 -0.29421542041E-01  0.39271383291E-01  0.51100000000E-03 0.  1.
</event>
<event>
 8    1  0.1088021E+005  0.1043930E+01  0.7957747E-01            NaN
         13   -1    0    0    0    0  0.00000000000E+00  0.00000000000E+00  0.74505805969E-08  0.10566000000E+00  0.10566000000E+00 0.  1.
     999900   -1    0    0    0    0 -0.00000000000E+00 -0.00000000000E+00 -0.74505805969E-08  0.93827000000E+00  0.93827000000E+00 0. -1.
     999902    2    1    2    0    0 -0.13543567929E-01  0.53068300761E-02 -0.19558034616E-01  0.10195556816E+01  0.10192642840E+01 0.  0.
     999903    2    3    3    0    0 -0.63999214632E-01 -0.70451910457E-01 -0.89442727248E-01  0.13210482141E+00  0.19806847842E-01 0.  0.
         14    1    1    2    0    0  0.13543567929E-01 -0.53068300761E-02  0.19558034616E-01  0.24374318364E-01  0.00000000000E+00 0.  1.
     999901    1    3    3    0    0  0.50455646703E-01  0.75758740533E-01  0.69884692632E-01  0.88745086023E+00  0.88000000000E+00 0.  1.
        -11    1    4    4    0    0 -0.42314720785E-01 -0.40626614751E-01 -0.66479244026E-01  0.88661200243E-01  0.51100000000E-03 0. -1.
         11    1    4    4    0    0 -0.21684493847E-01 -0.29825295706E-01 -0.22963483222E-01  0.43443621167E-01  0.51100000000E-03 0.  1.
</event>
<event>
 8    1  0.1088021E+005  0.1043930E+01  0.7957747E-01            NaN
         13   -1    0    0    0    0  0.00000000000E+00  0.00000000000E+00  0.74505805969E-08  0.10566000000E+00  0.10566000000E+00 0.  1.
     999900   -1    0    0    0    0 -0.00000000000E+00 -0.00000000000E+00 -0.74505805969E-08  0.93827000000E+00  0.93827000000E+00 0. -1.
     999902    2    1    2    0    0  0.51636573160E-02  0.18891110421E-01  0.14456493913E-01  0.10195881096E+01  0.10192974962E+01 0.  0.
     999903    2    3    3    0    0 -0.11578641633E+00  0.49503521027E-01 -0.25008508221E-01  0.12991203017E+00  0.19864976667E-01 0.  0.
         14    1    1    2    0    0 -0.51636573160E-02 -0.18891110421E-01 -0.14456493913E-01  0.24341890355E-01  0.00000000000E+00 0. -1.
     999901    1    3    3    0    0  0.12095007365E+00 -0.30612410606E-01  0.39465002134E-01  0.88967607948E+00  0.88000000000E+00 0.  1.
        -11    1    4    4    0    0 -0.84555394871E-01  0.28738212560E-01 -0.11493775346E-01  0.90043698589E-01  0.51100000000E-03 0.  1.
         11    1    4    4    0    0 -0.31231021461E-01  0.20765308466E-01 -0.13514732875E-01  0.39868331579E-01  0.51100000000E-03 0. -1.
</event>
<event>
 8    1  0.1106944E+005  0.1043930E+01  0.7957747E-01            NaN
         13   -1    0    0    0    0  0.00000000000E+00  0.00000000000E+00  0.74505805969E-08  0.10566000000E+00  0.10566000000E+00 0. -1.
     999900   -1    0    0    0    0 -0.00000000000E+00 -0.00000000000E+00 -0.74505805969E-08  0.93827000000E+00  0.93827000000E+00 0. -1.
     999902    2    1    2    0    0  0.19786487494E-01 -0.21320212074E-02  0.12629449683E-01  0.10203598154E+01  0.10200875449E+01 0.  0.
     999903    2    3    3    0    0  0.10910632943E+00 -0.21716481621E-01 -0.68042522408E-01  0.13195137763E+00  0.20139128796E-01 0.  0.
         14    1    1    2    0    0 -0.19786487494E-01  0.21320212074E-02 -0.12629449683E-01  0.23570184579E-01  0.00000000000E+00 0.  1.
     999901    1    3    3    0    0 -0.89319841932E-01  0.19584460413E-01  0.80671972091E-01  0.88840843779E+00  0.88000000000E+00 0.  1.
        -11    1    4    4    0    0  0.37944402982E-01 -0.15439784344E-01 -0.18120990905E-01  0.44797277715E-01  0.51100000000E-03 0. -1.
         11    1    4    4    0    0  0.71161926444E-01 -0.62766972769E-02 -0.49921531503E-01  0.87154099918E-01  0.51100000000E-03 0.  1.
</event>
<event>
 8    1  0.1088021E+005  0.1043930E+01  0.7957747E-01            NaN
         13   -1    0    0    0    0  0.00000000000E+00  0.00000000000E+00  0.74505805969E-08  0.10566000000E+00  0.10566000000E+00 0. -1.
     999900   -1    0    0    0    0 -0.00000000000E+00 -0.00000000000E+00 -0.74505805969E-08  0.93827000000E+00  0.93827000000E+00 0.  1.
     999902    2    1    2    0    0  0.20709869361E-01  0.12408019720E-01 -0.32384985543E-02  0.10195713154E+01  0.10192802959E+01 0.  0.
     999903    2    3    3    0    0 -0.65545430910E-01  0.86375487221E-01 -0.69073347929E-01  0.12982675068E+00  0.18081191636E-01 0.  0.
         14    1    1    2    0    0 -0.20709869361E-01 -0.12408019720E-01  0.32384985543E-02  0.24358684595E-01  0.00000000000E+00 0.  1.
     999901    1    3    3    0    0  0.86255300271E-01 -0.73967467501E-01  0.65834849375E-01  0.88974456473E+00  0.88000000000E+00 0. -1.
        -11    1    4    4    0    0 -0.17823453568E-01  0.17867358253E-01 -0.83503381105E-02  0.26587727537E-01  0.51100000000E-03 0. -1.
         11    1    4    4    0    0 -0.47721977342E-01  0.68508128967E-01 -0.60723009818E-01  0.10323902314E+00  0.51100000000E-03 0.  1.
</event>
<event>
 8    1  0.1088021E+005  0.1043930E+01  0.7957747E-01            NaN
         13   -1    0    0    0    0  0.00000000000E+00  0.00000000000E+00  0.74505805969E-08  0.10566000000E+00  0.10566000000E+00 0. -1.
     999900   -1    0    0    0    0 -0.00000000000E+00 -0.00000000000E+00 -0.74505805969E-08  0.93827000000E+00  0.93827000000E+00 0.  1.
     999902    2    1    2    0    0  0.59472758701E-02  0.13165853634E-01 -0.20346534033E-01  0.10189762179E+01  0.10186706246E+01 0.  0.
     999903    2    3    3    0    0 -0.49287776171E-01 -0.11590892163E+00  0.51315850115E-02  0.12748289596E+00  0.19010328890E-01 0.  0.
         14    1    1    2    0    0 -0.59472758701E-02 -0.13165853634E-01  0.20346534033E-01  0.24953782065E-01  0.00000000000E+00 0. -1.
     999901    1    3    3    0    0  0.55235052041E-01  0.12907477526E+00 -0.25478119044E-01  0.89149332198E+00  0.88000000000E+00 0. -1.
        -11    1    4    4    0    0 -0.18975796891E-01 -0.67814776544E-01  0.54277756847E-02  0.70630352223E-01  0.51100000000E-03 0. -1.
         11    1    4    4    0    0 -0.30311979281E-01 -0.48094145082E-01 -0.29619067318E-03  0.56852543733E-01  0.51100000000E-03 0.  1.
</event>
<event>
 8    1  0.1088021E+005  0.1043930E+01  0.7957747E-01            NaN
         13   -1    0    0    0    0  0.00000000000E+00  0.00000000000E+00  0.74505805969E-08  0.10566000000E+00  0.10566000000E+00 0. -1.
     999900   -1    0    0    0    0 -0.00000000000E+00 -0.00000000000E+00 -0.74505805969E-08  0.93827000000E+00  0.93827000000E+00 0. -1.
     999902    2    1    2    0    0 -0.88058656072E-03 -0.95003060852E-03 -0.23837592955E-01  0.10200572367E+01  0.10197778470E+01 0.  0.
     999903    2    3    3    0    0  0.12545859291E+00 -0.55340831916E-02  0.25796630120E-01  0.12963814551E+00  0.19237932188E-01 0.  0.
         14    1    1    2    0    0  0.88058656072E-03  0.95003060852E-03  0.23837592955E-01  0.23872763324E-01  0.00000000000E+00 0. -1.
     999901    1    3    3    0    0 -0.12633917947E+00  0.45840525831E-02 -0.49634223074E-01  0.89041909116E+00  0.88000000000E+00 0. -1.
        -11    1    4    4    0    0  0.30185393133E-01 -0.68411655312E-02  0.12698655199E-01  0.33458578411E-01  0.51100000000E-03 0. -1.
         11    1    4    4    0    0  0.95273199777E-01  0.13070823396E-02  0.13097974921E-01  0.96179567102E-01  0.51100000000E-03 0.  1.
</event>
<event>
 8    1  0.1088021E+005  0.1043930E+01  0.7957747E-01            NaN
         13   -1    0    0    0    0  0.00000000000E+00  0.00000000000E+00  0.74505805969E-08  0.10566000000E+00  0.10566000000E+00 0.  1.
     999900   -1    0    0    0    0 -0.00000000000E+00 -0.00000000000E+00 -0.74505805969E-08  0.93827000000E+00  0.93827000000E+00 0. -1.
     999902    2    1    2    0    0 -0.14015157086E-02 -0.18798723617E-01  0.14453700761E-01  0.10201757220E+01  0.10198991313E+01 0.  0.
     999903    2    3    3    0    0  0.25214213384E-01  0.54914482870E-01  0.11445740025E+00  0.13105099864E+00  0.20555067153E-01 0.  0.
         14    1    1    2    0    0  0.14015157086E-02  0.18798723617E-01 -0.14453700761E-01  0.23754277964E-01  0.00000000000E+00 0. -1.
     999901    1    3    3    0    0 -0.26615729092E-01 -0.73713206487E-01 -0.10000369949E+00  0.88912472340E+00  0.88000000000E+00 0. -1.
        -11    1    4    4    0    0  0.11619059945E-01  0.39541215243E-01  0.90875948816E-01  0.99785817885E-01  0.51100000000E-03 0. -1.
         11    1    4    4    0    0  0.13595153439E-01  0.15373267627E-01  0.23581451438E-01  0.31265180753E-01  0.51100000000E-03 0.  1.
</event>
<event>
 8    1  0.1088021E+005  0.1043930E+01  0.7957747E-01            NaN
         13   -1    0    0    0    0  0.00000000000E+00  0.00000000000E+00  0.74505805969E-08  0.10566000000E+00  0.10566000000E+00 0. -1.
     999900   -1    0    0    0    0 -0.00000000000E+00 -0.00000000000E+00 -0.74505805969E-08  0.93827000000E+00  0.93827000000E+00 0.  1.
     999902    2    1    2    0    0 -0.20258139510E-01 -0.96511973794E-02  0.60303073427E-03  0.10214822501E+01  0.10212355683E+01 0.  0.
     999903    2    3    3    0    0  0.10286212305E+00 -0.58677605534E-01 -0.50125412109E-01  0.13011500672E+00  0.19841378096E-01 0.  0.
         14    1    1    2    0    0  0.20258139510E-01  0.96511973794E-02 -0.60303073427E-03  0.22447749850E-01  0.00000000000E+00 0.  1.
     999901    1    3    3    0    0 -0.12312026256E+00  0.49026408155E-01  0.50728442843E-01  0.89136724343E+00  0.88000000000E+00 0.  1.
        -11    1    4    4    0    0  0.78025448555E-01 -0.49040167884E-01 -0.30690056269E-01  0.97134182259E-01  0.51100000000E-03 0.  1.
         11    1    4    4    0    0  0.24836674494E-01 -0.96374376502E-02 -0.19435355840E-01  0.32980824459E-01  0.51100000000E-03 0. -1.
</event>
<event>
 8    1  0.1088021E+005  0.1043930E+01  0.7957747E-01            NaN
         13   -1    0    0    0    0  0.00000000000E+00  0.00000000000E+00  0.74505805969E-08  0.10566000000E+00  0.10566000000E+00 0.  1.
     999900   -1    0    0    0    0 -0.00000000000E+00 -0.00000000000E+00 -0.74505805969E-08  0.93827000000E+00  0.93827000000E+00 0. -1.
     999902    2    1    2    0    0  0.11320626766E-01 -0.15404121349E-01 -0.14286292966E-01  0.10200649270E+01  0.10197857194E+01 0.  0.
     999903    2    3    3    0    0 -0.98876719695E-01 -0.80146959967E-02  0.78848742886E-01  0.12828457637E+00  0.19974164083E-01 0.  0.
         14    1    1    2    0    0 -0.11320626766E-01  0.15404121349E-01  0.14286292966E-01  0.23865073049E-01  0.00000000000E+00 0. -1.
     999901    1    3    3    0    0  0.11019734646E+00 -0.73894253525E-02 -0.93135035853E-01  0.89178035058E+00  0.88000000000E+00 0. -1.
        -11    1    4    4    0    0 -0.66416415429E-01 -0.24627241270E-02  0.40915890857E-01  0.78048552159E-01  0.51100000000E-03 0.  1.
         11    1    4    4    0    0 -0.32460304267E-01 -0.55519718697E-02  0.37932852030E-01  0.50236024214E-01  0.51100000000E-03 0. -1.
</event>
<event>
 8    1  0.1088021E+005  0.1043930E+01  0.7957747E-01            NaN
         13   -1    0    0    0    0  0.00000000000E+00  0.00000000000E+00  0.74505805969E-08  0.10566000000E+00  0.10566000000E+00 0.  1.
     999900   -1    0    0    0    0 -0.00000000000E+00 -0.00000000000E+00 -0.74505805969E-08  0.93827000000E+00  0.93827000000E+00 0. -1.
     999902    2    1    2    0    0 -0.13353917715E-01  0.10467416919E-01  0.15462128945E-01  0.10209741431E+01  0.10207160376E+01 0.  0.
     999903    2    3    3    0    0  0.11243963115E+00 -0.29110318119E-04 -0.59342696227E-01  0.12882507713E+00  0.20776751445E-01 0.  0.
         14    1    1    2    0    0  0.13353917715E-01 -0.10467416919E-01 -0.15462128945E-01  0.22955856917E-01  0.00000000000E+00 0. -1.
     999901    1    3    3    0    0 -0.12579354886E+00  0.10496527237E-01  0.74804825172E-01  0.89214906596E+00  0.88000000000E+00 0.  1.
        -11    1    4    4    0    0  0.95028287916E-01 -0.73574290608E-02 -0.47181483289E-01  0.10635253054E+00  0.51100000000E-03 0.  1.
         11    1    4    4    0    0  0.17411343233E-01  0.73283187427E-02 -0.12161212938E-01  0.22472546582E-01  0.51100000000E-03 0. -1.
</event>
<event>
 8    1  0.1088021E+005  0.1043930E+01  0.7957747E-01            NaN
         13   -1    0    0    0    0  0.00000000000E+00  0.00000000000E+00  0.74505805969E-08  0.10566000000E+00  0.10566000000E+00 0. -1.
     999900   -1    0    0    0    0 -0.00000000000E+00 -0.00000000000E+00 -0.74505805969E-08  0.93827000000E+00  0.93827000000E+00 0. -1.
     999902    2    1    2    0    0 -0.12665370454E-01  0.19504083333E-01 -0.32358527153E-02  0.10204504000E+01  0.10201802425E+01 0.  0.
     999903    2    3    3    0    0  0.41259589121E-01 -0.84134384543E-02  0.12086601393E+00  0.12967065019E+00  0.20802513201E-01 0.  0.
         14    1    1    2    0    0  0.12665370454E-01 -0.19504083333E-01  0.32358527153E-02  0.23479600044E-01  0.00000000000E+00 0.  1.
     999901    1    3    3    0    0 -0.53924959575E-01  0.27917521788E-01 -0.12410186665E+00  0.89077974977E+00  0.88000000000E+00 0. -1.
        -11    1    4    4    0    0  0.28731631095E-01 -0.11224353844E-04  0.54520553728E-01  0.61630014207E-01  0.51100000000E-03 0.  1.
         11    1    4    4    0    0  0.12527958026E-01 -0.84022141004E-02  0.66345460206E-01  0.68040635983E-01  0.51100000000E-03 0. -1.
</event>
<event>
 8    1  0.1088021E+005  0.1043930E+01  0.7957747E-01            NaN
         13   -1    0    0    0    0  0.00000000000E+00  0.00000000000E+00  0.74505805969E-08  0.10566000000E+00  0.10566000000E+00 0. -1.
     999900   -1    0    0    0    0 -0.00000000000E+00 -0.00000000000E+00 -0.74505805969E-08  0.93827000000E+00  0.93827000000E+00 0.  1.
     999902    2    1    2    0    0  0.62651696682E-02 -0.24121366969E-01  0.76421330090E-02  0.10178628772E+01  0.10175290373E+01 0.  0.
     999903    2    3    3    0    0 -0.79643805895E-02 -0.43062894758E-01  0.12115683757E+00  0.13025550354E+00  0.19226873109E-01 0.  0.
         14    1    1    2    0    0 -0.62651696682E-02  0.24121366969E-01 -0.76421330090E-02  0.26067122825E-01  0.00000000000E+00 0.  1.
     999901    1    3    3    0    0  0.14229550258E-01  0.18941527789E-01 -0.11351470456E+00  0.88760737363E+00  0.88000000000E+00 0.  1.
        -11    1    4    4    0    0 -0.77801613442E-02 -0.52496552327E-02  0.33393940187E-01  0.34691586196E-01  0.51100000000E-03 0.  1.
         11    1    4    4    0    0 -0.18421924523E-03 -0.37813239525E-01  0.87762897385E-01  0.95563917346E-01  0.51100000000E-03 0. -1.
</event>
<event>
 8    1  0.1088021E+005  0.1043930E+01  0.7957747E-01            NaN
         13   -1    0    0    0    0  0.00000000000E+00  0.00000000000E+00  0.74505805969E-08  0.10566000000E+00  0.10566000000E+00 0. -1.
     999900   -1    0    0    0    0 -0.00000000000E+00 -0.00000000000E+00 -0.74505805969E-08  0.93827000000E+00  0.93827000000E+00 0. -1.
     999902    2    1    2    0    0  0.57236916235E-02  0.20173780728E-01  0.93313956471E-02  0.10209775052E+01  0.10207194762E+01 0.  0.
     999903    2    3    3    0    0 -0.51232851699E-01 -0.90995371153E-01 -0.72035278941E-01  0.12844001917E+00  0.20069739624E-01 0.  0.
         14    1    1    2    0    0 -0.57236916235E-02 -0.20173780728E-01 -0.93313956471E-02  0.22952494840E-01  0.00000000000E+00 0.  1.
     999901    1    3    3    0    0  0.56956543323E-01  0.11116915188E+00  0.81366674588E-01  0.89253748599E+00  0.88000000000E+00 0.  1.
        -11    1    4    4    0    0 -0.54582456707E-03 -0.27936919977E-02 -0.73194546769E-02  0.78700811433E-02  0.51100000000E-03 0.  1.
         11    1    4    4    0    0 -0.50687027132E-01 -0.88201679156E-01 -0.64715824264E-01  0.12056993803E+00  0.51100000000E-03 0. -1.
</event>
<event>
 8    1  0.1088021E+005  0.1043930E+01  0.7957747E-01            NaN
         13   -1    0    0    0    0  0.00000000000E+00  0.00000000000E+00  0.74505805969E-08  0.10566000000E+00  0.10566000000E+00 0.  1.
     999900   -1    0    0    0    0 -0.00000000000E+00 -0.00000000000E+00 -0.74505805969E-08  0.93827000000E+00  0.93827000000E+00 0.  1.
     999902    2    1    2    0    0 -0.13614825798E-01 -0.13345362249E-01  0.32447287398E-02  0.10245911676E+01  0.10244086442E+01 0.  0.
     999903    2    3    3    0    0 -0.93135730650E-01 -0.62820258683E-01 -0.74219221475E-01  0.13623763250E+00  0.20773792367E-01 0.  0.
         14    1    1    2    0    0  0.13614825798E-01  0.13345362249E-01 -0.32447287398E-02  0.19338832427E-01  0.00000000000E+00 0. -1.
     999901    1    3    3    0    0  0.79520904852E-01  0.49474896434E-01  0.77463950215E-01  0.88835353507E+00  0.88000000000E+00 0. -1.
        -11    1    4    4    0    0 -0.17117336300E-01 -0.19642899309E-01 -0.23926952979E-01  0.35378056690E-01  0.51100000000E-03 0.  1.
         11    1    4    4    0    0 -0.76018394350E-01 -0.43177359374E-01 -0.50292268496E-01  0.10085957581E+00  0.51100000000E-03 0. -1.
</event>
<event>
 8    1  0.1088021E+005  0.1043930E+01  0.7957747E-01            NaN
         13   -1    0    0    0    0  0.00000000000E+00  0.00000000000E+00  0.74505805969E-08  0.10566000000E+00  0.10566000000E+00 0. -1.
     999900   -1    0    0    0    0 -0.00000000000E+00 -0.00000000000E+00 -0.74505805969E-08  0.93827000000E+00  0.93827000000E+00 0.  1.
     999902    2    1    2    0    0  0.21062465549E-01 -0.12143367785E-01 -0.31218998566E-02  0.10194180622E+01  0.10191233244E+01 0.  0.
     999903    2    3    3    0    0  0.61409432508E-01  0.32433174372E-01  0.10846199759E+00  0.13033656311E+00  0.20014633675E-01 0.  0.
         14    1    1    2    0    0 -0.21062465549E-01  0.12143367785E-01  0.31218998566E-02  0.24511937804E-01  0.00000000000E+00 0.  1.
     999901    1    3    3    0    0 -0.40346966959E-01 -0.44576542157E-01 -0.11158389744E+00  0.88908149909E+00  0.88000000000E+00 0.  1.
        -11    1    4    4    0    0  0.11840303965E-02  0.34811952612E-02  0.14933782565E-01  0.15388295264E-01  0.51100000000E-03 0. -1.
         11    1    4    4    0    0  0.60225402112E-01  0.28951979111E-01  0.93528215022E-01  0.11494826784E+00  0.51100000000E-03 0.  1.
</event>
<event>
 8    1  0.1088021E+005  0.1043930E+01  0.7957747E-01            NaN
         13   -1    0    0    0    0  0.00000000000E+00  0.00000000000E+00  0.74505805969E-08  0.10566000000E+00  0.10566000000E+00 0. -1.
     999900   -1    0    0    0    0 -0.00000000000E+00 -0.00000000000E+00 -0.74505805969E-08  0.93827000000E+00  0.93827000000E+00 0. -1.
     999902    2    1    2    0    0  0.13158737217E-01  0.94031869687E-02 -0.16912902114E-01  0.10205287490E+01  0.10202604123E+01 0.  0.
     999903    2    3    3    0    0 -0.90200091007E-01  0.87997542452E-01 -0.29268586676E-01  0.13091490973E+00  0.20060895497E-01 0.  0.
         14    1    1    2    0    0 -0.13158737217E-01 -0.94031869687E-02  0.16912902114E-01  0.23401250997E-01  0.00000000000E+00 0. -1.
     999901    1    3    3    0    0  0.10335882822E+00 -0.78594355484E-01  0.12355684562E-01  0.88961383927E+00  0.88000000000E+00 0. -1.
        -11    1    4    4    0    0 -0.81244553290E-01  0.86066186445E-01 -0.26037394440E-01  0.12118693378E+00  0.51100000000E-03 0.  1.
         11    1    4    4    0    0 -0.89555377169E-02  0.19313560069E-02 -0.32311922362E-02  0.97279759504E-02  0.51100000000E-03 0. -1.
</event>
<event>
 8    1  0.1088021E+005  0.1043930E+01  0.7957747E-01            NaN
         13   -1    0    0    0    0  0.00000000000E+00  0.00000000000E+00  0.74505805969E-08  0.10566000000E+00  0.10566000000E+00 0. -1.
     999900   -1    0    0    0    0 -0.00000000000E+00 -0.00000000000E+00 -0.74505805969E-08  0.93827000000E+00  0.93827000000E+00 0.  1.
     999902    2    1    2    0    0  0.11202786331E-02  0.21867553585E-01  0.72143557874E-02  0.10208758929E+01  0.10206155480E+01 0.  0.
     999903    2    3    3    0    0 -0.78207612369E-01 -0.98750974047E-01 -0.16462523371E-01  0.12879835251E+00  0.21208852505E-01 0.  0.
         14    1    1    2    0    0 -0.11202786331E-02 -0.21867553585E-01 -0.72143557874E-02  0.23054107084E-01  0.00000000000E+00 0. -1.
     999901    1    3    3    0    0  0.79327891002E-01  0.12061852763E+00  0.23676879158E-01  0.89207754041E+00  0.88000000000E+00 0.  1.
        -11    1    4    4    0    0 -0.77395777713E-01 -0.94490269258E-01 -0.19202442585E-01  0.12364267999E+00  0.51100000000E-03 0. -1.
         11    1    4    4    0    0 -0.81183465584E-03 -0.42607047892E-02  0.27399192142E-02  0.51556725177E-02  0.51100000000E-03 0.  1.
</event>
<event>
 8    1  0.1088021E+005  0.1043930E+01  0.7957747E-01            NaN
         13   -1    0    0    0    0  0.00000000000E+00  0.00000000000E+00  0.74505805969E-08  0.10566000000E+00  0.10566000000E+00 0.  1.
     999900   -1    0    0    0    0 -0.00000000000E+00 -0.00000000000E+00 -0.74505805969E-08  0.93827000000E+00  0.93827000000E+00 0. -1.
     999902    2    1    2    0    0  0.24737956181E-02 -0.24670667194E-01  0.47266373033E-02  0.10186891089E+01  0.10183763538E+01 0.  0.
     999903    2    3    3    0    0  0.24908311232E-01 -0.12318029973E+00 -0.35029769632E-01  0.13201666254E+00  0.20186733723E-01 0.  0.
         14    1    1    2    0    0 -0.24737956181E-02  0.24670667194E-01 -0.47266373033E-02  0.25240891125E-01  0.00000000000E+00 0. -1.
     999901    1    3    3    0    0 -0.22434515614E-01  0.98509632536E-01  0.39756406935E-01  0.88667244633E+00  0.88000000000E+00 0. -1.
        -11    1    4    4    0    0  0.36648370908E-03 -0.98301231627E-02 -0.85756239253E-02  0.13060171454E-01  0.51100000000E-03 0.  1.
         11    1    4    4    0    0  0.24541827523E-01 -0.11335017657E+00 -0.26454145706E-01  0.11895649109E+00  0.51100000000E-03 0. -1.
</event>
<event>
 8    1  0.1088021E+005  0.1043930E+01  0.7957747E-01            NaN
         13   -1    0    0    0    0  0.00000000000E+00  0.00000000000E+00  0.74505805969E-08  0.10566000000E+00  0.10566000000E+00 0.  1.
     999900   -1    0    0    0    0 -0.00000000000E+00 -0.00000000000E+00 -0.74505805969E-08  0.93827000000E+00  0.93827000000E+00 0.  1.
     999902    2    1    2    0    0 -0.19016784709E-01 -0.11445616370E-01 -0.11961083590E-01  0.10187167544E+01  0.10184046926E+01 0.  0.
     999903    2    3    3    0    0 -0.23886207226E-01  0.11927004869E+00 -0.37183450075E-01  0.12869065130E+00  0.19564747941E-01 0.  0.
         14    1    1    2    0    0  0.19016784709E-01  0.11445616370E-01  0.11961083590E-01  0.25213245634E-01  0.00000000000E+00 0. -1.
     999901    1    3    3    0    0  0.48694225174E-02 -0.13071566506E+00  0.25222366485E-01  0.89002610307E+00  0.88000000000E+00 0.  1.
        -11    1    4    4    0    0 -0.86181417265E-02  0.23413257555E-01 -0.60735980230E-03  0.24961630617E-01  0.51100000000E-03 0. -1.
         11    1    4    4    0    0 -0.15268065500E-01  0.95856791136E-01 -0.36576090272E-01  0.10372902068E+00  0.51100000000E-03 0.  1.
</event>
<event>
 8    1  0.1088021E+005  0.1043930E+01  0.7957747E-01            NaN
         13   -1    0    0    0    0  0.00000000000E+00  0.00000000000E+00  0.74505805969E-08  0.10566000000E+00  0.10566000000E+00 0. -1.
     999900   -1    0    0    0    0 -0.00000000000E+00 -0.00000000000E+00 -0.74505805969E-08  0.93827000000E+00  0.93827000000E+00 0. -1.
     999902    2    1    2    0    0 -0.16514169909E-01 -0.15776976055E-01 -0.65967532114E-02  0.10201571597E+01  0.10198801315E+01 0.  0.
     999903    2    3    3    0    0  0.42478825453E-01  0.11662281865E+00 -0.24549231694E-01  0.12811894832E+00  0.20161044173E-01 0.  0.
         14    1    1    2    0    0  0.16514169909E-01  0.15776976055E-01  0.65967532114E-02  0.23772840263E-01  0.00000000000E+00 0.  1.
     999901    1    3    3    0    0 -0.58992995362E-01 -0.13239979470E+00  0.17952478483E-01  0.89203821141E+00  0.88000000000E+00 0. -1.
        -11    1    4    4    0    0  0.40955961985E-01  0.88782906110E-01 -0.17155158866E-01  0.99269108167E-01  0.51100000000E-03 0.  1.
         11    1    4    4    0    0  0.15228634682E-02  0.27839912535E-01 -0.73940728279E-02  0.28849840157E-01  0.51100000000E-03 0. -1.
</event>
<event>
 8    1  0.1088021E+005  0.1043930E+01  0.7957747E-01            NaN
         13   -1    0    0    0    0  0.00000000000E+00  0.00000000000E+00  0.74505805969E-08  0.10566000000E+00  0.10566000000E+00 0.  1.
     999900   -1    0    0    0    0 -0.00000000000E+00 -0.00000000000E+00 -0.74505805969E-08  0.93827000000E+00  0.93827000000E+00 0. -1.
     999902    2    1    2    0    0 -0.11563885598E-01  0.22496028732E-01 -0.82567771261E-02  0.10173223107E+01  0.10169742941E+01 0.  0.
     999903    2    3    3    0    0 -0.74322609714E-01 -0.37560298234E-01 -0.96136392562E-01  0.12868951444E+00  0.19599970268E-01 0.  0.
         14    1    1    2    0    0  0.11563885598E-01 -0.22496028732E-01  0.82567771261E-02  0.26607689252E-01  0.00000000000E+00 0.  1.
     999901    1    3    3    0    0  0.62758724116E-01  0.60056326966E-01  0.87879615436E-01  0.88863279631E+00  0.88000000000E+00 0.  1.
        -11    1    4    4    0    0 -0.53321206380E-01 -0.16554363171E-01 -0.61928783947E-01  0.83382452543E-01  0.51100000000E-03 0.  1.
         11    1    4    4    0    0 -0.21001403333E-01 -0.21005935063E-01 -0.34207608615E-01  0.45307061899E-01  0.51100000000E-03 0. -1.
</event>
<event>
 8    1  0.1088021E+005  0.1043930E+01  0.7957747E-01            NaN
         13   -1    0    0    0    0  0.00000000000E+00  0.00000000000E+00  0.74505805969E-08  0.10566000000E+00  0.10566000000E+00 0.  1.
     999900   -1    0    0    0    0 -0.00000000000E+00 -0.00000000000E+00 -0.74505805969E-08  0.93827000000E+00  0.93827000000E+00 0. -1.
     999902    2    1    2    0    0 -0.21828742093E-01  0.95681437498E-03  0.10986124380E-02  0.10220526961E+01  0.10218185246E+01 0.  0.
     999903    2    3    3    0    0  0.21492916006E-01 -0.12560607661E+00 -0.26630097248E-01  0.13151139289E+00  0.18634711184E-01 0.  0.
         14    1    1    2    0    0  0.21828742093E-01 -0.95681437498E-03 -0.10986124380E-02  0.21877303865E-01  0.00000000000E+00 0.  1.
     999901    1    3    3    0    0 -0.43321658099E-01  0.12656289099E+00  0.27728709686E-01  0.89054130324E+00  0.88000000000E+00 0. -1.
        -11    1    4    4    0    0  0.11400359351E-01 -0.59020138826E-01 -0.31804923603E-02  0.60197355698E-01  0.51100000000E-03 0. -1.
         11    1    4    4    0    0  0.10092556655E-01 -0.66585937788E-01 -0.23449604888E-01  0.71314037197E-01  0.51100000000E-03 0.  1.
</event>
<event>
 8    1  0.1088021E+005  0.1043930E+01  0.7957747E-01            NaN
         13   -1    0    0    0    0  0.00000000000E+00  0.00000000000E+00  0.74505805969E-08  0.10566000000E+00  0.10566000000E+00 0. -1.
     999900   -1    0    0    0    0 -0.00000000000E+00 -0.00000000000E+00 -0.74505805969E-08  0.93827000000E+00  0.93827000000E+00 0.  1.
     999902    2    1    2    0    0  0.72330004971E-02 -0.67770436899E-02  0.22122122641E-01  0.10196888588E+01  0.10194006748E+01 0.  0.
     999903    2    3    3    0    0  0.16491867300E-01 -0.12704792609E+00  0.21042216281E-01  0.13145917117E+00  0.20629629332E-01 0.  0.
         14    1    1    2    0    0 -0.72330004971E-02  0.67770436899E-02 -0.22122122641E-01  0.24241141217E-01  0.00000000000E+00 0.  1.
     999901    1    3    3    0    0 -0.92588668032E-02  0.12027088240E+00  0.10799063596E-02  0.88822968762E+00  0.88000000000E+00 0. -1.
        -11    1    4    4    0    0 -0.24324713044E-02 -0.57008602677E-01  0.61436106593E-02  0.57392532344E-01  0.51100000000E-03 0. -1.
         11    1    4    4    0    0  0.18924338605E-01 -0.70039323413E-01  0.14898605622E-01  0.74066638821E-01  0.51100000000E-03 0.  1.
</event>
<event>
 8    1  0.1088021E+005  0.1043930E+01  0.7957747E-01            NaN
         13   -1    0    0    0    0  0.00000000000E+00  0.00000000000E+00  0.74505805969E-08  0.10566000000E+00  0.10566000000E+00 0. -1.
     999900   -1    0    0    0    0 -0.00000000000E+00 -0.00000000000E+00 -0.74505805969E-08  0.93827000000E+00  0.93827000000E+00 0.  1.
     999902    2    1    2    0    0 -0.10891175090E-01  0.13665639069E-01  0.16271414675E-01  0.10200526819E+01  0.10197731843E+01 0.  0.
     999903    2    3    3    0    0  0.11465305904E+00  0.42300908695E-01 -0.35806405741E-01  0.12915794466E+00  0.21563514414E-01 0.  0.
         14    1    1    2    0    0  0.10891175090E-01 -0.13665639069E-01 -0.16271414675E-01  0.23877318139E-01  0.00000000000E+00 0.  1.
     999901    1    3    3    0    0 -0.12554423413E+00 -0.28635269626E-01  0.52077820416E-01  0.89089473720E+00  0.88000000000E+00 0. -1.
        -11    1    4    4    0    0  0.82023125343E-01  0.30347140145E-01 -0.15246581894E-01  0.88777595070E-01  0.51100000000E-03 0. -1.
         11    1    4    4    0    0  0.32629933696E-01  0.11953768549E-01 -0.20559823847E-01  0.40380349591E-01  0.51100000000E-03 0.  1.
</event>
<event>
 8    1  0.1088021E+005  0.1043930E+01  0.7957747E-01            NaN
         13   -1    0    0    0    0  0.00000000000E+00  0.00000000000E+00  0.74505805969E-08  0.10566000000E+00  0.10566000000E+00 0. -1.
     999900   -1    0    0    0    0 -0.00000000000E+00 -0.00000000000E+00 -0.74505805969E-08  0.93827000000E+00  0.93827000000E+00 0. -1.
     999902    2    1    2    0    0  0.14927552357E-01  0.16448246593E-01  0.89389662657E-02  0.10199866971E+01  0.10197056343E+01 0.  0.
     999903    2    3    3    0    0 -0.35574173634E-01  0.11963484137E+00 -0.38797944037E-01  0.13123661397E+00  0.11821644818E-01 0.  0.
         14    1    1    2    0    0 -0.14927552357E-01 -0.16448246593E-01 -0.89389662657E-02  0.23943302889E-01  0.00000000000E+00 0.  1.
     999901    1    3    3    0    0  0.50501725990E-01 -0.10318659478E+00  0.47736910303E-01  0.88875008314E+00  0.88000000000E+00 0.  1.
        -11    1    4    4    0    0 -0.38609564928E-02  0.62888736009E-02 -0.44270760274E-02  0.86207331103E-02  0.51100000000E-03 0. -1.
         11    1    4    4    0    0 -0.31713217141E-01  0.11334596777E+00 -0.34370868010E-01  0.12261588086E+00  0.51100000000E-03 0.  1.
</event>
<event>
 8    1  0.1088021E+005  0.1043930E+01  0.7957747E-01            NaN
         13   -1    0    0    0    0  0.00000000000E+00  0.00000000000E+00  0.74505805969E-08  0.10566000000E+00  0.10566000000E+00 0.  1.
     999900   -1    0    0    0    0 -0.00000000000E+00 -0.00000000000E+00 -0.74505805969E-08  0.93827000000E+00  0.93827000000E+00 0.  1.
     999902    2    1    2    0    0  0.83195444936E-02  0.21179591865E-01  0.76950384263E-02  0.10199091018E+01  0.10196261925E+01 0.  0.
     999903    2    3    3    0    0 -0.10186093097E+00  0.79408259262E-01  0.49147447700E-02  0.13112451325E+00  0.22094396636E-01 0.  0.
         14    1    1    2    0    0 -0.83195444936E-02 -0.21179591865E-01 -0.76950384263E-02  0.24020898162E-01  0.00000000000E+00 0. -1.
     999901    1    3    3    0    0  0.11018047546E+00 -0.58228667397E-01  0.27802936563E-02  0.88878458859E+00  0.88000000000E+00 0. -1.
        -11    1    4    4    0    0 -0.33915690306E-01  0.22143236751E-01 -0.81206787120E-02  0.41313478751E-01  0.51100000000E-03 0.  1.
         11    1    4    4    0    0 -0.67945240659E-01  0.57265022511E-01  0.13035423482E-01  0.89811034498E-01  0.51100000000E-03 0. -1.
</event>
<event>
 8    1  0.1088021E+005  0.1043930E+01  0.7957747E-01            NaN
         13   -1    0    0    0    0  0.00000000000E+00  0.00000000000E+00  0.74505805969E-08  0.10566000000E+00  0.10566000000E+00 0. -1.
     999900   -1    0    0    0    0 -0.00000000000E+00 -0.00000000000E+00 -0.74505805969E-08  0.93827000000E+00  0.93827000000E+00 0. -1.
     999902    2    1    2    0    0 -0.15826972857E-02 -0.44092268836E-03 -0.23833018760E-01  0.10200404180E+01  0.10197606299E+01 0.  0.
     999903    2    3    3    0    0  0.84716060851E-01  0.58298528360E-01 -0.80452365244E-01  0.13206319469E+00  0.19813504094E-01 0.  0.
         14    1    1    2    0    0  0.15826972857E-02  0.44092268836E-03  0.23833018760E-01  0.23889581971E-01  0.00000000000E+00 0. -1.
     999901    1    3    3    0    0 -0.86298758137E-01 -0.58739451048E-01  0.56619346483E-01  0.88797722333E+00  0.88000000000E+00 0.  1.
        -11    1    4    4    0    0  0.72745686795E-01  0.55151479172E-01 -0.64092648156E-01  0.11154258949E+00  0.51100000000E-03 0.  1.
         11    1    4    4    0    0  0.11970374057E-01  0.31470491876E-02 -0.16359717088E-01  0.20520605202E-01  0.51100000000E-03 0. -1.
</event>
<event>
 8    1  0.1088021E+005  0.1043930E+01  0.7957747E-01            NaN
         13   -1    0    0    0    0  0.00000000000E+00  0.00000000000E+00  0.74505805969E-08  0.10566000000E+00  0.10566000000E+00 0.  1.
     999900   -1    0    0    0    0 -0.00000000000E+00 -0.00000000000E+00 -0.74505805969E-08  0.93827000000E+00  0.93827000000E+00 0.  1.
     999902    2    1    2    0    0 -0.21481903033E-01 -0.10479816575E-01  0.12344959477E-03  0.10200278253E+01  0.10197477387E+01 0.  0.
     999903    2    3    3    0    0 -0.45210862045E-01 -0.12265826513E+00  0.94191003171E-02  0.13254065533E+00  0.19729009456E-01 0.  0.
         14    1    1    2    0    0  0.21481903033E-01  0.10479816575E-01 -0.12344959477E-03  0.23902174653E-01  0.00000000000E+00 0.  1.
     999901    1    3    3    0    0  0.23728959012E-01  0.11217844855E+00 -0.92956507223E-02  0.88748717001E+00  0.88000000000E+00 0. -1.
        -11    1    4    4    0    0 -0.34217344439E-01 -0.10974905011E+00  0.52930348254E-02  0.11508239657E+00  0.51100000000E-03 0.  1.
         11    1    4    4    0    0 -0.10993517605E-01 -0.12909215016E-01  0.41260654917E-02  0.17458258765E-01  0.51100000000E-03 0. -1.
</event>
<event>
 8    1  0.1088021E+005  0.1043930E+01  0.7957747E-01            NaN
         13   -1    0    0    0    0  0.00000000000E+00  0.00000000000E+00  0.74505805969E-08  0.10566000000E+00  0.10566000000E+00 0.  1.
     999900   -1    0    0    0    0 -0.00000000000E+00 -0.00000000000E+00 -0.74505805969E-08  0.93827000000E+00  0.93827000000E+00 0. -1.
     999902    2    1    2    0    0 -0.66469591916E-02 -0.22341580125E-01 -0.67556280835E-02  0.10196613622E+01  0.10193725162E+01 0.  0.
     999903    2    3    3    0    0 -0.12566860721E+00 -0.43942645065E-02 -0.31632343626E-01  0.13111923614E+00  0.19486932132E-01 0.  0.
         14    1    1    2    0    0  0.66469591916E-02  0.22341580125E-01  0.67556280835E-02  0.24268637782E-01  0.00000000000E+00 0. -1.
     999901    1    3    3    0    0  0.11902164802E+00 -0.17947315619E-01  0.24876715542E-01  0.88854212608E+00  0.88000000000E+00 0.  1.
        -11    1    4    4    0    0 -0.82395352076E-01  0.63278045604E-02 -0.19378972366E-01  0.84881333903E-01  0.51100000000E-03 0.  1.
         11    1    4    4    0    0 -0.43273255137E-01 -0.10722069067E-01 -0.12253371260E-01  0.46237902239E-01  0.51100000000E-03 0. -1.
</event>
<event>
 8    1  0.1088021E+005  0.1043930E+01  0.7957747E-01            NaN
         13   -1    0    0    0    0  0.00000000000E+00  0.00000000000E+00  0.74505805969E-08  0.10566000000E+00  0.10566000000E+00 0.  1.
     999900   -1    0    0    0    0 -0.00000000000E+00 -0.00000000000E+00 -0.74505805969E-08  0.93827000000E+00  0.93827000000E+00 0.  1.
     999902    2    1    2    0    0  0.15771419961E-01 -0.91190442287E-02  0.30148937641E-02  0.10254642414E+01  0.10252979695E+01 0.  0.
     999903    2    3    3    0    0  0.91021520330E-01  0.85191935188E-01 -0.49367112404E-01  0.13568841965E+00  0.20776247415E-01 0.  0.
         14    1    1    2    0    0 -0.15771419961E-01  0.91190442287E-02 -0.30148937641E-02  0.18465758572E-01  0.00000000000E+00 0.  1.
     999901    1    3    3    0    0 -0.75250100370E-01 -0.94310979417E-01  0.52382006168E-01  0.88977582177E+00  0.88000000000E+00 0. -1.
        -11    1    4    4    0    0  0.56506136028E-01  0.45576634984E-01 -0.19175770299E-01  0.75087577886E-01  0.51100000000E-03 0. -1.
         11    1    4    4    0    0  0.34515384303E-01  0.39615300204E-01 -0.30191342105E-01  0.60600841767E-01  0.51100000000E-03 0.  1.
</event>
<event>
 8    1  0.1088021E+005  0.1043930E+01  0.7957747E-01            NaN
         13   -1    0    0    0    0  0.00000000000E+00  0.00000000000E+00  0.74505805969E-08  0.10566000000E+00  0.10566000000E+00 0. -1.
     999900   -1    0    0    0    0 -0.00000000000E+00 -0.00000000000E+00 -0.74505805969E-08  0.93827000000E+00  0.93827000000E+00 0.  1.
     999902    2    1    2    0    0 -0.16448502586E-01 -0.13228125716E-01  0.66869324380E-02  0.10217883738E+01  0.10215484468E+01 0.  0.
     999903    2    3    3    0    0 -0.35872382887E-01 -0.10578129815E+00  0.71344241866E-01  0.13436291519E+00  0.22065385497E-01 0.  0.
         14    1    1    2    0    0  0.16448502586E-01  0.13228125716E-01 -0.66869324380E-02  0.22141626244E-01  0.00000000000E+00 0.  1.
     999901    1    3    3    0    0  0.19423880301E-01  0.92553172437E-01 -0.64657309428E-01  0.88742545857E+00  0.88000000000E+00 0.  1.
        -11    1    4    4    0    0 -0.15442678020E-01 -0.24963525588E-01  0.27258942081E-01  0.40062013910E-01  0.51100000000E-03 0. -1.
         11    1    4    4    0    0 -0.20429704867E-01 -0.80817772566E-01  0.44085299785E-01  0.94300901276E-01  0.51100000000E-03 0.  1.
</event>
<event>
 8    1  0.1088021E+005  0.1043930E+01  0.7957747E-01            NaN
         13   -1    0    0    0    0  0.00000000000E+00  0.00000000000E+00  0.74505805969E-08  0.10566000000E+00  0.10566000000E+00 0.  1.
     999900   -1    0    0    0    0 -0.00000000000E+00 -0.00000000000E+00 -0.74505805969E-08  0.93827000000E+00  0.93827000000E+00 0.  1.
     999902    2    1    2    0    0 -0.18004430812E-01  0.12046978650E-01 -0.13611105170E-01  0.10183457977E+01  0.10180243672E+01 0.  0.
     999903    2    3    3    0    0 -0.78995521393E-01  0.93100837545E-01 -0.46502124393E-01  0.13190828703E+00  0.18146356738E-01 0.  0.
         14    1    1    2    0    0  0.18004430812E-01 -0.12046978650E-01  0.13611105170E-01  0.25584202301E-01  0.00000000000E+00 0.  1.
     999901    1    3    3    0    0  0.60991090581E-01 -0.81053858895E-01  0.32891019223E-01  0.88643751067E+00  0.88000000000E+00 0. -1.
        -11    1    4    4    0    0 -0.61375223300E-01  0.59502989436E-01 -0.33076965781E-01  0.91661718144E-01  0.51100000000E-03 0. -1.
         11    1    4    4    0    0 -0.17620298094E-01  0.33597848109E-01 -0.13425158611E-01  0.40246568887E-01  0.51100000000E-03 0.  1.
</event>
<event>
 8    1  0.1088021E+005  0.1043930E+01  0.7957747E-01            NaN
         13   -1    0    0    0    0  0.00000000000E+00  0.00000000000E+00  0.74505805969E-08  0.10566000000E+00  0.10566000000E+00 0.  1.
     999900   -1    0    0    0    0 -0.00000000000E+00 -0.00000000000E+00 -0.74505805969E-08  0.93827000000E+00  0.93827000000E+00 0. -1.
     999902    2    1    2    0    0  0.19527814356E-01 -0.13200513105E-01  0.60437216248E-03  0.10203513159E+01  0.10200788467E+01 0.  0.
     999903    2    3    3    0    0 -0.11824575021E+00 -0.22726518725E-01  0.37534284348E-01  0.12881549590E+00  0.26192697202E-01 0.  0.
         14    1    1    2    0    0 -0.19527814356E-01  0.13200513105E-01 -0.60437216248E-03  0.23578684134E-01  0.00000000000E+00 0.  1.
     999901    1    3    3    0    0  0.13777356456E+00  0.95260056196E-02 -0.36929912185E-01  0.89153581997E+00  0.88000000000E+00 0. -1.
        -11    1    4    4    0    0 -0.20959166306E-01  0.59553391328E-02  0.69981036793E-02  0.22890768719E-01  0.51100000000E-03 0.  1.
         11    1    4    4    0    0 -0.97286583899E-01 -0.28681857858E-01  0.30536180668E-01  0.10592472718E+00  0.51100000000E-03 0. -1.
</event>
<event>
 8    1  0.1088021E+005  0.1043930E+01  0.7957747E-01            NaN
         13   -1    0    0    0    0  0.00000000000E+00  0.00000000000E+00  0.74505805969E-08  0.10566000000E+00  0.10566000000E+00 0.  1.
     999900   -1    0    0    0    0 -0.00000000000E+00 -0.00000000000E+00 -0.74505805969E-08  0.93827000000E+00  0.93827000000E+00 0.  1.
     999902    2    1    2    0    0 -0.14496238579E-01  0.10505319090E-02 -0.18265337225E-01  0.10205876116E+01  0.10203206388E+01 0.  0.
     999903    2    3    3    0    0 -0.35159547395E-01 -0.55094795197E-01 -0.11427186743E+00  0.13334665005E+00  0.21251803748E-01 0.  0.
         14    1    1    2    0    0  0.14496238579E-01 -0.10505319090E-02  0.18265337225E-01  0.23342388357E-01  0.00000000000E+00 0.  1.
     999901    1    3    3    0    0  0.20663308816E-01  0.56145327106E-01  0.96006530206E-01  0.88724096159E+00  0.88000000000E+00 0. -1.
        -11    1    4    4    0    0 -0.27598204905E-01 -0.26831044500E-01 -0.75760621704E-01  0.84979402122E-01  0.51100000000E-03 0.  1.
         11    1    4    4    0    0 -0.75613424895E-02 -0.28263750697E-01 -0.38511245726E-01  0.48367247928E-01  0.51100000000E-03 0. -1.
</event>
<event>
 7    1  0.1088021E+005  0.1043930E+01  0.7957747E-01            NaN
         13   -1    0    0    0    0  0.00000000000E+00  0.00000000000E+00  0.74505805969E-08  0.10566000000E+00  0.10566000000E+00 0. -1.
     999900   -1    0    0    0    0 -0.00000000000E+00 -0.00000000000E+00 -0.74505805969E-08  0.93827000000E+00  0.93827000000E+00 0.  1.
     999902    2    1    2    0    0 -0.15432758572E-01 -0.10251119119E-01 -0.15280514627E-01  0.10199143883E+01  0.10196316049E+01 0.  0.
         14    1    1    2    0    0  0.15432758572E-01  0.10251119119E-01  0.15280514627E-01  0.24015611747E-01  0.00000000000E+00 0. -1.
     999901    1    3    3    0    0  0.73872571475E-02 -0.83540296418E-01 -0.99048822043E-01  0.88951909583E+00  0.88000000000E+00 0.  1.
        -11    1    3    3    0    0  0.72226110618E-02  0.42148141730E-01  0.74860234960E-01  0.86214545531E-01  0.51100000000E-03 0. -1.
         11    1    3    3    0    0 -0.30042626781E-01  0.31141035569E-01  0.89080724562E-02  0.44180746894E-01  0.51100000000E-03 0.  1.
</event>
<event>
 8    1  0.1088021E+005  0.1043930E+01  0.7957747E-01            NaN
         13   -1    0    0    0    0  0.00000000000E+00  0.00000000000E+00  0.74505805969E-08  0.10566000000E+00  0.10566000000E+00 0.  1.
     999900   -1    0    0    0    0 -0.00000000000E+00 -0.00000000000E+00 -0.74505805969E-08  0.93827000000E+00  0.93827000000E+00 0.  1.
     999902    2    1    2    0    0 -0.25293741600E-02  0.15906109369E-01  0.16158131008E-01  0.10211158104E+01  0.10208609166E+01 0.  0.
     999903    2    3    3    0    0 -0.10532744885E+00  0.76380569219E-01 -0.14468556129E-01  0.13254246036E+00  0.20743718267E-01 0.  0.
         14    1    1    2    0    0  0.25293741600E-02 -0.15906109369E-01 -0.16158131008E-01  0.22814189589E-01  0.00000000000E+00 0. -1.
     999901    1    3    3    0    0  0.10279807469E+00 -0.60474459849E-01  0.30626687137E-01  0.88857335005E+00  0.88000000000E+00 0. -1.
        -11    1    4    4    0    0 -0.69428677735E-01  0.57091363089E-01 -0.19609477259E-02  0.89910352399E-01  0.51100000000E-03 0.  1.
         11    1    4    4    0    0 -0.35898771112E-01  0.19289206129E-01 -0.12507608403E-01  0.42632107963E-01  0.51100000000E-03 0. -1.
</event>
<event>
 8    1  0.1088021E+005  0.1043930E+01  0.7957747E-01            NaN
         13   -1    0    0    0    0  0.00000000000E+00  0.00000000000E+00  0.74505805969E-08  0.10566000000E+00  0.10566000000E+00 0.  1.
     999900   -1    0    0    0    0 -0.00000000000E+00 -0.00000000000E+00 -0.74505805969E-08  0.93827000000E+00  0.93827000000E+00 0.  1.
     999902    2    1    2    0    0  0.18716745225E-01 -0.13367776493E-01  0.42655993053E-02  0.10205374940E+01  0.10202693602E+01 0.  0.
     999903    2    3    3    0    0  0.12059984237E+00  0.42377371999E-01  0.29366537367E-01  0.13255227781E+00  0.19171572656E-01 0.  0.
         14    1    1    2    0    0 -0.18716745225E-01  0.13367776493E-01 -0.42655993053E-02  0.23392506014E-01  0.00000000000E+00 0. -1.
     999901    1    3    3    0    0 -0.10188309714E+00 -0.55745148491E-01 -0.25100938061E-01  0.88798521618E+00  0.88000000000E+00 0. -1.
        -11    1    4    4    0    0  0.55797847260E-01  0.18175203317E-01  0.23189561081E-01  0.63101146096E-01  0.51100000000E-03 0. -1.
         11    1    4    4    0    0  0.64801995107E-01  0.24202168681E-01  0.61769762853E-02  0.69451131710E-01  0.51100000000E-03 0.  1.
</event>
<event>
 8    1  0.1088021E+005  0.1043930E+01  0.7957747E-01            NaN
         13   -1    0    0    0    0  0.00000000000E+00  0.00000000000E+00  0.74505805969E-08  0.10566000000E+00  0.10566000000E+00 0. -1.
     999900   -1    0    0    0    0 -0.00000000000E+00 -0.00000000000E+00 -0.74505805969E-08  0.93827000000E+00  0.93827000000E+00 0. -1.
     999902    2    1    2    0    0  0.11248534599E-01 -0.13968060583E-01  0.14564299048E-01  0.10208268605E+01  0.10205653943E+01 0.  0.
     999903    2    3    3    0    0  0.44245526860E-02 -0.27386751408E-01  0.12882901870E+00  0.13331175972E+00  0.20136990883E-01 0.  0.
         14    1    1    2    0    0 -0.11248534599E-01  0.13968060583E-01 -0.14564299048E-01  0.23103139480E-01  0.00000000000E+00 0.  1.
     999901    1    3    3    0    0  0.68239819126E-02  0.13418690825E-01 -0.11426471965E+00  0.88751510080E+00  0.88000000000E+00 0. -1.
        -11    1    4    4    0    0  0.21714106716E-02 -0.73116082471E-02  0.81388880279E-01  0.81747083088E-01  0.51100000000E-03 0. -1.
         11    1    4    4    0    0  0.22531420143E-02 -0.20075143161E-01  0.47440138419E-01  0.51564676631E-01  0.51100000000E-03 0.  1.
</event>
<event>
 8    1  0.1088021E+005  0.1043930E+01  0.7957747E-01            NaN
         13   -1    0    0    0    0  0.00000000000E+00  0.00000000000E+00  0.74505805969E-08  0.10566000000E+00  0.10566000000E+00 0. -1.
     999900   -1    0    0    0    0 -0.00000000000E+00 -0.00000000000E+00 -0.74505805969E-08  0.93827000000E+00  0.93827000000E+00 0.  1.
     999902    2    1    2    0    0 -0.14664136729E-01  0.16620668460E-01  0.76525307116E-02  0.10204812313E+01  0.10202117911E+01 0.  0.
     999903    2    3    3    0    0 -0.29685190030E-01 -0.95414725605E-01  0.80915459463E-01  0.13023125615E+00  0.20680622080E-01 0.  0.
         14    1    1    2    0    0  0.14664136729E-01 -0.16620668460E-01 -0.76525307116E-02  0.23448768675E-01  0.00000000000E+00 0. -1.
     999901    1    3    3    0    0  0.15021053301E-01  0.11203539406E+00 -0.73262928751E-01  0.89024997517E+00  0.88000000000E+00 0.  1.
        -11    1    4    4    0    0 -0.10404446849E-01 -0.11622948174E-01  0.17115607249E-01  0.23163561276E-01  0.51100000000E-03 0.  1.
         11    1    4    4    0    0 -0.19280743181E-01 -0.83791777431E-01  0.63799852214E-01  0.10706769488E+00  0.51100000000E-03 0. -1.
</event>
<event>
 8    1  0.1088021E+005  0.1043930E+01  0.7957747E-01            NaN
         13   -1    0    0    0    0  0.00000000000E+00  0.00000000000E+00  0.74505805969E-08  0.10566000000E+00  0.10566000000E+00 0.  1.
     999900   -1    0    0    0    0 -0.00000000000E+00 -0.00000000000E+00 -0.74505805969E-08  0.93827000000E+00  0.93827000000E+00 0.  1.
     999902    2    1    2    0    0  0.11747450121E-01  0.17361311799E-01 -0.10434500680E-01  0.10205142673E+01  0.10202455946E+01 0.  0.
     999903    2    3    3    0    0 -0.13838432113E-01  0.12460306154E+00 -0.38310031089E-01  0.13319669428E+00  0.23585498446E-01 0.  0.
         14    1    1    2    0    0 -0.11747450121E-01 -0.17361311799E-01  0.10434500680E-01  0.23415732664E-01  0.00000000000E+00 0.  1.
     999901    1    3    3    0    0  0.25585882234E-01 -0.10724174974E+00  0.27875530409E-01  0.88731757306E+00  0.88000000000E+00 0. -1.
        -11    1    4    4    0    0 -0.58579137670E-02  0.56298505596E-01 -0.51211373869E-02  0.56835939820E-01  0.51100000000E-03 0.  1.
         11    1    4    4    0    0 -0.79805183462E-02  0.68304555943E-01 -0.33188893702E-01  0.76360754461E-01  0.51100000000E-03 0. -1.
</event>
<event>
 8    1  0.1088021E+005  0.1043930E+01  0.7957747E-01            NaN
         13   -1    0    0    0    0  0.00000000000E+00  0.00000000000E+00  0.74505805969E-08  0.10566000000E+00  0.10566000000E+00 0.  1.
     999900   -1    0    0    0    0 -0.00000000000E+00 -0.00000000000E+00 -0.74505805969E-08  0.93827000000E+00  0.93827000000E+00 0. -1.
     999902    2    1    2    0    0  0.21834417003E-01 -0.93117007433E-02  0.51824132620E-02  0.10196337669E+01  0.10193442557E+01 0.  0.
     999903    2    3    3    0    0  0.14394994763E-01 -0.11006640661E+00 -0.66179002281E-01  0.13098349406E+00  0.21335079893E-01 0.  0.
         14    1    1    2    0    0 -0.21834417003E-01  0.93117007433E-02 -0.51824132620E-02  0.24296233120E-01  0.00000000000E+00 0. -1.
     999901    1    3    3    0    0  0.74394222398E-02  0.10075470587E+00  0.71361415543E-01  0.88865027282E+00  0.88000000000E+00 0.  1.
        -11    1    4    4    0    0  0.47901158007E-02 -0.95243393172E-01 -0.55769504217E-01  0.11047510070E+00  0.51100000000E-03 0. -1.
         11    1    4    4    0    0  0.96048789625E-02 -0.14823013441E-01 -0.10409498064E-01  0.20508393362E-01  0.51100000000E-03 0.  1.
</event>
<event>
 8    1  0.1088021E+005  0.1043930E+01  0.7957747E-01            NaN
         13   -1    0    0    0    0  0.00000000000E+00  0.00000000000E+00  0.74505805969E-08  0.10566000000E+00  0.10566000000E+00 0. -1.
     999900   -1    0    0    0    0 -0.00000000000E+00 -0.00000000000E+00 -0.74505805969E-08  0.93827000000E+00  0.93827000000E+00 0. -1.
     999902    2    1    2    0    0 -0.72407917701E-02 -0.14439153586E-01 -0.25825293929E-01  0.10134691394E+01  0.10130112697E+01 0.  0.
     999903    2    3    3    0    0  0.46518411892E-01 -0.11096196637E+00 -0.38263814431E-01  0.12647341103E+00  0.74083450455E-02 0.  0.
         14    1    1    2    0    0  0.72407917701E-02  0.14439153586E-01  0.25825293929E-01  0.30460860597E-01  0.00000000000E+00 0. -1.
     999901    1    3    3    0    0 -0.53759203662E-01  0.96522812783E-01  0.12438520502E-01  0.88699572838E+00  0.88000000000E+00 0.  1.
        -11    1    4    4    0    0  0.23613898912E-01 -0.50197187745E-01 -0.20553846095E-01  0.59161605706E-01  0.51100000000E-03 0. -1.
         11    1    4    4    0    0  0.22904512980E-01 -0.60764778624E-01 -0.17709968336E-01  0.67311805321E-01  0.51100000000E-03 0.  1.
</event>
<event>
 8    1  0.1088021E+005  0.1043930E+01  0.7957747E-01            NaN
         13   -1    0    0    0    0  0.00000000000E+00  0.00000000000E+00  0.74505805969E-08  0.10566000000E+00  0.10566000000E+00 0. -1.
     999900   -1    0    0    0    0 -0.00000000000E+00 -0.00000000000E+00 -0.74505805969E-08  0.93827000000E+00  0.93827000000E+00 0. -1.
     999902    2    1    2    0    0 -0.13036891293E-01  0.21132024219E-01  0.27064893902E-01  0.10072008363E+01  0.10065309202E+01 0.  0.
     999903    2    3    3    0    0  0.67020933256E-01 -0.88789510306E-01 -0.20502811260E-01  0.11548637216E+00  0.23267020674E-01 0.  0.
         14    1    1    2    0    0  0.13036891293E-01 -0.21132024219E-01 -0.27064893902E-01  0.36729163673E-01  0.00000000000E+00 0.  1.
     999901    1    3    3    0    0 -0.80057824549E-01  0.10992153453E+00  0.47567705162E-01  0.89171446416E+00  0.88000000000E+00 0. -1.
        -11    1    4    4    0    0  0.54218592425E-01 -0.67839375721E-01 -0.25319688445E-01  0.90460955150E-01  0.51100000000E-03 0.  1.
         11    1    4    4    0    0  0.12802340831E-01 -0.20950134585E-01  0.48168771845E-02  0.25025417014E-01  0.51100000000E-03 0. -1.
</event>
<event>
 8    1  0.1088021E+005  0.1043930E+01  0.7957747E-01            NaN
         13   -1    0    0    0    0  0.00000000000E+00  0.00000000000E+00  0.74505805969E-08  0.10566000000E+00  0.10566000000E+00 0. -1.
     999900   -1    0    0    0    0 -0.00000000000E+00 -0.00000000000E+00 -0.74505805969E-08  0.93827000000E+00  0.93827000000E+00 0.  1.
     999902    2    1    2    0    0 -0.22205066109E-01 -0.86867386091E-03 -0.56195830673E-02  0.10210084104E+01  0.10207510837E+01 0.  0.
     999903    2    3    3    0    0  0.62063636723E-01 -0.16165876665E-01 -0.11216996327E+00  0.13045341368E+00  0.17965575681E-01 0.  0.
         14    1    1    2    0    0  0.22205066109E-01  0.86867386091E-03  0.56195830673E-02  0.22921589583E-01  0.00000000000E+00 0. -1.
     999901    1    3    3    0    0 -0.84268702832E-01  0.15297202804E-01  0.10655038020E+00  0.89055499674E+00  0.88000000000E+00 0. -1.
        -11    1    4    4    0    0  0.46847512406E-01 -0.14662595604E-01 -0.69225365102E-01  0.84865148459E-01  0.51100000000E-03 0. -1.
         11    1    4    4    0    0  0.15216124317E-01 -0.15032810607E-02 -0.42944598167E-01  0.45588265221E-01  0.51100000000E-03 0.  1.
</event>
<event>
 8    1  0.1088021E+005  0.1043930E+01  0.7957747E-01            NaN
         13   -1    0    0    0    0  0.00000000000E+00  0.00000000000E+00  0.74505805969E-08  0.10566000000E+00  0.10566000000E+00 0. -1.
     999900   -1    0    0    0    0 -0.00000000000E+00 -0.00000000000E+00 -0.74505805969E-08  0.93827000000E+00  0.93827000000E+00 0.  1.
     999902    2    1    2    0    0 -0.84738093837E-03  0.76271309967E-04 -0.23328822960E-01  0.10205856677E+01  0.10203186498E+01 0.  0.
     999903    2    3    3    0    0 -0.18790607195E-01 -0.11116917140E+00  0.60365143989E-01  0.12946155285E+00  0.20116447727E-01 0.  0.
         14    1    1    2    0    0  0.84738093837E-03 -0.76271309967E-04  0.23328822960E-01  0.23344332341E-01  0.00000000000E+00 0. -1.
     999901    1    3    3    0    0  0.17943226256E-01  0.11124544271E+00 -0.83693966949E-01  0.89112411481E+00  0.88000000000E+00 0.  1.
        -11    1    4    4    0    0 -0.12278405729E-01 -0.56999804321E-01  0.20196154476E-01  0.61708044180E-01  0.51100000000E-03 0. -1.
         11    1    4    4    0    0 -0.65122014659E-02 -0.54169367077E-01  0.40168989513E-01  0.67753508669E-01  0.51100000000E-03 0.  1.
</event>
<event>
 8    1  0.1088021E+005  0.1043930E+01  0.7957747E-01            NaN
         13   -1    0    0    0    0  0.00000000000E+00  0.00000000000E+00  0.74505805969E-08  0.10566000000E+00  0.10566000000E+00 0. -1.
     999900   -1    0    0    0    0 -0.00000000000E+00 -0.00000000000E+00 -0.74505805969E-08  0.93827000000E+00  0.93827000000E+00 0.  1.
     999902    2    1    2    0    0  0.15023992475E-01  0.16143929902E-01  0.76613079299E-02  0.10205838555E+01  0.10203167958E+01 0.  0.
     999903    2    3    3    0    0 -0.65419684466E-01  0.44715486514E-01 -0.10091254460E+00  0.12981126925E+00  0.19708224634E-01 0.  0.
         14    1    1    2    0    0 -0.15023992475E-01 -0.16143929902E-01 -0.76613079299E-02  0.23346144473E-01  0.00000000000E+00 0.  1.
     999901    1    3    3    0    0  0.80443676941E-01 -0.28571556612E-01  0.10857385253E+00  0.89077258628E+00  0.88000000000E+00 0. -1.
        -11    1    4    4    0    0 -0.15034318998E-01  0.21110187788E-01 -0.34960741090E-01  0.43522239312E-01  0.51100000000E-03 0.  1.
         11    1    4    4    0    0 -0.50385365468E-01  0.23605298726E-01 -0.65951803505E-01  0.86289029939E-01  0.51100000000E-03 0. -1.
</event>
<event>
 8    1  0.1088021E+005  0.1043930E+01  0.7957747E-01            NaN
         13   -1    0    0    0    0  0.00000000000E+00  0.00000000000E+00  0.74505805969E-08  0.10566000000E+00  0.10566000000E+00 0.  1.
     999900   -1    0    0    0    0 -0.00000000000E+00 -0.00000000000E+00 -0.74505805969E-08  0.93827000000E+00  0.93827000000E+00 0.  1.
     999902    2    1    2    0    0 -0.19268156308E-01 -0.65731847199E-02 -0.11863982755E-01  0.10203668361E+01  0.10200947297E+01 0.  0.
     999903    2    3    3    0    0 -0.12157302482E+00  0.27245905568E-01  0.37686878488E-01  0.13241114757E+00  0.24291386466E-01 0.  0.
         14    1    1    2    0    0  0.19268156308E-01  0.65731847199E-02  0.11863982755E-01  0.23563163873E-01  0.00000000000E+00 0.  1.
     999901    1    3    3    0    0  0.10230486851E+00 -0.33819090288E-01 -0.49550861242E-01  0.88795568856E+00  0.88000000000E+00 0.  1.
        -11    1    4    4    0    0 -0.49123347928E-01  0.17576705702E-01  0.26321143197E-01  0.58438921920E-01  0.51100000000E-03 0. -1.
         11    1    4    4    0    0 -0.72449676894E-01  0.96691998661E-02  0.11365735291E-01  0.73972225651E-01  0.51100000000E-03 0.  1.
</event>
<event>
 8    1  0.1088021E+005  0.1043930E+01  0.7957747E-01            NaN
         13   -1    0    0    0    0  0.00000000000E+00  0.00000000000E+00  0.74505805969E-08  0.10566000000E+00  0.10566000000E+00 0.  1.
     999900   -1    0    0    0    0 -0.00000000000E+00 -0.00000000000E+00 -0.74505805969E-08  0.93827000000E+00  0.93827000000E+00 0. -1.
     999902    2    1    2    0    0 -0.66121227210E-02  0.52249017973E-03  0.22749157319E-01  0.10202336433E+01  0.10199584156E+01 0.  0.
     999903    2    3    3    0    0 -0.87548427136E-02 -0.12307275181E+00 -0.35506511881E-01  0.12968656531E+00  0.18285057506E-01 0.  0.
         14    1    1    2    0    0  0.66121227210E-02 -0.52249017973E-03 -0.22749157319E-01  0.23696356716E-01  0.00000000000E+00 0. -1.
     999901    1    3    3    0    0  0.21427199926E-02  0.12359524199E+00  0.58255669201E-01  0.89054707797E+00  0.88000000000E+00 0. -1.
        -11    1    4    4    0    0 -0.34073166142E-02 -0.30535493269E-01 -0.89481427497E-03  0.30742283085E-01  0.51100000000E-03 0.  1.
         11    1    4    4    0    0 -0.53475260994E-02 -0.92537258538E-01 -0.34611697606E-01  0.98944282227E-01  0.51100000000E-03 0. -1.
</event>
<event>
 8    1  0.1088021E+005  0.1043930E+01  0.7957747E-01            NaN
         13   -1    0    0    0    0  0.00000000000E+00  0.00000000000E+00  0.74505805969E-08  0.10566000000E+00  0.10566000000E+00 0.  1.
     999900   -1    0    0    0    0 -0.00000000000E+00 -0.00000000000E+00 -0.74505805969E-08  0.93827000000E+00  0.93827000000E+00 0. -1.
     999902    2    1    2    0    0 -0.20311598398E-01 -0.37449545651E-02 -0.14503069914E-01  0.10186926319E+01  0.10183799652E+01 0.  0.
     999903    2    3    3    0    0  0.12218175058E+00  0.23207303623E-01  0.11032325671E-01  0.12645788967E+00  0.20073030011E-01 0.  0.
         14    1    1    2    0    0  0.20311598398E-01  0.37449545651E-02  0.14503069914E-01  0.25237368149E-01  0.00000000000E+00 0.  1.
     999901    1    3    3    0    0 -0.14249334898E+00 -0.26952258188E-01 -0.25535395585E-01  0.89223474218E+00  0.88000000000E+00 0. -1.
        -11    1    4    4    0    0  0.95767163534E-01  0.12782717783E-01  0.19439872665E-02  0.96637403176E-01  0.51100000000E-03 0.  1.
         11    1    4    4    0    0  0.26414587048E-01  0.10424585840E-01  0.90883384049E-02  0.29820486495E-01  0.51100000000E-03 0. -1.
</event>
<event>
 8    1  0.1088021E+005  0.1043930E+01  0.7957747E-01            NaN
         13   -1    0    0    0    0  0.00000000000E+00  0.00000000000E+00  0.74505805969E-08  0.10566000000E+00  0.10566000000E+00 0.  1.
     999900   -1    0    0    0    0 -0.00000000000E+00 -0.00000000000E+00 -0.74505805969E-08  0.93827000000E+00  0.93827000000E+00 0. -1.
     999902    2    1    2    0    0  0.78452881865E-02 -0.86762828902E-02  0.20957236049E-01  0.10199293297E+01  0.10196469023E+01 0.  0.
     999903    2    3    3    0    0 -0.76711517387E-01  0.96117487396E-01 -0.30598490386E-01  0.12819529953E+00  0.19353008131E-01 0.  0.
         14    1    1    2    0    0 -0.78452881865E-02  0.86762828902E-02 -0.20957236049E-01  0.24000670289E-01  0.00000000000E+00 0. -1.
     999901    1    3    3    0    0  0.84556805574E-01 -0.10479377029E+00  0.51555726435E-01  0.89173403018E+00  0.88000000000E+00 0.  1.
        -11    1    4    4    0    0 -0.12677772067E-01  0.16704739687E-01 -0.12986796779E-01  0.24671689123E-01  0.51100000000E-03 0.  1.
         11    1    4    4    0    0 -0.64033745320E-01  0.79412747709E-01 -0.17611693607E-01  0.10352361040E+00  0.51100000000E-03 0. -1.
</event>
<event>
 8    1  0.1088021E+005  0.1043930E+01  0.7957747E-01            NaN
         13   -1    0    0    0    0  0.00000000000E+00  0.00000000000E+00  0.74505805969E-08  0.10566000000E+00  0.10566000000E+00 0. -1.
     999900   -1    0    0    0    0 -0.00000000000E+00 -0.00000000000E+00 -0.74505805969E-08  0.93827000000E+00  0.93827000000E+00 0.  1.
     999902    2    1    2    0    0  0.10588233569E-01 -0.18910982132E-01  0.79807868858E-02  0.10208339204E+01  0.10205726158E+01 0.  0.
     999903    2    3    3    0    0 -0.58739507162E-01 -0.74265776374E-02  0.11491713822E+00  0.13157939526E+00  0.24529672696E-01 0.  0.
         14    1    1    2    0    0 -0.10588233569E-01  0.18910982132E-01 -0.79807868858E-02  0.23096079638E-01  0.00000000000E+00 0. -1.
     999901    1    3    3    0    0  0.69327740731E-01 -0.11484404495E-01 -0.10693635133E+00  0.88925452510E+00  0.88000000000E+00 0.  1.
        -11    1    4    4    0    0 -0.44668641372E-01  0.47630894771E-02  0.88605400525E-01  0.99343609088E-01  0.51100000000E-03 0. -1.
         11    1    4    4    0    0 -0.14070865790E-01 -0.12189667115E-01  0.26311737696E-01  0.32235786170E-01  0.51100000000E-03 0.  1.
</event>
<event>
 8    1  0.1088021E+005  0.1043930E+01  0.7957747E-01            NaN
         13   -1    0    0    0    0  0.00000000000E+00  0.00000000000E+00  0.74505805969E-08  0.10566000000E+00  0.10566000000E+00 0.  1.
     999900   -1    0    0    0    0 -0.00000000000E+00 -0.00000000000E+00 -0.74505805969E-08  0.93827000000E+00  0.93827000000E+00 0.  1.
     999902    2    1    2    0    0  0.33698015468E-02  0.16452489682E-01 -0.15891725469E-01  0.10208088643E+01  0.10205469859E+01 0.  0.
     999903    2    3    3    0    0 -0.49977734403E-01 -0.10646685163E-01 -0.12081438248E+00  0.13255828655E+00  0.19090795600E-01 0.  0.
         14    1    1    2    0    0 -0.33698015468E-02 -0.16452489682E-01  0.15891725469E-01  0.23121135733E-01  0.00000000000E+00 0. -1.
     999901    1    3    3    0    0  0.53347535950E-01  0.27099174845E-01  0.10492265701E+00  0.88825057772E+00  0.88000000000E+00 0. -1.
        -11    1    4    4    0    0 -0.22205864810E-01 -0.78820386679E-02 -0.34026953074E-01  0.41392289403E-01  0.51100000000E-03 0. -1.
         11    1    4    4    0    0 -0.27771869593E-01 -0.27646464956E-02 -0.86787429406E-01  0.91165997142E-01  0.51100000000E-03 0.  1.
</event>
<event>
 8    1  0.1088021E+005  0.1043930E+01  0.7957747E-01            NaN
         13   -1    0    0    0    0  0.00000000000E+00  0.00000000000E+00  0.74505805969E-08  0.10566000000E+00  0.10566000000E+00 0.  1.
     999900   -1    0    0    0    0 -0.00000000000E+00 -0.00000000000E+00 -0.74505805969E-08  0.93827000000E+00  0.93827000000E+00 0. -1.
     999902    2    1    2    0    0  0.23519781294E-01 -0.18555783191E-02 -0.38895504146E-03  0.10203339289E+01  0.10200610531E+01 0.  0.
     999903    2    3    3    0    0 -0.53655946281E-01  0.50604231723E-01  0.10377421489E+00  0.12929066930E+00  0.22522003716E-01 0.  0.
         14    1    1    2    0    0 -0.23519781294E-01  0.18555783191E-02  0.38895504146E-03  0.23596071051E-01  0.00000000000E+00 0. -1.
     999901    1    3    3    0    0  0.77175727575E-01 -0.52459810043E-01 -0.10416316994E+00  0.89104325965E+00  0.88000000000E+00 0. -1.
        -11    1    4    4    0    0 -0.15384707990E-01  0.29433462771E-01  0.48963558424E-01  0.59166790898E-01  0.51100000000E-03 0.  1.
         11    1    4    4    0    0 -0.38271238291E-01  0.21170768953E-01  0.54810656470E-01  0.70123878401E-01  0.51100000000E-03 0. -1.
</event>
<event>
 8    1  0.1088021E+005  0.1043930E+01  0.7957747E-01            NaN
         13   -1    0    0    0    0  0.00000000000E+00  0.00000000000E+00  0.74505805969E-08  0.10566000000E+00  0.10566000000E+00 0.  1.
     999900   -1    0    0    0    0 -0.00000000000E+00 -0.00000000000E+00 -0.74505805969E-08  0.93827000000E+00  0.93827000000E+00 0.  1.
     999902    2    1    2    0    0  0.12851440752E-01 -0.15209473427E-01  0.22753316890E-01  0.10136942423E+01  0.10132432166E+01 0.  0.
     999903    2    3    3    0    0  0.61412618528E-02 -0.91083288950E-01  0.87587753879E-01  0.12802761963E+00  0.19636092646E-01 0.  0.
         14    1    1    2    0    0 -0.12851440752E-01  0.15209473427E-01 -0.22753316890E-01  0.30235757652E-01  0.00000000000E+00 0. -1.
     999901    1    3    3    0    0  0.67101788989E-02  0.75873815523E-01 -0.64834436989E-01  0.88566662272E+00  0.88000000000E+00 0.  1.
        -11    1    4    4    0    0  0.12316008773E-01 -0.58145136894E-01  0.50036107630E-01  0.77694364045E-01  0.51100000000E-03 0. -1.
         11    1    4    4    0    0 -0.61747469204E-02 -0.32938152056E-01  0.37551646250E-01  0.50333255582E-01  0.51100000000E-03 0.  1.
</event>
<event>
 8    1  0.1088021E+005  0.1043930E+01  0.7957747E-01            NaN
         13   -1    0    0    0    0  0.00000000000E+00  0.00000000000E+00  0.74505805969E-08  0.10566000000E+00  0.10566000000E+00 0.  1.
     999900   -1    0    0    0    0 -0.00000000000E+00 -0.00000000000E+00 -0.74505805969E-08  0.93827000000E+00  0.93827000000E+00 0.  1.
     999902    2    1    2    0    0  0.16119048275E-02  0.11725969809E-02  0.23571565553E-01  0.10202743046E+01  0.10200000317E+01 0.  0.
     999903    2    3    3    0    0 -0.58711854927E-01  0.11262836294E+00 -0.20352606201E-01  0.13011101814E+00  0.19555521335E-01 0.  0.
         14    1    1    2    0    0 -0.16119048275E-02 -0.11725969809E-02 -0.23571565553E-01  0.23655695370E-01  0.00000000000E+00 0. -1.
     999901    1    3    3    0    0  0.60323759754E-01 -0.11145576596E+00  0.43924171753E-01  0.89016328649E+00  0.88000000000E+00 0.  1.
        -11    1    4    4    0    0 -0.19987255896E-01  0.24062524243E-01  0.20626153865E-03  0.31285765709E-01  0.51100000000E-03 0.  1.
         11    1    4    4    0    0 -0.38724599031E-01  0.88565838694E-01 -0.20558867739E-01  0.98825252428E-01  0.51100000000E-03 0. -1.
</event>
<event>
 8    1  0.1088021E+005  0.1043930E+01  0.7957747E-01            NaN
         13   -1    0    0    0    0  0.00000000000E+00  0.00000000000E+00  0.74505805969E-08  0.10566000000E+00  0.10566000000E+00 0. -1.
     999900   -1    0    0    0    0 -0.00000000000E+00 -0.00000000000E+00 -0.74505805969E-08  0.93827000000E+00  0.93827000000E+00 0. -1.
     999902    2    1    2    0    0  0.60771861363E-02 -0.24104958053E-01 -0.13200788020E-02  0.10190357476E+01  0.10187316286E+01 0.  0.
     999903    2    3    3    0    0  0.12330170673E+00 -0.28606598088E-01 -0.26841775566E-01  0.13088417834E+00  0.19711389749E-01 0.  0.
         14    1    1    2    0    0 -0.60771861363E-02  0.24104958053E-01  0.13200788020E-02  0.24894252391E-01  0.00000000000E+00 0.  1.
     999901    1    3    3    0    0 -0.11722452060E+00  0.45016400357E-02  0.25521696764E-01  0.88815156927E+00  0.88000000000E+00 0. -1.
        -11    1    4    4    0    0  0.95844848208E-01 -0.15433622351E-01 -0.15131892820E-01  0.98253075922E-01  0.51100000000E-03 0. -1.
         11    1    4    4    0    0  0.27456858527E-01 -0.13172975738E-01 -0.11709882746E-01  0.32631102416E-01  0.51100000000E-03 0.  1.
</event>
<event>
 8    1  0.1088021E+005  0.1043930E+01  0.7957747E-01            NaN
         13   -1    0    0    0    0  0.00000000000E+00  0.00000000000E+00  0.74505805969E-08  0.10566000000E+00  0.10566000000E+00 0. -1.
     999900   -1    0    0    0    0 -0.00000000000E+00 -0.00000000000E+00 -0.74505805969E-08  0.93827000000E+00  0.93827000000E+00 0. -1.
     999902    2    1    2    0    0 -0.39283799350E-02  0.16831234118E-01 -0.15551135071E-01  0.10206800449E+01  0.10204152065E+01 0.  0.
     999903    2    3    3    0    0  0.26684576840E-01 -0.85136353888E-01  0.90545580041E-01  0.12793648983E+00  0.14456070412E-01 0.  0.
         14    1    1    2    0    0  0.39283799350E-02 -0.16831234118E-01  0.15551135071E-01  0.23249955115E-01  0.00000000000E+00 0. -1.
     999901    1    3    3    0    0 -0.30612956775E-01  0.10196758801E+00 -0.10609671511E+00  0.89274355505E+00  0.88000000000E+00 0. -1.
        -11    1    4    4    0    0  0.10272499238E-01 -0.50386520651E-01  0.44933356076E-01  0.68290506758E-01  0.51100000000E-03 0. -1.
         11    1    4    4    0    0  0.16412077603E-01 -0.34749833237E-01  0.45612223965E-01  0.59645983077E-01  0.51100000000E-03 0.  1.
</event>
<event>
 8    1  0.1088021E+005  0.1043930E+01  0.7957747E-01            NaN
         13   -1    0    0    0    0  0.00000000000E+00  0.00000000000E+00  0.74505805969E-08  0.10566000000E+00  0.10566000000E+00 0. -1.
     999900   -1    0    0    0    0 -0.00000000000E+00 -0.00000000000E+00 -0.74505805969E-08  0.93827000000E+00  0.93827000000E+00 0. -1.
     999902    2    1    2    0    0  0.12064881001E-01  0.17600604132E-01  0.11262715460E-01  0.10198013577E+01  0.10195158742E+01 0.  0.
     999903    2    3    3    0    0  0.90580931644E-01 -0.72311993428E-01  0.55206486791E-01  0.13065564386E+00  0.24273679535E-01 0.  0.
         14    1    1    2    0    0 -0.12064881001E-01 -0.17600604132E-01 -0.11262715460E-01  0.24128642293E-01  0.00000000000E+00 0. -1.
     999901    1    3    3    0    0 -0.78516050644E-01  0.89912597561E-01 -0.43943771331E-01  0.88914571384E+00  0.88000000000E+00 0. -1.
        -11    1    4    4    0    0  0.45355240389E-01 -0.21518033381E-01  0.19671983526E-01  0.53920048666E-01  0.51100000000E-03 0. -1.
         11    1    4    4    0    0  0.45225691256E-01 -0.50793960048E-01  0.35534503264E-01  0.76735595196E-01  0.51100000000E-03 0.  1.
</event>
<event>
 8    1  0.1088021E+005  0.1043930E+01  0.7957747E-01            NaN
         13   -1    0    0    0    0  0.00000000000E+00  0.00000000000E+00  0.74505805969E-08  0.10566000000E+00  0.10566000000E+00 0.  1.
     999900   -1    0    0    0    0 -0.00000000000E+00 -0.00000000000E+00 -0.74505805969E-08  0.93827000000E+00  0.93827000000E+00 0.  1.
     999902    2    1    2    0    0 -0.13602674177E-01 -0.18400824509E-01  0.57792075073E-02  0.10203286796E+01  0.10200556808E+01 0.  0.
     999903    2    3    3    0    0 -0.86803870169E-01  0.76218755715E-01  0.57740780939E-01  0.13071568214E+00  0.20208443145E-01 0.  0.
         14    1    1    2    0    0  0.13602674177E-01  0.18400824509E-01 -0.57792075073E-02  0.23601320446E-01  0.00000000000E+00 0.  1.
     999901    1    3    3    0    0  0.73201195992E-01 -0.94619580225E-01 -0.51961573432E-01  0.88961299742E+00  0.88000000000E+00 0.  1.
        -11    1    4    4    0    0 -0.73754446171E-01  0.64646479778E-01  0.56581753720E-01  0.11322827232E+00  0.51100000000E-03 0. -1.
         11    1    4    4    0    0 -0.13049423998E-01  0.11572275938E-01  0.11590272197E-02  0.17487409819E-01  0.51100000000E-03 0.  1.
</event>
<event>
 8    1  0.1088021E+005  0.1043930E+01  0.7957747E-01            NaN
         13   -1    0    0    0    0  0.00000000000E+00  0.00000000000E+00  0.74505805969E-08  0.10566000000E+00  0.10566000000E+00 0.  1.
     999900   -1    0    0    0    0 -0.00000000000E+00 -0.00000000000E+00 -0.74505805969E-08  0.93827000000E+00  0.93827000000E+00 0. -1.
     999902    2    1    2    0    0  0.29158798459E-02 -0.92797546907E-03 -0.23639845060E-01  0.10200929329E+01  0.10198143880E+01 0.  0.
     999903    2    3    3    0    0  0.41779675067E-01  0.10445176608E+00 -0.66008892487E-01  0.13194293391E+00  0.19901036068E-01 0.  0.
         14    1    1    2    0    0 -0.29158798459E-02  0.92797546907E-03  0.23639845060E-01  0.23837067106E-01  0.00000000000E+00 0.  1.
     999901    1    3    3    0    0 -0.38863795221E-01 -0.10537974155E+00  0.42369047427E-01  0.88814999898E+00  0.88000000000E+00 0.  1.
        -11    1    4    4    0    0  0.24315773955E-01  0.67849902080E-01 -0.52587313847E-01  0.89221929894E-01  0.51100000000E-03 0.  1.
         11    1    4    4    0    0  0.17463901113E-01  0.36601864000E-01 -0.13421578640E-01  0.42721004021E-01  0.51100000000E-03 0. -1.
</event>
<event>
 8    1  0.1088021E+005  0.1043930E+01  0.7957747E-01            NaN
         13   -1    0    0    0    0  0.00000000000E+00  0.00000000000E+00  0.74505805969E-08  0.10566000000E+00  0.10566000000E+00 0.  1.
     999900   -1    0    0    0    0 -0.00000000000E+00 -0.00000000000E+00 -0.74505805969E-08  0.93827000000E+00  0.93827000000E+00 0.  1.
     999902    2    1    2    0    0 -0.99718746241E-02 -0.20862306219E-01 -0.60517583629E-02  0.10200281615E+01  0.10197480828E+01 0.  0.
     999903    2    3    3    0    0  0.12472565835E+00  0.23286598941E-01 -0.73583789131E-02  0.12868408738E+00  0.20166632449E-01 0.  0.
         14    1    1    2    0    0  0.99718746241E-02  0.20862306219E-01  0.60517583629E-02  0.23901838498E-01  0.00000000000E+00 0. -1.
     999901    1    3    3    0    0 -0.13469753297E+00 -0.44148905160E-01  0.13066205502E-02  0.89134407412E+00  0.88000000000E+00 0.  1.
        -11    1    4    4    0    0  0.54450103706E-01  0.12748082746E-01  0.64375797600E-02  0.56294146778E-01  0.51100000000E-03 0.  1.
         11    1    4    4    0    0  0.70275554640E-01  0.10538516195E-01 -0.13795958673E-01  0.72389940602E-01  0.51100000000E-03 0. -1.
</event>
<event>
 8    1  0.1088021E+005  0.1043930E+01  0.7957747E-01            NaN
         13   -1    0    0    0    0  0.00000000000E+00  0.00000000000E+00  0.74505805969E-08  0.10566000000E+00  0.10566000000E+00 0. -1.
     999900   -1    0    0    0    0 -0.00000000000E+00 -0.00000000000E+00 -0.74505805969E-08  0.93827000000E+00  0.93827000000E+00 0. -1.
     999902    2    1    2    0    0 -0.18363740367E-01  0.92056571329E-02 -0.11488865580E-01  0.10203935365E+01  0.10201220536E+01 0.  0.
     999903    2    3    3    0    0  0.10742251063E+00 -0.47090748446E-01 -0.49567202826E-01  0.12885473978E+00  0.19735804777E-01 0.  0.
         14    1    1    2    0    0  0.18363740367E-01 -0.92056571329E-02  0.11488865580E-01  0.23536463537E-01  0.00000000000E+00 0. -1.
     999901    1    3    3    0    0 -0.12578625099E+00  0.56296405579E-01  0.38078337245E-01  0.89153879668E+00  0.88000000000E+00 0.  1.
        -11    1    4    4    0    0  0.61947037437E-01 -0.28990697041E-01 -0.18408547607E-01  0.70831008098E-01  0.51100000000E-03 0.  1.
         11    1    4    4    0    0  0.45475473188E-01 -0.18100051405E-01 -0.31158655219E-01  0.58023731684E-01  0.51100000000E-03 0. -1.
</event>
<event>
 8    1  0.1088021E+005  0.1043930E+01  0.7957747E-01            NaN
         13   -1    0    0    0    0  0.00000000000E+00  0.00000000000E+00  0.74505805969E-08  0.10566000000E+00  0.10566000000E+00 0.  1.
     999900   -1    0    0    0    0 -0.00000000000E+00 -0.00000000000E+00 -0.74505805969E-08  0.93827000000E+00  0.93827000000E+00 0.  1.
     999902    2    1    2    0    0  0.17373895734E-01  0.10039702857E-01 -0.11962164091E-01  0.10205688944E+01  0.10203014882E+01 0.  0.
     999903    2    3    3    0    0  0.13029978822E+00 -0.14217203491E-01  0.71314092325E-02  0.13281598999E+00  0.20225392776E-01 0.  0.
         14    1    1    2    0    0 -0.17373895734E-01 -0.10039702857E-01  0.11962164091E-01  0.23361105629E-01  0.00000000000E+00 0.  1.
     999901    1    3    3    0    0 -0.11292589249E+00  0.24256906348E-01 -0.19093573324E-01  0.88775290438E+00  0.88000000000E+00 0.  1.
        -11    1    4    4    0    0  0.29496844676E-01  0.73610446844E-03  0.91255282449E-02  0.30889190381E-01  0.51100000000E-03 0. -1.
         11    1    4    4    0    0  0.10080294355E+00 -0.14953307959E-01 -0.19941190124E-02  0.10192679961E+00  0.51100000000E-03 0.  1.
</event>
<event>
 8    1  0.1088021E+005  0.1043930E+01  0.7957747E-01            NaN
         13   -1    0    0    0    0  0.00000000000E+00  0.00000000000E+00  0.74505805969E-08  0.10566000000E+00  0.10566000000E+00 0. -1.
     999900   -1    0    0    0    0 -0.00000000000E+00 -0.00000000000E+00 -0.74505805969E-08  0.93827000000E+00  0.93827000000E+00 0. -1.
     999902    2    1    2    0    0 -0.67846780655E-02  0.17798946192E-01  0.13496016170E-01  0.10205852620E+01  0.10203182347E+01 0.  0.
     999903    2    3    3    0    0  0.20909486185E-01  0.90023524390E-01  0.94267111932E-01  0.13350729112E+00  0.19911474928E-01 0.  0.
         14    1    1    2    0    0  0.67846780655E-02 -0.17798946192E-01 -0.13496016170E-01  0.23344738047E-01  0.00000000000E+00 0.  1.
     999901    1    3    3    0    0 -0.27694164250E-01 -0.72224578197E-01 -0.80771095761E-01  0.88707797083E+00  0.88000000000E+00 0. -1.
        -11    1    4    4    0    0  0.29568386028E-02  0.59813053627E-02  0.15699685993E-01  0.17066346113E-01  0.51100000000E-03 0.  1.
         11    1    4    4    0    0  0.17952647582E-01  0.84042219027E-01  0.78567425939E-01  0.11644094501E+00  0.51100000000E-03 0. -1.
</event>
<event>
 8    1  0.1088021E+005  0.1043930E+01  0.7957747E-01            NaN
         13   -1    0    0    0    0  0.00000000000E+00  0.00000000000E+00  0.74505805969E-08  0.10566000000E+00  0.10566000000E+00 0.  1.
     999900   -1    0    0    0    0 -0.00000000000E+00 -0.00000000000E+00 -0.74505805969E-08  0.93827000000E+00  0.93827000000E+00 0. -1.
     999902    2    1    2    0    0 -0.13931177014E-01  0.13473728271E-01 -0.12940073073E-01  0.10206262549E+01  0.10203601754E+01 0.  0.
     999903    2    3    3    0    0  0.67867441302E-01  0.10841300039E+00 -0.24408163428E-01  0.13167406467E+00  0.19568664300E-01 0.  0.
         14    1    1    2    0    0  0.13931177014E-01 -0.13473728271E-01  0.12940073073E-01  0.23303745142E-01  0.00000000000E+00 0. -1.
     999901    1    3    3    0    0 -0.81798618316E-01 -0.94939272114E-01  0.11468090355E-01  0.88895219019E+00  0.88000000000E+00 0. -1.
        -11    1    4    4    0    0  0.14642928943E-01  0.39508143845E-01 -0.46661108342E-02  0.42395076476E-01  0.51100000000E-03 0.  1.
         11    1    4    4    0    0  0.53224512359E-01  0.68904856541E-01 -0.19742052594E-01  0.89278988191E-01  0.51100000000E-03 0. -1.
</event>
<event>
 8    1  0.1088021E+005  0.1043930E+01  0.7957747E-01            NaN
         13   -1    0    0    0    0  0.00000000000E+00  0.00000000000E+00  0.74505805969E-08  0.10566000000E+00  0.10566000000E+00 0. -1.
     999900   -1    0    0    0    0 -0.00000000000E+00 -0.00000000000E+00 -0.74505805969E-08  0.93827000000E+00  0.93827000000E+00 0. -1.
     999902    2    1    2    0    0  0.20319518076E-01  0.11471165909E-01 -0.48209850950E-02  0.10201032848E+01  0.10198249846E+01 0.  0.
     999903    2    3    3    0    0  0.22126764325E-01  0.74547512771E-01  0.10374584808E+00  0.13118897565E+00  0.20010521673E-01 0.  0.
         14    1    1    2    0    0 -0.20319518076E-01 -0.11471165909E-01  0.48209850950E-02  0.23826715246E-01  0.00000000000E+00 0. -1.
     999901    1    3    3    0    0 -0.18072462496E-02 -0.63076346863E-01 -0.10856683317E+00  0.88891430911E+00  0.88000000000E+00 0. -1.
        -11    1    4    4    0    0  0.19314319783E-01  0.49747576599E-01  0.83258506389E-01  0.98894410020E-01  0.51100000000E-03 0.  1.
         11    1    4    4    0    0  0.28124445425E-02  0.24799936172E-01  0.20487341689E-01  0.32294565626E-01  0.51100000000E-03 0. -1.
</event>
<event>
 7    1  0.1088021E+005  0.1043930E+01  0.7957747E-01            NaN
         13   -1    0    0    0    0  0.00000000000E+00  0.00000000000E+00  0.74505805969E-08  0.10566000000E+00  0.10566000000E+00 0.  1.
     999900   -1    0    0    0    0 -0.00000000000E+00 -0.00000000000E+00 -0.74505805969E-08  0.93827000000E+00  0.93827000000E+00 0.  1.
     999903    2    1    2    0    0  0.18442394322E-01  0.54770484860E-01  0.84025931262E-01  0.10406346773E+00  0.20710390414E-01 0.  0.
         14    1    1    2    0    0 -0.26597783105E-01 -0.42000909078E-01  0.20047382515E-01  0.53604253331E-01  0.00000000000E+00 0.  1.
     999901    1    1    2    0    0  0.81553887837E-02 -0.12769575782E-01 -0.10407331378E+00  0.88626227894E+00  0.88000000000E+00 0.  1.
        -11    1    3    3    0    0  0.16701334283E-01  0.49635897913E-01  0.83535543108E-01  0.98595664265E-01  0.51100000000E-03 0. -1.
         11    1    3    3    0    0  0.17410600388E-02  0.51345869470E-02  0.49038815400E-03  0.54678034636E-02  0.51100000000E-03 0.  1.
</event>
<event>
 8    1  0.1088021E+005  0.1043930E+01  0.7957747E-01            NaN
         13   -1    0    0    0    0  0.00000000000E+00  0.00000000000E+00  0.74505805969E-08  0.10566000000E+00  0.10566000000E+00 0.  1.
     999900   -1    0    0    0    0 -0.00000000000E+00 -0.00000000000E+00 -0.74505805969E-08  0.93827000000E+00  0.93827000000E+00 0.  1.
     999902    2    1    2    0    0 -0.95332904088E-02 -0.83015766449E-02  0.19792735217E-01  0.10204448522E+01  0.10201745655E+01 0.  0.
     999903    2    3    3    0    0 -0.31798606451E-01 -0.11617951768E+00  0.52653536192E-01  0.13296909099E+00  0.19988811449E-01 0.  0.
         14    1    1    2    0    0  0.95332904088E-02  0.83015766449E-02 -0.19792735217E-01  0.23485147821E-01  0.00000000000E+00 0. -1.
     999901    1    3    3    0    0  0.22265316042E-01  0.10787794104E+00 -0.32860800975E-01  0.88747576119E+00  0.88000000000E+00 0. -1.
        -11    1    4    4    0    0 -0.15428218917E-01 -0.45500092522E-01  0.10929252054E-01  0.49274719989E-01  0.51100000000E-03 0. -1.
         11    1    4    4    0    0 -0.16370387534E-01 -0.70679425161E-01  0.41724284137E-01  0.83694370999E-01  0.51100000000E-03 0.  1.
</event>
<event>
 8    1  0.1088021E+005  0.1043930E+01  0.7957747E-01            NaN
         13   -1    0    0    0    0  0.00000000000E+00  0.00000000000E+00  0.74505805969E-08  0.10566000000E+00  0.10566000000E+00 0. -1.
     999900   -1    0    0    0    0 -0.00000000000E+00 -0.00000000000E+00 -0.74505805969E-08  0.93827000000E+00  0.93827000000E+00 0.  1.
     999902    2    1    2    0    0  0.11209824299E-01 -0.24470507978E-01 -0.14591531904E-02  0.10169745729E+01  0.10166172765E+01 0.  0.
     999903    2    3    3    0    0  0.63616131825E-01  0.92322931662E-01 -0.54236607422E-01  0.12614766027E+00  0.20027148271E-01 0.  0.
         14    1    1    2    0    0 -0.11209824299E-01  0.24470507978E-01  0.14591531904E-02  0.26955427089E-01  0.00000000000E+00 0. -1.
     999901    1    3    3    0    0 -0.52406307525E-01 -0.11679343964E+00  0.52777454232E-01  0.89082691264E+00  0.88000000000E+00 0.  1.
        -11    1    4    4    0    0  0.23330293186E-01  0.19012233077E-01 -0.17148880540E-01  0.34642644407E-01  0.51100000000E-03 0. -1.
         11    1    4    4    0    0  0.40285838639E-01  0.73310698584E-01 -0.37087726882E-01  0.91505015863E-01  0.51100000000E-03 0.  1.
</event>
<event>
 8    1  0.1088021E+005  0.1043930E+01  0.7957747E-01            NaN
         13   -1    0    0    0    0  0.00000000000E+00  0.00000000000E+00  0.74505805969E-08  0.10566000000E+00  0.10566000000E+00 0.  1.
     999900   -1    0    0    0    0 -0.00000000000E+00 -0.00000000000E+00 -0.74505805969E-08  0.93827000000E+00  0.93827000000E+00 0.  1.
     999902    2    1    2    0    0 -0.10093249896E-01 -0.39207374788E-03  0.21855424712E-01  0.10198533099E+01  0.10195690692E+01 0.  0.
     999903    2    3    3    0    0 -0.96242454287E-01 -0.60063231651E-01 -0.59992570996E-01  0.12986374432E+00  0.19881692827E-01 0.  0.
         14    1    1    2    0    0  0.10093249896E-01  0.39207374788E-03 -0.21855424712E-01  0.24076690068E-01  0.00000000000E+00 0. -1.
     999901    1    3    3    0    0  0.86149204391E-01  0.59671157903E-01  0.81847995707E-01  0.88998956562E+00  0.88000000000E+00 0. -1.
        -11    1    4    4    0    0 -0.94957745605E-01 -0.55096546306E-01 -0.58922771711E-01  0.12459838286E+00  0.51100000000E-03 0.  1.
         11    1    4    4    0    0 -0.12847086825E-02 -0.49666853455E-02 -0.10697992844E-02  0.52653614529E-02  0.51100000000E-03 0. -1.
</event>
<event>
 8    1  0.1088021E+005  0.1043930E+01  0.7957747E-01            NaN
         13   -1    0    0    0    0  0.00000000000E+00  0.00000000000E+00  0.74505805969E-08  0.10566000000E+00  0.10566000000E+00 0. -1.
     999900   -1    0    0    0    0 -0.00000000000E+00 -0.00000000000E+00 -0.74505805969E-08  0.93827000000E+00  0.93827000000E+00 0. -1.
     999902    2    1    2    0    0 -0.45530282751E-02 -0.11211021329E-01 -0.21803321030E-01  0.10189940446E+01  0.10186888931E+01 0.  0.
     999903    2    3    3    0    0  0.14783574453E-01  0.12457658579E+00 -0.18188758542E-01  0.12836210963E+00  0.20201991308E-01 0.  0.
         14    1    1    2    0    0  0.45530282751E-02  0.11211021329E-01  0.21803321030E-01  0.24935955439E-01  0.00000000000E+00 0. -1.
     999901    1    3    3    0    0 -0.19336602728E-01 -0.13578760711E+00 -0.36145624882E-02  0.89063193493E+00  0.88000000000E+00 0. -1.
        -11    1    4    4    0    0 -0.47711165443E-02  0.14907912094E-01 -0.18248956533E-02  0.15767078398E-01  0.51100000000E-03 0.  1.
         11    1    4    4    0    0  0.19554690998E-01  0.10966867369E+00 -0.16363862888E-01  0.11259503124E+00  0.51100000000E-03 0. -1.
</event>
<event>
 8    1  0.1088021E+005  0.1043930E+01  0.7957747E-01            NaN
         13   -1    0    0    0    0  0.00000000000E+00  0.00000000000E+00  0.74505805969E-08  0.10566000000E+00  0.10566000000E+00 0.  1.
     999900   -1    0    0    0    0 -0.00000000000E+00 -0.00000000000E+00 -0.74505805969E-08  0.93827000000E+00  0.93827000000E+00 0. -1.
     999902    2    1    2    0    0  0.14114930065E-01  0.10040841509E-01 -0.16406698959E-01  0.10200714686E+01  0.10197924159E+01 0.  0.
     999903    2    3    3    0    0  0.18618400749E-01  0.13788718041E-01  0.12520075904E+00  0.12873146616E+00  0.18968044771E-01 0.  0.
         14    1    1    2    0    0 -0.14114930065E-01 -0.10040841509E-01  0.16406698959E-01  0.23858531381E-01  0.00000000000E+00 0. -1.
     999901    1    3    3    0    0 -0.45034706844E-02 -0.37478765325E-02 -0.14160745800E+00  0.89134000246E+00  0.88000000000E+00 0. -1.
        -11    1    4    4    0    0  0.15768813814E-01  0.23321760975E-03  0.57460026069E-01  0.59587126096E-01  0.51100000000E-03 0. -1.
         11    1    4    4    0    0  0.28495869349E-02  0.13555500432E-01  0.67740732973E-01  0.69144340061E-01  0.51100000000E-03 0.  1.
</event>
<event>
 8    1  0.1088021E+005  0.1043930E+01  0.7957747E-01            NaN
         13   -1    0    0    0    0  0.00000000000E+00  0.00000000000E+00  0.74505805969E-08  0.10566000000E+00  0.10566000000E+00 0.  1.
     999900   -1    0    0    0    0 -0.00000000000E+00 -0.00000000000E+00 -0.74505805969E-08  0.93827000000E+00  0.93827000000E+00 0.  1.
     999902    2    1    2    0    0 -0.10344819842E-01  0.13669885461E-01 -0.18263238439E-01  0.10188815081E+01  0.10185735617E+01 0.  0.
     999903    2    3    3    0    0  0.78223186096E-01 -0.97307728647E-01  0.12675527315E-01  0.12696361409E+00  0.19272504039E-01 0.  0.
         14    1    1    2    0    0  0.10344819842E-01 -0.13669885461E-01  0.18263238439E-01  0.25048491858E-01  0.00000000000E+00 0.  1.
     999901    1    3    3    0    0 -0.88568005938E-01  0.11097761411E+00 -0.30938765754E-01  0.89191789405E+00  0.88000000000E+00 0. -1.
        -11    1    4    4    0    0  0.59939855720E-01 -0.70387504060E-01  0.12200547801E-02  0.92460460123E-01  0.51100000000E-03 0.  1.
         11    1    4    4    0    0  0.18283330375E-01 -0.26920224588E-01  0.11455472535E-01  0.34503153964E-01  0.51100000000E-03 0. -1.
</event>
<event>
 8    1  0.1088021E+005  0.1043930E+01  0.7957747E-01            NaN
         13   -1    0    0    0    0  0.00000000000E+00  0.00000000000E+00  0.74505805969E-08  0.10566000000E+00  0.10566000000E+00 0.  1.
     999900   -1    0    0    0    0 -0.00000000000E+00 -0.00000000000E+00 -0.74505805969E-08  0.93827000000E+00  0.93827000000E+00 0.  1.
     999902    2    1    2    0    0  0.48740597140E-02  0.16418956146E-01  0.13195377320E-01  0.10223092562E+01  0.10220806029E+01 0.  0.
     999903    2    3    3    0    0  0.67984757180E-01 -0.80250833417E-01 -0.74349706448E-01  0.13046165150E+00  0.20742232055E-01 0.  0.
         14    1    1    2    0    0 -0.48740597140E-02 -0.16418956146E-01 -0.13195377320E-01  0.21620743781E-01  0.00000000000E+00 0.  1.
     999901    1    3    3    0    0 -0.63110697466E-01  0.96669789563E-01  0.87545083768E-01  0.89184760472E+00  0.88000000000E+00 0. -1.
        -11    1    4    4    0    0  0.52737150840E-01 -0.53831012592E-01 -0.43219700639E-01  0.86874556918E-01  0.51100000000E-03 0. -1.
         11    1    4    4    0    0  0.15247606339E-01 -0.26419820826E-01 -0.31130005809E-01  0.43587094583E-01  0.51100000000E-03 0.  1.
</event>
<event>
 8    1  0.1088021E+005  0.1043930E+01  0.7957747E-01            NaN
         13   -1    0    0    0    0  0.00000000000E+00  0.00000000000E+00  0.74505805969E-08  0.10566000000E+00  0.10566000000E+00 0. -1.
     999900   -1    0    0    0    0 -0.00000000000E+00 -0.00000000000E+00 -0.74505805969E-08  0.93827000000E+00  0.93827000000E+00 0. -1.
     999902    2    1    2    0    0 -0.12232015036E-01 -0.18010221919E-01  0.85845069485E-02  0.10205273496E+01  0.10202589805E+01 0.  0.
     999903    2    3    3    0    0  0.89200465492E-01 -0.91141612683E-01  0.25479003626E-01  0.13152669020E+00  0.19661485276E-01 0.  0.
         14    1    1    2    0    0  0.12232015036E-01  0.18010221919E-01 -0.85845069485E-02  0.23402650384E-01  0.00000000000E+00 0.  1.
     999901    1    3    3    0    0 -0.10143248053E+00  0.73131390763E-01 -0.16894496678E-01  0.88900065941E+00  0.88000000000E+00 0. -1.
        -11    1    4    4    0    0  0.56459400464E-01 -0.67589754994E-01  0.11398328617E-01  0.88804402465E-01  0.51100000000E-03 0.  1.
         11    1    4    4    0    0  0.32741065028E-01 -0.23551857689E-01  0.14080675009E-01  0.42722287737E-01  0.51100000000E-03 0. -1.
</event>
<event>
 8    1  0.1088021E+005  0.1043930E+01  0.7957747E-01            NaN
         13   -1    0    0    0    0  0.00000000000E+00  0.00000000000E+00  0.74505805969E-08  0.10566000000E+00  0.10566000000E+00 0.  1.
     999900   -1    0    0    0    0 -0.00000000000E+00 -0.00000000000E+00 -0.74505805969E-08  0.93827000000E+00  0.93827000000E+00 0. -1.
     999902    2    1    2    0    0  0.10556060559E-01 -0.12713279664E-01  0.17026028482E-01  0.10202035687E+01  0.10199276338E+01 0.  0.
     999903    2    3    3    0    0  0.99288056266E-01  0.16284979778E-01 -0.79763254353E-01  0.12998874558E+00  0.20287398749E-01 0.  0.
         14    1    1    2    0    0 -0.10556060559E-01  0.12713279664E-01 -0.17026028482E-01  0.23726431258E-01  0.00000000000E+00 0. -1.
     999901    1    3    3    0    0 -0.88731995707E-01 -0.28998259442E-01  0.96789282836E-01  0.89021482317E+00  0.88000000000E+00 0.  1.
        -11    1    4    4    0    0  0.77761716249E-01  0.13143397013E-01 -0.50992199373E-01  0.93915381685E-01  0.51100000000E-03 0. -1.
         11    1    4    4    0    0  0.21526340017E-01  0.31415827652E-02 -0.28771054980E-01  0.36073363892E-01  0.51100000000E-03 0.  1.
</event>
<event>
 8    1  0.1088021E+005  0.1043930E+01  0.7957747E-01            NaN
         13   -1    0    0    0    0  0.00000000000E+00  0.00000000000E+00  0.74505805969E-08  0.10566000000E+00  0.10566000000E+00 0. -1.
     999900   -1    0    0    0    0 -0.00000000000E+00 -0.00000000000E+00 -0.74505805969E-08  0.93827000000E+00  0.93827000000E+00 0.  1.
     999902    2    1    2    0    0 -0.21241387921E-01  0.51548985375E-02 -0.10017235212E-01  0.10198859874E+01  0.10196025269E+01 0.  0.
     999903    2    3    3    0    0 -0.96759324863E-03  0.93448090781E-02 -0.12974221572E+00  0.13153771503E+00  0.19515794644E-01 0.  0.
         14    1    1    2    0    0  0.21241387921E-01 -0.51548985375E-02  0.10017235212E-01  0.24044012582E-01  0.00000000000E+00 0.  1.
     999901    1    3    3    0    0 -0.20273794673E-01 -0.41899105407E-02  0.11972498051E+00  0.88834827239E+00  0.88000000000E+00 0. -1.
        -11    1    4    4    0    0  0.81559550085E-02  0.90364447761E-02 -0.85208752569E-01  0.86075371458E-01  0.51100000000E-03 0.  1.
         11    1    4    4    0    0 -0.91235482571E-02  0.30836430200E-03 -0.44533463154E-01  0.45462343570E-01  0.51100000000E-03 0. -1.
</event>
<event>
 8    1  0.1088021E+005  0.1043930E+01  0.7957747E-01            NaN
         13   -1    0    0    0    0  0.00000000000E+00  0.00000000000E+00  0.74505805969E-08  0.10566000000E+00  0.10566000000E+00 0. -1.
     999900   -1    0    0    0    0 -0.00000000000E+00 -0.00000000000E+00 -0.74505805969E-08  0.93827000000E+00  0.93827000000E+00 0. -1.
     999902    2    1    2    0    0  0.19196230590E-01  0.81780460396E-02 -0.12177052727E-01  0.10197710199E+01  0.10194848095E+01 0.  0.
     999903    2    3    3    0    0  0.13104326559E+00  0.24880617122E-02  0.11776879536E-02  0.13257291111E+00  0.19891251951E-01 0.  0.
         14    1    1    2    0    0 -0.19196230590E-01 -0.81780460396E-02  0.12177052727E-01  0.24158980090E-01  0.00000000000E+00 0.  1.
     999901    1    3    3    0    0 -0.11184703500E+00  0.56899843274E-02 -0.13354740681E-01  0.88719810880E+00  0.88000000000E+00 0.  1.
        -11    1    4    4    0    0  0.76034130105E-01 -0.68043522225E-02 -0.46339901902E-02  0.76480214017E-01  0.51100000000E-03 0. -1.
         11    1    4    4    0    0  0.55009135483E-01  0.92924139346E-02  0.58116781438E-02  0.56092697093E-01  0.51100000000E-03 0.  1.
</event>
<event>
 8    1  0.1088021E+005  0.1043930E+01  0.7957747E-01            NaN
         13   -1    0    0    0    0  0.00000000000E+00  0.00000000000E+00  0.74505805969E-08  0.10566000000E+00  0.10566000000E+00 0. -1.
     999900   -1    0    0    0    0 -0.00000000000E+00 -0.00000000000E+00 -0.74505805969E-08  0.93827000000E+00  0.93827000000E+00 0. -1.
     999902    2    1    2    0    0 -0.82079062098E-02  0.88930146461E-02 -0.24969552114E-02  0.10315732116E+01  0.10314992005E+01 0.  0.
     999903    2    3    3    0    0 -0.48492428321E-01 -0.48403196764E-01  0.12072489485E+00  0.14023190611E+00  0.19902316293E-01 0.  0.
         14    1    1    2    0    0  0.82079062098E-02 -0.88930146461E-02  0.24969552114E-02  0.12356788384E-01  0.00000000000E+00 0.  1.
     999901    1    3    3    0    0  0.40284522112E-01  0.57296211410E-01 -0.12322185006E+00  0.89134130550E+00  0.88000000000E+00 0. -1.
        -11    1    4    4    0    0 -0.45290923702E-01 -0.34138876569E-01  0.95670562330E-01  0.11121981964E+00  0.51100000000E-03 0.  1.
         11    1    4    4    0    0 -0.32015046190E-02 -0.14264320195E-01  0.25054332520E-01  0.29012086472E-01  0.51100000000E-03 0. -1.
</event>
<event>
 8    1  0.1088021E+005  0.1043930E+01  0.7957747E-01            NaN
         13   -1    0    0    0    0  0.00000000000E+00  0.00000000000E+00  0.74505805969E-08  0.10566000000E+00  0.10566000000E+00 0.  1.
     999900   -1    0    0    0    0 -0.00000000000E+00 -0.00000000000E+00 -0.74505805969E-08  0.93827000000E+00  0.93827000000E+00 0.  1.
     999902    2    1    2    0    0 -0.11080177430E-01  0.30779800086E-02  0.19881012808E-01  0.10209626544E+01  0.10207042876E+01 0.  0.
     999903    2    3    3    0    0  0.40383264473E-02 -0.12271359383E+00  0.41956081795E-01  0.13161491710E+00  0.22073500217E-01 0.  0.
         14    1    1    2    0    0  0.11080177430E-01 -0.30779800086E-02 -0.19881012808E-01  0.22967345582E-01  0.00000000000E+00 0. -1.
     999901    1    3    3    0    0 -0.15118503877E-01  0.12579157384E+00 -0.22075068987E-01  0.88934773732E+00  0.88000000000E+00 0.  1.
        -11    1    4    4    0    0 -0.87702948945E-02 -0.48624045157E-01  0.19771041242E-01  0.53220024735E-01  0.51100000000E-03 0. -1.
         11    1    4    4    0    0  0.12808621342E-01 -0.74089548672E-01  0.22185040553E-01  0.78394892362E-01  0.51100000000E-03 0.  1.
</event>
<event>
 8    1  0.1088021E+005  0.1043930E+01  0.7957747E-01            NaN
         13   -1    0    0    0    0  0.00000000000E+00  0.00000000000E+00  0.74505805969E-08  0.10566000000E+00  0.10566000000E+00 0.  1.
     999900   -1    0    0    0    0 -0.00000000000E+00 -0.00000000000E+00 -0.74505805969E-08  0.93827000000E+00  0.93827000000E+00 0. -1.
     999902    2    1    2    0    0  0.57076889528E-02  0.17416133374E-01  0.13341822020E-01  0.10212605574E+01  0.10210089238E+01 0.  0.
     999903    2    3    3    0    0 -0.12547605608E+00  0.24023668180E-01 -0.19694610242E-01  0.13089869815E+00  0.20620723097E-01 0.  0.
         14    1    1    2    0    0 -0.57076889528E-02 -0.17416133374E-01 -0.13341822020E-01  0.22669442642E-01  0.00000000000E+00 0. -1.
     999901    1    3    3    0    0  0.13118374504E+00 -0.66075348061E-02  0.33036432262E-01  0.89036185921E+00  0.88000000000E+00 0.  1.
        -11    1    4    4    0    0 -0.44821334575E-01  0.11011389790E-01 -0.16893890793E-01  0.49151474091E-01  0.51100000000E-03 0. -1.
         11    1    4    4    0    0 -0.80654721509E-01  0.13012278390E-01 -0.28007194490E-02  0.81747224057E-01  0.51100000000E-03 0.  1.
</event>
<event>
 8    1  0.1088021E+005  0.1043930E+01  0.7957747E-01            NaN
         13   -1    0    0    0    0  0.00000000000E+00  0.00000000000E+00  0.74505805969E-08  0.10566000000E+00  0.10566000000E+00 0.  1.
     999900   -1    0    0    0    0 -0.00000000000E+00 -0.00000000000E+00 -0.74505805969E-08  0.93827000000E+00  0.93827000000E+00 0.  1.
     999902    2    1    2    0    0 -0.17722915295E-01  0.97076605085E-02  0.12546548452E-01  0.10201443683E+01  0.10198670383E+01 0.  0.
     999903    2    3    3    0    0 -0.94348593593E-01  0.48192398624E-01 -0.75591310006E-01  0.13159450937E+00  0.19465465578E-01 0.  0.
         14    1    1    2    0    0  0.17722915295E-01 -0.97076605085E-02 -0.12546548452E-01  0.23785631737E-01  0.00000000000E+00 0.  1.
     999901    1    3    3    0    0  0.76625678299E-01 -0.38484738115E-01  0.88137858458E-01  0.88854985889E+00  0.88000000000E+00 0. -1.
        -11    1    4    4    0    0 -0.65450289350E-01  0.42577319988E-01 -0.58336484528E-01  0.97467815721E-01  0.51100000000E-03 0.  1.
         11    1    4    4    0    0 -0.28898304243E-01  0.56150786353E-02 -0.17254825478E-01  0.34126693650E-01  0.51100000000E-03 0. -1.
</event>
<event>
 8    1  0.1088021E+005  0.1043930E+01  0.7957747E-01            NaN
         13   -1    0    0    0    0  0.00000000000E+00  0.00000000000E+00  0.74505805969E-08  0.10566000000E+00  0.10566000000E+00 0.  1.
     999900   -1    0    0    0    0 -0.00000000000E+00 -0.00000000000E+00 -0.74505805969E-08  0.93827000000E+00  0.93827000000E+00 0.  1.
     999902    2    1    2    0    0  0.76755830326E-02 -0.21993334179E-01 -0.49787109586E-02  0.10201096539E+01  0.10198315043E+01 0.  0.
     999903    2    3    3    0    0  0.33983500928E-01  0.29006359218E-01 -0.12021909692E+00  0.13074278824E+00  0.25392876986E-01 0.  0.
         14    1    1    2    0    0 -0.76755830326E-02  0.21993334179E-01  0.49787109586E-02  0.23820346051E-01  0.00000000000E+00 0. -1.
     999901    1    3    3    0    0 -0.26307917895E-01 -0.50999693397E-01  0.11524038596E+00  0.88936686571E+00  0.88000000000E+00 0. -1.
        -11    1    4    4    0    0  0.14123781978E-01  0.23410033714E-01 -0.44230159189E-01  0.52000759597E-01  0.51100000000E-03 0. -1.
         11    1    4    4    0    0  0.19859718950E-01  0.55963255037E-02 -0.75988937730E-01  0.78742028639E-01  0.51100000000E-03 0.  1.
</event>
<event>
 8    1  0.1088021E+005  0.1043930E+01  0.7957747E-01            NaN
         13   -1    0    0    0    0  0.00000000000E+00  0.00000000000E+00  0.74505805969E-08  0.10566000000E+00  0.10566000000E+00 0.  1.
     999900   -1    0    0    0    0 -0.00000000000E+00 -0.00000000000E+00 -0.74505805969E-08  0.93827000000E+00  0.93827000000E+00 0. -1.
     999902    2    1    2    0    0  0.19100262827E-01  0.87629265765E-02  0.95730000209E-02  0.10208377664E+01  0.10205765498E+01 0.  0.
     999903    2    3    3    0    0  0.63319617745E-01  0.76618435609E-01  0.86839786743E-01  0.13374708459E+00  0.21618866976E-01 0.  0.
         14    1    1    2    0    0 -0.19100262827E-01 -0.87629265765E-02 -0.95730000209E-02  0.23092233578E-01  0.00000000000E+00 0.  1.
     999901    1    3    3    0    0 -0.44219354918E-01 -0.67855509032E-01 -0.77266786722E-01  0.88709068183E+00  0.88000000000E+00 0. -1.
        -11    1    4    4    0    0  0.53574657357E-01  0.58741553079E-01  0.78531125406E-01  0.11175067225E+00  0.51100000000E-03 0. -1.
         11    1    4    4    0    0  0.97449603880E-02  0.17876882529E-01  0.83086613368E-02  0.21996412347E-01  0.51100000000E-03 0.  1.
</event>
<event>
 8    1  0.1088021E+005  0.1043930E+01  0.7957747E-01            NaN
         13   -1    0    0    0    0  0.00000000000E+00  0.00000000000E+00  0.74505805969E-08  0.10566000000E+00  0.10566000000E+00 0.  1.
     999900   -1    0    0    0    0 -0.00000000000E+00 -0.00000000000E+00 -0.74505805969E-08  0.93827000000E+00  0.93827000000E+00 0. -1.
     999902    2    1    2    0    0 -0.86074947633E-02  0.14561646408E-01 -0.17507263621E-01  0.10195859085E+01  0.10192952418E+01 0.  0.
     999903    2    3    3    0    0  0.40102304380E-01 -0.46049275034E-01 -0.11452687079E+00  0.13084571444E+00  0.16597177671E-01 0.  0.
         14    1    1    2    0    0  0.86074947633E-02 -0.14561646408E-01  0.17507263621E-01  0.24344091515E-01  0.00000000000E+00 0.  1.
     999901    1    3    3    0    0 -0.48709799143E-01  0.60610921442E-01  0.97019607173E-01  0.88874019404E+00  0.88000000000E+00 0.  1.
        -11    1    4    4    0    0  0.24013342751E-01 -0.15488821085E-01 -0.56486243505E-01  0.63304826317E-01  0.51100000000E-03 0.  1.
         11    1    4    4    0    0  0.16088961629E-01 -0.30560453949E-01 -0.58040627288E-01  0.67540888126E-01  0.51100000000E-03 0. -1.
</event>
<event>
 8    1  0.1088021E+005  0.1043930E+01  0.7957747E-01            NaN
         13   -1    0    0    0    0  0.00000000000E+00  0.00000000000E+00  0.74505805969E-08  0.10566000000E+00  0.10566000000E+00 0. -1.
     999900   -1    0    0    0    0 -0.00000000000E+00 -0.00000000000E+00 -0.74505805969E-08  0.93827000000E+00  0.93827000000E+00 0. -1.
     999902    2    1    2    0    0 -0.72299160130E-03 -0.47360027917E-02  0.22972780723E-01  0.10204629786E+01  0.10201931139E+01 0.  0.
     999903    2    3    3    0    0 -0.42426975965E-01 -0.73183712345E-01 -0.95226400347E-01  0.12895001870E+00  0.20103133054E-01 0.  0.
         14    1    1    2    0    0  0.72299160130E-03  0.47360027917E-02 -0.22972780723E-01  0.23467021402E-01  0.00000000000E+00 0.  1.
     999901    1    3    3    0    0  0.41703984363E-01  0.68447709553E-01  0.11819918107E+00  0.89151295989E+00  0.88000000000E+00 0.  1.
        -11    1    4    4    0    0 -0.20477268469E-01 -0.27550142909E-01 -0.52313958432E-01  0.62572679870E-01  0.51100000000E-03 0. -1.
         11    1    4    4    0    0 -0.21949707495E-01 -0.45633569436E-01 -0.42912441915E-01  0.66377338834E-01  0.51100000000E-03 0.  1.
</event>
<event>
 8    1  0.1088021E+005  0.1043930E+01  0.7957747E-01            NaN
         13   -1    0    0    0    0  0.00000000000E+00  0.00000000000E+00  0.74505805969E-08  0.10566000000E+00  0.10566000000E+00 0. -1.
     999900   -1    0    0    0    0 -0.00000000000E+00 -0.00000000000E+00 -0.74505805969E-08  0.93827000000E+00  0.93827000000E+00 0. -1.
     999902    2    1    2    0    0 -0.20541175042E-01  0.83887932713E-02 -0.65884033403E-02  0.10207844003E+01  0.10205219612E+01 0.  0.
     999903    2    3    3    0    0  0.17880651126E-01  0.11090471581E+00  0.64736457830E-01  0.13113672462E+00  0.19658532460E-01 0.  0.
         14    1    1    2    0    0  0.20541175042E-01 -0.83887932713E-02  0.65884033403E-02  0.23145599652E-01  0.00000000000E+00 0. -1.
     999901    1    3    3    0    0 -0.38421826168E-01 -0.10251592254E+00 -0.71324861170E-01  0.88964767572E+00  0.88000000000E+00 0. -1.
        -11    1    4    4    0    0  0.19378782388E-01  0.70169084882E-01  0.35653829699E-01  0.81059819721E-01  0.51100000000E-03 0. -1.
         11    1    4    4    0    0 -0.14981312626E-02  0.40735630931E-01  0.29082628131E-01  0.50076904903E-01  0.51100000000E-03 0.  1.
</event>
<event>
 8    1  0.1088021E+005  0.1043930E+01  0.7957747E-01            NaN
         13   -1    0    0    0    0  0.00000000000E+00  0.00000000000E+00  0.74505805969E-08  0.10566000000E+00  0.10566000000E+00 0.  1.
     999900   -1    0    0    0    0 -0.00000000000E+00 -0.00000000000E+00 -0.74505805969E-08  0.93827000000E+00  0.93827000000E+00 0.  1.
     999902    2    1    2    0    0 -0.82000335850E-02 -0.21793284152E-01  0.12151799395E-01  0.10176649279E+01  0.10173259318E+01 0.  0.
     999903    2    3    3    0    0  0.11359434343E+00  0.39496083906E-01  0.34555110027E-01  0.12688315593E+00  0.21015806601E-01 0.  0.
         14    1    1    2    0    0  0.82000335850E-02  0.21793284152E-01 -0.12151799395E-01  0.26265072119E-01  0.00000000000E+00 0. -1.
     999901    1    3    3    0    0 -0.12179437701E+00 -0.61289368057E-01 -0.22403310632E-01  0.89078177195E+00  0.88000000000E+00 0. -1.
        -11    1    4    4    0    0  0.10345479559E+00  0.28938261915E-01  0.31006546919E-01  0.11181227485E+00  0.51100000000E-03 0. -1.
         11    1    4    4    0    0  0.10139547838E-01  0.10557821990E-01  0.35485631079E-02  0.15070881085E-01  0.51100000000E-03 0.  1.
</event>
<event>
 8    1  0.1088021E+005  0.1043930E+01  0.7957747E-01            NaN
         13   -1    0    0    0    0  0.00000000000E+00  0.00000000000E+00  0.74505805969E-08  0.10566000000E+00  0.10566000000E+00 0.  1.
     999900   -1    0    0    0    0 -0.00000000000E+00 -0.00000000000E+00 -0.74505805969E-08  0.93827000000E+00  0.93827000000E+00 0. -1.
     999902    2    1    2    0    0 -0.85774458288E-02 -0.40965141462E-02 -0.21744331650E-01  0.10201987977E+01  0.10199227504E+01 0.  0.
     999903    2    3    3    0    0  0.37480067340E-01 -0.12459054265E+00  0.25118615519E-02  0.13046374254E+00  0.93230844071E-02 0.  0.
         14    1    1    2    0    0  0.85774458288E-02  0.40965141462E-02  0.21744331650E-01  0.23731202329E-01  0.00000000000E+00 0.  1.
     999901    1    3    3    0    0 -0.46057513169E-01  0.12049402850E+00 -0.24256193202E-01  0.88973505513E+00  0.88000000000E+00 0.  1.
        -11    1    4    4    0    0  0.10950645666E-01 -0.32297276497E-01  0.45567525997E-02  0.34410112247E-01  0.51100000000E-03 0. -1.
         11    1    4    4    0    0  0.26529421674E-01 -0.92293266153E-01 -0.20448910477E-02  0.96053630290E-01  0.51100000000E-03 0.  1.
</event>
<event>
 8    1  0.1088021E+005  0.1043930E+01  0.7957747E-01            NaN
         13   -1    0    0    0    0  0.00000000000E+00  0.00000000000E+00  0.74505805969E-08  0.10566000000E+00  0.10566000000E+00 0. -1.
     999900   -1    0    0    0    0 -0.00000000000E+00 -0.00000000000E+00 -0.74505805969E-08  0.93827000000E+00  0.93827000000E+00 0.  1.
     999902    2    1    2    0    0 -0.16643117745E-01  0.83813556633E-02 -0.14954995187E-01  0.10200366459E+01  0.10197567683E+01 0.  0.
     999903    2    3    3    0    0  0.84015210835E-01  0.89896089524E-01  0.34057760257E-01  0.12920613384E+00  0.19860297705E-01 0.  0.
         14    1    1    2    0    0  0.16643117745E-01 -0.83813556633E-02  0.14954995187E-01  0.23893354140E-01  0.00000000000E+00 0. -1.
     999901    1    3    3    0    0 -0.10065832858E+00 -0.81514733861E-01 -0.49012755444E-01  0.89083051202E+00  0.88000000000E+00 0. -1.
        -11    1    4    4    0    0  0.18322202708E-01  0.23192673845E-01 -0.58567576366E-04  0.29561254766E-01  0.51100000000E-03 0. -1.
         11    1    4    4    0    0  0.65693008127E-01  0.66703415679E-01  0.34116327833E-01  0.99644879075E-01  0.51100000000E-03 0.  1.
</event>
<event>
 8    1  0.1088021E+005  0.1043930E+01  0.7957747E-01            NaN
         13   -1    0    0    0    0  0.00000000000E+00  0.00000000000E+00  0.74505805969E-08  0.10566000000E+00  0.10566000000E+00 0.  1.
     999900   -1    0    0    0    0 -0.00000000000E+00 -0.00000000000E+00 -0.74505805969E-08  0.93827000000E+00  0.93827000000E+00 0. -1.
     999902    2    1    2    0    0 -0.16963063434E-01  0.13129896689E-01 -0.72842336463E-02  0.10212760871E+01  0.10210248020E+01 0.  0.
     999903    2    3    3    0    0 -0.77759165683E-01  0.10723983750E+00 -0.70248614381E-02  0.13417242111E+00  0.20149920934E-01 0.  0.
         14    1    1    2    0    0  0.16963063434E-01 -0.13129896689E-01  0.72842336463E-02  0.22653912862E-01  0.00000000000E+00 0.  1.
     999901    1    3    3    0    0  0.60796102249E-01 -0.94109940810E-01 -0.25937220818E-03  0.88710366603E+00  0.88000000000E+00 0. -1.
        -11    1    4    4    0    0 -0.53188060952E-01  0.86000784135E-01 -0.96743542807E-02  0.10158227676E+00  0.51100000000E-03 0.  1.
         11    1    4    4    0    0 -0.24571104731E-01  0.21239053364E-01  0.26494928426E-02  0.32590144351E-01  0.51100000000E-03 0. -1.
</event>
<event>
 8    1  0.1088021E+005  0.1043930E+01  0.7957747E-01            NaN
         13   -1    0    0    0    0  0.00000000000E+00  0.00000000000E+00  0.74505805969E-08  0.10566000000E+00  0.10566000000E+00 0.  1.
     999900   -1    0    0    0    0 -0.00000000000E+00 -0.00000000000E+00 -0.74505805969E-08  0.93827000000E+00  0.93827000000E+00 0. -1.
     999902    2    1    2    0    0 -0.25229502872E-02 -0.20777877379E-01  0.10123482417E-01  0.10206798309E+01  0.10204149876E+01 0.  0.
     999903    2    3    3    0    0 -0.12786370519E+00  0.16582481452E-01 -0.93751758741E-02  0.13079989579E+00  0.19915145489E-01 0.  0.
         14    1    1    2    0    0  0.25229502872E-02  0.20777877379E-01 -0.10123482417E-01  0.23250169092E-01  0.00000000000E+00 0.  1.
     999901    1    3    3    0    0  0.12534075490E+00 -0.37360358831E-01  0.19498658291E-01  0.88987993512E+00  0.88000000000E+00 0. -1.
        -11    1    4    4    0    0 -0.47521437720E-01 -0.61885171694E-03  0.33927225292E-02  0.47649152223E-01  0.51100000000E-03 0.  1.
         11    1    4    4    0    0 -0.80342267470E-01  0.17201333169E-01 -0.12767898403E-01  0.83150743566E-01  0.51100000000E-03 0. -1.
</event>
<event>
 8    1  0.1088021E+005  0.1043930E+01  0.7957747E-01            NaN
         13   -1    0    0    0    0  0.00000000000E+00  0.00000000000E+00  0.74505805969E-08  0.10566000000E+00  0.10566000000E+00 0.  1.
     999900   -1    0    0    0    0 -0.00000000000E+00 -0.00000000000E+00 -0.74505805969E-08  0.93827000000E+00  0.93827000000E+00 0.  1.
     999902    2    1    2    0    0  0.27259431574E-02 -0.22829711001E-01  0.17604007009E-02  0.10208708265E+01  0.10206103659E+01 0.  0.
     999903    2    3    3    0    0  0.10279762666E+00 -0.56039590357E-01 -0.59829433296E-01  0.13243931787E+00  0.15900443271E-01 0.  0.
         14    1    1    2    0    0 -0.27259431574E-02  0.22829711001E-01 -0.17604007009E-02  0.23059173470E-01  0.00000000000E+00 0.  1.
     999901    1    3    3    0    0 -0.10007168350E+00  0.33209879356E-01  0.61589833997E-01  0.88843150866E+00  0.88000000000E+00 0. -1.
        -11    1    4    4    0    0  0.16468129585E-01 -0.12472601658E-01 -0.49437344599E-02  0.21247746128E-01  0.51100000000E-03 0.  1.
         11    1    4    4    0    0  0.86329497072E-01 -0.43566988699E-01 -0.54885698836E-01  0.11119157174E+00  0.51100000000E-03 0. -1.
</event>
<event>
 8    1  0.1088021E+005  0.1043930E+01  0.7957747E-01            NaN
         13   -1    0    0    0    0  0.00000000000E+00  0.00000000000E+00  0.74505805969E-08  0.10566000000E+00  0.10566000000E+00 0. -1.
     999900   -1    0    0    0    0 -0.00000000000E+00 -0.00000000000E+00 -0.74505805969E-08  0.93827000000E+00  0.93827000000E+00 0.  1.
     999902    2    1    2    0    0 -0.16324365139E-01 -0.16744863746E-01 -0.90534952755E-03  0.10205271152E+01  0.10202587406E+01 0.  0.
     999903    2    3    3    0    0 -0.10545579336E+00 -0.42797890308E-01  0.63355535561E-01  0.13331088843E+00  0.28377549575E-01 0.  0.
         14    1    1    2    0    0  0.16324365139E-01  0.16744863746E-01  0.90534952755E-03  0.23402884797E-01  0.00000000000E+00 0.  1.
     999901    1    3    3    0    0  0.89131428225E-01  0.26053026561E-01 -0.64260885089E-01  0.88721622677E+00  0.88000000000E+00 0.  1.
        -11    1    4    4    0    0 -0.17965981013E-01 -0.18575410876E-01  0.20138704899E-01  0.32766612870E-01  0.51100000000E-03 0. -1.
         11    1    4    4    0    0 -0.87489812351E-01 -0.24222479431E-01  0.43216830662E-01  0.10054427556E+00  0.51100000000E-03 0.  1.
</event>
<event>
 8    1  0.1088021E+005  0.1043930E+01  0.7957747E-01            NaN
         13   -1    0    0    0    0  0.00000000000E+00  0.00000000000E+00  0.74505805969E-08  0.10566000000E+00  0.10566000000E+00 0. -1.
     999900   -1    0    0    0    0 -0.00000000000E+00 -0.00000000000E+00 -0.74505805969E-08  0.93827000000E+00  0.93827000000E+00 0. -1.
     999902    2    1    2    0    0 -0.76239243398E-02  0.16458202273E-01  0.15418547444E-01  0.10201239451E+01  0.10198461331E+01 0.  0.
     999903    2    3    3    0    0 -0.33042156703E-01 -0.75629528277E-01 -0.96599756137E-01  0.12789396523E+00  0.14619979103E-01 0.  0.
         14    1    1    2    0    0  0.76239243398E-02 -0.16458202273E-01 -0.15418547444E-01  0.23806054895E-01  0.00000000000E+00 0.  1.
     999901    1    3    3    0    0  0.25418232363E-01  0.92087730550E-01  0.11201830358E+00  0.89222997988E+00  0.88000000000E+00 0.  1.
        -11    1    4    4    0    0 -0.18826738307E-01 -0.29431087413E-01 -0.33492984702E-01  0.48401199643E-01  0.51100000000E-03 0.  1.
         11    1    4    4    0    0 -0.14215418396E-01 -0.46198440864E-01 -0.63106771435E-01  0.79492765585E-01  0.51100000000E-03 0. -1.
</event>
<event>
 8    1  0.1088021E+005  0.1043930E+01  0.7957747E-01            NaN
         13   -1    0    0    0    0  0.00000000000E+00  0.00000000000E+00  0.74505805969E-08  0.10566000000E+00  0.10566000000E+00 0.  1.
     999900   -1    0    0    0    0 -0.00000000000E+00 -0.00000000000E+00 -0.74505805969E-08  0.93827000000E+00  0.93827000000E+00 0. -1.
     999902    2    1    2    0    0  0.12851674879E-02  0.19564667860E-01 -0.12168353952E-01  0.10208541095E+01  0.10205932668E+01 0.  0.
     999903    2    3    3    0    0 -0.11096383371E+00 -0.55081174242E-01  0.31958634976E-01  0.12949613924E+00  0.20024674286E-01 0.  0.
         14    1    1    2    0    0 -0.12851674879E-02 -0.19564667860E-01  0.12168353952E-01  0.23075890489E-01  0.00000000000E+00 0.  1.
     999901    1    3    3    0    0  0.11224900120E+00  0.74645842103E-01 -0.44126988928E-01  0.89135797027E+00  0.88000000000E+00 0.  1.
        -11    1    4    4    0    0 -0.43271485047E-01 -0.32064387284E-01  0.16666063627E-01  0.56378765044E-01  0.51100000000E-03 0. -1.
         11    1    4    4    0    0 -0.67692348667E-01 -0.23016786958E-01  0.15292571349E-01  0.73117374196E-01  0.51100000000E-03 0.  1.
</event>
<event>
 8    1  0.1088021E+005  0.1043930E+01  0.7957747E-01            NaN
         13   -1    0    0    0    0  0.00000000000E+00  0.00000000000E+00  0.74505805969E-08  0.10566000000E+00  0.10566000000E+00 0.  1.
     999900   -1    0    0    0    0 -0.00000000000E+00 -0.00000000000E+00 -0.74505805969E-08  0.93827000000E+00  0.93827000000E+00 0. -1.
     999902    2    1    2    0    0  0.18336561025E-01  0.10487097420E-01 -0.12377530165E-01  0.10194471093E+01  0.10191530782E+01 0.  0.
     999903    2    3    3    0    0  0.78782470078E-01 -0.86145646330E-01  0.52726614419E-01  0.12971111212E+00  0.20423681523E-01 0.  0.
         14    1    1    2    0    0 -0.18336561025E-01 -0.10487097420E-01  0.12377530165E-01  0.24482890669E-01  0.00000000000E+00 0.  1.
     999901    1    3    3    0    0 -0.60445909052E-01  0.96632743750E-01 -0.65104144583E-01  0.88973599721E+00  0.88000000000E+00 0.  1.
        -11    1    4    4    0    0  0.41737199480E-02 -0.10939247099E-01  0.10269956310E-01  0.15582688757E-01  0.51100000000E-03 0. -1.
         11    1    4    4    0    0  0.74608750130E-01 -0.75206399232E-01  0.42456658109E-01  0.11412842337E+00  0.51100000000E-03 0.  1.
</event>
<event>
 8    1  0.1088021E+005  0.1043930E+01  0.7957747E-01            NaN
         13   -1    0    0    0    0  0.00000000000E+00  0.00000000000E+00  0.74505805969E-08  0.10566000000E+00  0.10566000000E+00 0. -1.
     999900   -1    0    0    0    0 -0.00000000000E+00 -0.00000000000E+00 -0.74505805969E-08  0.93827000000E+00  0.93827000000E+00 0.  1.
     999902    2    1    2    0    0  0.26083244115E-02  0.10707527679E-01  0.23514570038E-01  0.10179609894E+01  0.10176296903E+01 0.  0.
     999903    2    3    3    0    0  0.13468946140E-01 -0.10506312551E+00 -0.65143830411E-01  0.12589534768E+00  0.19653169595E-01 0.  0.
         14    1    1    2    0    0 -0.26083244115E-02 -0.10707527679E-01 -0.23514570038E-01  0.25969010557E-01  0.00000000000E+00 0.  1.
     999901    1    3    3    0    0 -0.10860621729E-01  0.11577065319E+00  0.88658400449E-01  0.89206564176E+00  0.88000000000E+00 0. -1.
        -11    1    4    4    0    0 -0.51250652318E-02 -0.26454366540E-01 -0.16208189580E-01  0.31449425005E-01  0.51100000000E-03 0.  1.
         11    1    4    4    0    0  0.18594011372E-01 -0.78608758968E-01 -0.48935640831E-01  0.94445922675E-01  0.51100000000E-03 0. -1.
</event>
<event>
 8    1  0.1088021E+005  0.1043930E+01  0.7957747E-01            NaN
         13   -1    0    0    0    0  0.00000000000E+00  0.00000000000E+00  0.74505805969E-08  0.10566000000E+00  0.10566000000E+00 0. -1.
     999900   -1    0    0    0    0 -0.00000000000E+00 -0.00000000000E+00 -0.74505805969E-08  0.93827000000E+00  0.93827000000E+00 0. -1.
     999902    2    1    2    0    0  0.20289638795E-02 -0.15947010111E-01  0.16936152453E-01  0.10205792594E+01  0.10203120933E+01 0.  0.
     999903    2    3    3    0    0  0.43054272258E-01 -0.66741275570E-01 -0.10084278691E+00  0.13033490426E+00  0.22579888690E-01 0.  0.
         14    1    1    2    0    0 -0.20289638795E-02  0.15947010111E-01 -0.16936152453E-01  0.23350740584E-01  0.00000000000E+00 0.  1.
     999901    1    3    3    0    0 -0.41025308378E-01  0.50794265460E-01  0.11777893936E+00  0.89024435516E+00  0.88000000000E+00 0.  1.
        -11    1    4    4    0    0  0.25976397294E-01 -0.24226419925E-01 -0.55334152689E-01  0.65755777036E-01  0.51100000000E-03 0.  1.
         11    1    4    4    0    0  0.17077874964E-01 -0.42514855645E-01 -0.45508634216E-01  0.64579127224E-01  0.51100000000E-03 0. -1.
</event>
<event>
 8    1  0.1088021E+005  0.1043930E+01  0.7957747E-01            NaN
         13   -1    0    0    0    0  0.00000000000E+00  0.00000000000E+00  0.74505805969E-08  0.10566000000E+00  0.10566000000E+00 0.  1.
     999900   -1    0    0    0    0 -0.00000000000E+00 -0.00000000000E+00 -0.74505805969E-08  0.93827000000E+00  0.93827000000E+00 0.  1.
     999902    2    1    2    0    0  0.13988113754E-01 -0.10879651516E-01 -0.16551534969E-01  0.10196815474E+01  0.10193931875E+01 0.  0.
     999903    2    3    3    0    0  0.31145910417E-01 -0.11525204930E+00 -0.53875565786E-01  0.13256201167E+00  0.20420767507E-01 0.  0.
         14    1    1    2    0    0 -0.13988113754E-01  0.10879651516E-01  0.16551534969E-01  0.24248452597E-01  0.00000000000E+00 0. -1.
     999901    1    3    3    0    0 -0.17157796663E-01  0.10437239778E+00  0.37324030817E-01  0.88711953573E+00  0.88000000000E+00 0. -1.
        -11    1    4    4    0    0  0.31920557423E-01 -0.84463410992E-01 -0.39060103370E-01  0.98381617078E-01  0.51100000000E-03 0. -1.
         11    1    4    4    0    0 -0.77464700600E-03 -0.30788638307E-01 -0.14815462416E-01  0.34180394591E-01  0.51100000000E-03 0.  1.
</event>
<event>
 8    1  0.1088021E+005  0.1043930E+01  0.7957747E-01            NaN
         13   -1    0    0    0    0  0.00000000000E+00  0.00000000000E+00  0.74505805969E-08  0.10566000000E+00  0.10566000000E+00 0. -1.
     999900   -1    0    0    0    0 -0.00000000000E+00 -0.00000000000E+00 -0.74505805969E-08  0.93827000000E+00  0.93827000000E+00 0. -1.
     999902    2    1    2    0    0 -0.14833207981E-01 -0.19928191171E-03 -0.18539710980E-01  0.10201858501E+01  0.10199094980E+01 0.  0.
     999903    2    3    3    0    0 -0.11528491249E+00  0.32861820551E-01 -0.54312886230E-01  0.13313269412E+00  0.20097620112E-01 0.  0.
         14    1    1    2    0    0  0.14833207981E-01  0.19928191171E-03  0.18539710980E-01  0.23744149922E-01  0.00000000000E+00 0. -1.
     999901    1    3    3    0    0  0.10045170451E+00 -0.33061102463E-01  0.35773175250E-01  0.88705315596E+00  0.88000000000E+00 0.  1.
        -11    1    4    4    0    0 -0.14318158116E-01  0.72696001114E-02 -0.14437368325E-01  0.21599894971E-01  0.51100000000E-03 0. -1.
         11    1    4    4    0    0 -0.10096675437E+00  0.25592220440E-01 -0.39875517905E-01  0.11153279914E+00  0.51100000000E-03 0.  1.
</event>
<event>
 8    1  0.1088021E+005  0.1043930E+01  0.7957747E-01            NaN
         13   -1    0    0    0    0  0.00000000000E+00  0.00000000000E+00  0.74505805969E-08  0.10566000000E+00  0.10566000000E+00 0. -1.
     999900   -1    0    0    0    0 -0.00000000000E+00 -0.00000000000E+00 -0.74505805969E-08  0.93827000000E+00  0.93827000000E+00 0.  1.
     999902    2    1    2    0    0  0.14939343163E-02  0.18783732624E-01  0.15191784136E-01  0.10197256459E+01  0.10194383464E+01 0.  0.
     999903    2    3    3    0    0  0.85413345312E-01  0.89989436399E-01  0.41937940393E-01  0.13246690313E+00  0.19878414401E-01 0.  0.
         14    1    1    2    0    0 -0.14939343163E-02 -0.18783732624E-01 -0.15191784136E-01  0.24204354077E-01  0.00000000000E+00 0.  1.
     999901    1    3    3    0    0 -0.83919410996E-01 -0.71205703775E-01 -0.26746156257E-01  0.88725874280E+00  0.88000000000E+00 0.  1.
        -11    1    4    4    0    0  0.37295965485E-01  0.42060726710E-01  0.88167120657E-02  0.56904211667E-01  0.51100000000E-03 0.  1.
         11    1    4    4    0    0  0.48117379827E-01  0.47928709689E-01  0.33121228327E-01  0.75562691461E-01  0.51100000000E-03 0. -1.
</event>
<event>
 8    1  0.1088021E+005  0.1043930E+01  0.7957747E-01            NaN
         13   -1    0    0    0    0  0.00000000000E+00  0.00000000000E+00  0.74505805969E-08  0.10566000000E+00  0.10566000000E+00 0. -1.
     999900   -1    0    0    0    0 -0.00000000000E+00 -0.00000000000E+00 -0.74505805969E-08  0.93827000000E+00  0.93827000000E+00 0. -1.
     999902    2    1    2    0    0 -0.79551215435E-02  0.21636369490E-01 -0.13316030606E-02  0.10208391011E+01  0.10205779151E+01 0.  0.
     999903    2    3    3    0    0 -0.85004858210E-01  0.68179145128E-01 -0.74244216960E-01  0.13324733622E+00  0.19194455150E-01 0.  0.
         14    1    1    2    0    0  0.79551215435E-02 -0.21636369490E-01  0.13316030606E-02  0.23090898860E-01  0.00000000000E+00 0.  1.
     999901    1    3    3    0    0  0.77049736667E-01 -0.46542775638E-01  0.72912613899E-01  0.88759176492E+00  0.88000000000E+00 0. -1.
        -11    1    4    4    0    0 -0.46602160654E-01  0.49023765653E-01 -0.42833670158E-01  0.80062946465E-01  0.51100000000E-03 0.  1.
         11    1    4    4    0    0 -0.38402697557E-01  0.19155379475E-01 -0.31410546802E-01  0.53184389757E-01  0.51100000000E-03 0. -1.
</event>
<event>
 8    1  0.1088021E+005  0.1043930E+01  0.7957747E-01            NaN
         13   -1    0    0    0    0  0.00000000000E+00  0.00000000000E+00  0.74505805969E-08  0.10566000000E+00  0.10566000000E+00 0.  1.
     999900   -1    0    0    0    0 -0.00000000000E+00 -0.00000000000E+00 -0.74505805969E-08  0.93827000000E+00  0.93827000000E+00 0. -1.
     999902    2    1    2    0    0 -0.46822733093E-02 -0.12635672647E-01  0.19843430254E-01  0.10199436366E+01  0.10196615498E+01 0.  0.
     999903    2    3    3    0    0  0.13489469378E-01  0.11334289725E+00  0.58698443441E-01  0.12993772403E+00  0.20241707473E-01 0.  0.
         14    1    1    2    0    0  0.46822733093E-02  0.12635672647E-01 -0.19843430254E-01  0.23986363435E-01  0.00000000000E+00 0. -1.
     999901    1    3    3    0    0 -0.18171742687E-01 -0.12597856990E+00 -0.38855013187E-01  0.89000591254E+00  0.88000000000E+00 0.  1.
        -11    1    4    4    0    0  0.91979242707E-02  0.92289188502E-01  0.55828508188E-01  0.10825423582E+00  0.51100000000E-03 0. -1.
         11    1    4    4    0    0  0.42915451070E-02  0.21053708748E-01  0.28699352530E-02  0.21683488206E-01  0.51100000000E-03 0.  1.
</event>
<event>
 8    1  0.1088021E+005  0.1043930E+01  0.7957747E-01            NaN
         13   -1    0    0    0    0  0.00000000000E+00  0.00000000000E+00  0.74505805969E-08  0.10566000000E+00  0.10566000000E+00 0.  1.
     999900   -1    0    0    0    0 -0.00000000000E+00 -0.00000000000E+00 -0.74505805969E-08  0.93827000000E+00  0.93827000000E+00 0. -1.
     999902    2    1    2    0    0 -0.19816459747E-01  0.42954013593E-02  0.88693243945E-05  0.10236533477E+01  0.10234525068E+01 0.  0.
     999903    2    3    3    0    0  0.61624215532E-01 -0.14228714042E-01 -0.11446200876E+00  0.13231765989E+00  0.20159648461E-01 0.  0.
         14    1    1    2    0    0  0.19816459747E-01 -0.42954013593E-02 -0.88693243945E-05  0.20276652298E-01  0.00000000000E+00 0.  1.
     999901    1    3    3    0    0 -0.81440675279E-01  0.18524115401E-01  0.11447087808E+00  0.89133568781E+00  0.88000000000E+00 0.  1.
        -11    1    4    4    0    0  0.19372626430E-01 -0.35034503484E-02 -0.56204522983E-01  0.59554868347E-01  0.51100000000E-03 0.  1.
         11    1    4    4    0    0  0.42251589102E-01 -0.10725263694E-01 -0.58257485776E-01  0.72762791541E-01  0.51100000000E-03 0. -1.
</event>
<event>
 8    1  0.1088021E+005  0.1043930E+01  0.7957747E-01            NaN
         13   -1    0    0    0    0  0.00000000000E+00  0.00000000000E+00  0.74505805969E-08  0.10566000000E+00  0.10566000000E+00 0.  1.
     999900   -1    0    0    0    0 -0.00000000000E+00 -0.00000000000E+00 -0.74505805969E-08  0.93827000000E+00  0.93827000000E+00 0.  1.
     999902    2    1    2    0    0 -0.24528392856E-01  0.95863726727E-03 -0.37634686074E-02  0.10190960567E+01  0.10187934276E+01 0.  0.
     999903    2    3    3    0    0 -0.29258033731E-03 -0.47145091909E-01  0.11848680513E+00  0.12901377246E+00  0.19562341377E-01 0.  0.
         14    1    1    2    0    0  0.24528392856E-01 -0.95863726727E-03  0.37634686074E-02  0.24833943253E-01  0.00000000000E+00 0.  1.
     999901    1    3    3    0    0 -0.24235812519E-01  0.48103729176E-01 -0.12225027374E+00  0.89008228429E+00  0.88000000000E+00 0.  1.
        -11    1    4    4    0    0 -0.58400164670E-02 -0.31490008670E-02  0.13777838813E-01  0.15300717700E-01  0.51100000000E-03 0.  1.
         11    1    4    4    0    0  0.55474361297E-02 -0.43996091042E-01  0.10470896632E+00  0.11371305476E+00  0.51100000000E-03 0. -1.
</event>
<event>
 8    1  0.1171269E+005  0.1043930E+01  0.7957747E-01            NaN
         13   -1    0    0    0    0  0.00000000000E+00  0.00000000000E+00  0.74505805969E-08  0.10566000000E+00  0.10566000000E+00 0. -1.
     999900   -1    0    0    0    0 -0.00000000000E+00 -0.00000000000E+00 -0.74505805969E-08  0.93827000000E+00  0.93827000000E+00 0.  1.
     999902    2    1    2    0    0  0.70657081565E-02  0.21344241581E-01 -0.71531498139E-02  0.10203361781E+01  0.10200633548E+01 0.  0.
     999903    2    3    3    0    0  0.10852059210E+00 -0.31105868765E-01 -0.63268364558E-01  0.13118319638E+00  0.21490720713E-01 0.  0.
         14    1    1    2    0    0 -0.70657081565E-02 -0.21344241581E-01  0.71531498139E-02  0.23593821917E-01  0.00000000000E+00 0. -1.
     999901    1    3    3    0    0 -0.10145488394E+00  0.52450110345E-01  0.56115214744E-01  0.88915298171E+00  0.88000000000E+00 0. -1.
        -11    1    4    4    0    0  0.54247207442E-01 -0.14043271421E-01 -0.19262344953E-01  0.59255987390E-01  0.51100000000E-03 0. -1.
         11    1    4    4    0    0  0.54273384657E-01 -0.17062597344E-01 -0.44006019605E-01  0.71927208987E-01  0.51100000000E-03 0.  1.
</event>
<event>
 8    1  0.1088021E+005  0.1043930E+01  0.7957747E-01            NaN
         13   -1    0    0    0    0  0.00000000000E+00  0.00000000000E+00  0.74505805969E-08  0.10566000000E+00  0.10566000000E+00 0. -1.
     999900   -1    0    0    0    0 -0.00000000000E+00 -0.00000000000E+00 -0.74505805969E-08  0.93827000000E+00  0.93827000000E+00 0.  1.
     999902    2    1    2    0    0 -0.23156591496E-01  0.29341247941E-02  0.52412049299E-03  0.10205823766E+01  0.10203152826E+01 0.  0.
     999903    2    3    3    0    0  0.69004902022E-01  0.98650394103E-01  0.43629798918E-01  0.12956416989E+00  0.19741783276E-01 0.  0.
         14    1    1    2    0    0  0.23156591496E-01 -0.29341247941E-02 -0.52412049299E-03  0.23347623440E-01  0.00000000000E+00 0. -1.
     999901    1    3    3    0    0 -0.92161493518E-01 -0.95716269309E-01 -0.43105678425E-01  0.89101820667E+00  0.88000000000E+00 0.  1.
        -11    1    4    4    0    0  0.20047108817E-01  0.33437507382E-01  0.23663066278E-01  0.45608719545E-01  0.51100000000E-03 0.  1.
         11    1    4    4    0    0  0.48957793205E-01  0.65212886721E-01  0.19966732640E-01  0.83955450349E-01  0.51100000000E-03 0. -1.
</event>
<event>
 8    1  0.1088021E+005  0.1043930E+01  0.7957747E-01            NaN
         13   -1    0    0    0    0  0.00000000000E+00  0.00000000000E+00  0.74505805969E-08  0.10566000000E+00  0.10566000000E+00 0.  1.
     999900   -1    0    0    0    0 -0.00000000000E+00 -0.00000000000E+00 -0.74505805969E-08  0.93827000000E+00  0.93827000000E+00 0.  1.
     999902    2    1    2    0    0 -0.12402124580E-01  0.19938587999E-01 -0.25452799268E-02  0.10203113964E+01  0.10200379930E+01 0.  0.
     999903    2    3    3    0    0 -0.11407675835E+00  0.62789856243E-01  0.18235041128E-01  0.13317793177E+00  0.21160622449E-01 0.  0.
         14    1    1    2    0    0  0.12402124580E-01 -0.19938587999E-01  0.25452799268E-02  0.23618603588E-01  0.00000000000E+00 0. -1.
     999901    1    3    3    0    0  0.10167463377E+00 -0.42851268244E-01 -0.20780321055E-01  0.88713346464E+00  0.88000000000E+00 0.  1.
        -11    1    4    4    0    0 -0.66747175306E-01  0.33313296820E-01  0.28953312660E-03  0.74600979262E-01  0.51100000000E-03 0. -1.
         11    1    4    4    0    0 -0.47329583048E-01  0.29476559423E-01  0.17945508001E-01  0.58576952510E-01  0.51100000000E-03 0.  1.
</event>
<event>
 8    1  0.1088021E+005  0.1043930E+01  0.7957747E-01            NaN
         13   -1    0    0    0    0  0.00000000000E+00  0.00000000000E+00  0.74505805969E-08  0.10566000000E+00  0.10566000000E+00 0.  1.
     999900   -1    0    0    0    0 -0.00000000000E+00 -0.00000000000E+00 -0.74505805969E-08  0.93827000000E+00  0.93827000000E+00 0. -1.
     999902    2    1    2    0    0  0.12128405335E-01  0.17615589099E-01  0.92781318155E-02  0.10206171082E+01  0.10203508174E+01 0.  0.
     999903    2    3    3    0    0 -0.71804887025E-01  0.10823000050E+00  0.11654297603E-01  0.13198815564E+00  0.20380769531E-01 0.  0.
         14    1    1    2    0    0 -0.12128405335E-01 -0.17615589099E-01 -0.92781318155E-02  0.23312891825E-01  0.00000000000E+00 0. -1.
     999901    1    3    3    0    0  0.83933292360E-01 -0.90614411404E-01 -0.23761657879E-02  0.88862895254E+00  0.88000000000E+00 0. -1.
        -11    1    4    4    0    0 -0.35880373136E-01  0.71568438125E-01  0.48436409238E-02  0.80207010232E-01  0.51100000000E-03 0.  1.
         11    1    4    4    0    0 -0.35924513889E-01  0.36661562379E-01  0.68106566796E-02  0.51781145407E-01  0.51100000000E-03 0. -1.
</event>
<event>
 8    1  0.1088021E+005  0.1043930E+01  0.7957747E-01            NaN
         13   -1    0    0    0    0  0.00000000000E+00  0.00000000000E+00  0.74505805969E-08  0.10566000000E+00  0.10566000000E+00 0.  1.
     999900   -1    0    0    0    0 -0.00000000000E+00 -0.00000000000E+00 -0.74505805969E-08  0.93827000000E+00  0.93827000000E+00 0. -1.
     999902    2    1    2    0    0 -0.41208226759E-02 -0.58498374979E-02 -0.21984292568E-01  0.10208105083E+01  0.10205486676E+01 0.  0.
     999903    2    3    3    0    0 -0.11600416643E+00  0.54004908332E-01  0.18175613229E-01  0.13080304131E+00  0.20139164460E-01 0.  0.
         14    1    1    2    0    0  0.41208226759E-02  0.58498374979E-02  0.21984292568E-01  0.23119491733E-01  0.00000000000E+00 0.  1.
     999901    1    3    3    0    0  0.11188334376E+00 -0.59854745830E-01 -0.40159905797E-01  0.89000746696E+00  0.88000000000E+00 0.  1.
        -11    1    4    4    0    0 -0.51103152135E-01  0.16112067125E-01  0.45558713180E-03  0.53587307693E-01  0.51100000000E-03 0.  1.
         11    1    4    4    0    0 -0.64901014299E-01  0.37892841207E-01  0.17720026097E-01  0.77215733615E-01  0.51100000000E-03 0. -1.
</event>
<event>
 8    1  0.1088021E+005  0.1043930E+01  0.7957747E-01            NaN
         13   -1    0    0    0    0  0.00000000000E+00  0.00000000000E+00  0.74505805969E-08  0.10566000000E+00  0.10566000000E+00 0. -1.
     999900   -1    0    0    0    0 -0.00000000000E+00 -0.00000000000E+00 -0.74505805969E-08  0.93827000000E+00  0.93827000000E+00 0.  1.
     999902    2    1    2    0    0  0.52411636734E-02 -0.18134551902E-01  0.14453342957E-01  0.10201554150E+01  0.10198783456E+01 0.  0.
     999903    2    3    3    0    0  0.13643784240E-01  0.60766508700E-01 -0.11000763753E+00  0.12786257234E+00  0.19194677993E-01 0.  0.
         14    1    1    2    0    0 -0.52411636734E-02  0.18134551902E-01 -0.14453342957E-01  0.23774585001E-01  0.00000000000E+00 0. -1.
     999901    1    3    3    0    0 -0.84026205670E-02 -0.78901060602E-01  0.12446098048E+00  0.89229284266E+00  0.88000000000E+00 0. -1.
        -11    1    4    4    0    0  0.17594011281E-01  0.37853212054E-01 -0.66169909932E-01  0.78237669937E-01  0.51100000000E-03 0.  1.
         11    1    4    4    0    0 -0.39502270403E-02  0.22913296646E-01 -0.43837727595E-01  0.49624902404E-01  0.51100000000E-03 0. -1.
</event>
<event>
 8    1  0.1088021E+005  0.1043930E+01  0.7957747E-01            NaN
         13   -1    0    0    0    0  0.00000000000E+00  0.00000000000E+00  0.74505805969E-08  0.10566000000E+00  0.10566000000E+00 0. -1.
     999900   -1    0    0    0    0 -0.00000000000E+00 -0.00000000000E+00 -0.74505805969E-08  0.93827000000E+00  0.93827000000E+00 0.  1.
     999902    2    1    2    0    0  0.18839017014E-01 -0.10194347185E-01 -0.10804790660E-01  0.10199388187E+01  0.10196566173E+01 0.  0.
     999903    2    3    3    0    0 -0.82424684611E-01 -0.91263090052E-01  0.34868715163E-01  0.12925787280E+00  0.19209116216E-01 0.  0.
         14    1    1    2    0    0 -0.18839017014E-01  0.10194347185E-01  0.10804790660E-01  0.23991181250E-01  0.00000000000E+00 0. -1.
     999901    1    3    3    0    0  0.10126370162E+00  0.81068742866E-01 -0.45673505823E-01  0.89068094595E+00  0.88000000000E+00 0. -1.
        -11    1    4    4    0    0 -0.81578155999E-01 -0.85644828320E-01  0.35562882346E-01  0.12351118118E+00  0.51100000000E-03 0.  1.
         11    1    4    4    0    0 -0.84652861206E-03 -0.56182617314E-02 -0.69416718264E-03  0.57466916266E-02  0.51100000000E-03 0. -1.
</event>
<event>
 8    1  0.1088021E+005  0.1043930E+01  0.7957747E-01            NaN
         13   -1    0    0    0    0  0.00000000000E+00  0.00000000000E+00  0.74505805969E-08  0.10566000000E+00  0.10566000000E+00 0. -1.
     999900   -1    0    0    0    0 -0.00000000000E+00 -0.00000000000E+00 -0.74505805969E-08  0.93827000000E+00  0.93827000000E+00 0.  1.
     999902    2    1    2    0    0  0.16415331064E-01 -0.12493673228E-01 -0.91632056222E-02  0.10213574658E+01  0.10211080029E+01 0.  0.
     999903    2    3    3    0    0 -0.11384164236E+00  0.45288634703E-01 -0.36478463464E-01  0.12947642126E+00  0.20554449539E-01 0.  0.
         14    1    1    2    0    0 -0.16415331064E-01  0.12493673228E-01  0.91632056222E-02  0.22572534238E-01  0.00000000000E+00 0. -1.
     999901    1    3    3    0    0  0.13025697343E+00 -0.57782307931E-01  0.27315257842E-01  0.89188104450E+00  0.88000000000E+00 0. -1.
        -11    1    4    4    0    0 -0.47661922495E-01  0.17731417077E-01 -0.25700482588E-01  0.56981031350E-01  0.51100000000E-03 0. -1.
         11    1    4    4    0    0 -0.66179719867E-01  0.27557217626E-01 -0.10777980876E-01  0.72495389907E-01  0.51100000000E-03 0.  1.
</event>
<event>
 8    1  0.1088021E+005  0.1043930E+01  0.7957747E-01            NaN
         13   -1    0    0    0    0  0.00000000000E+00  0.00000000000E+00  0.74505805969E-08  0.10566000000E+00  0.10566000000E+00 0. -1.
     999900   -1    0    0    0    0 -0.00000000000E+00 -0.00000000000E+00 -0.74505805969E-08  0.93827000000E+00  0.93827000000E+00 0.  1.
     999902    2    1    2    0    0 -0.73855778604E-02 -0.11151529721E-01  0.15018447730E-02  0.10304704713E+01  0.10303825665E+01 0.  0.
     999903    2    3    3    0    0  0.86495858919E-01 -0.54263211794E-01 -0.92768332269E-01  0.13942658484E+00  0.20193546557E-01 0.  0.
         14    1    1    2    0    0  0.73855778604E-02  0.11151529721E-01 -0.15018447730E-02  0.13459528713E-01  0.00000000000E+00 0. -1.
     999901    1    3    3    0    0 -0.93881436779E-01  0.43111682073E-01  0.94270177042E-01  0.89104388645E+00  0.88000000000E+00 0. -1.
        -11    1    4    4    0    0  0.66106810112E-02  0.20290897110E-03 -0.10777271509E-01  0.12655156169E-01  0.51100000000E-03 0. -1.
         11    1    4    4    0    0  0.79885177907E-01 -0.54466120766E-01 -0.81991060760E-01  0.12677142867E+00  0.51100000000E-03 0.  1.
</event>
<event>
 8    1  0.1088021E+005  0.1043930E+01  0.7957747E-01            NaN
         13   -1    0    0    0    0  0.00000000000E+00  0.00000000000E+00  0.74505805969E-08  0.10566000000E+00  0.10566000000E+00 0.  1.
     999900   -1    0    0    0    0 -0.00000000000E+00 -0.00000000000E+00 -0.74505805969E-08  0.93827000000E+00  0.93827000000E+00 0. -1.
     999902    2    1    2    0    0 -0.15419298851E-01  0.19567603692E-01  0.37430200774E-02  0.10187376184E+01  0.10184260793E+01 0.  0.
     999903    2    3    3    0    0  0.35443909453E-01  0.95986019074E-01  0.78984427328E-01  0.13076908882E+00  0.19809801984E-01 0.  0.
         14    1    1    2    0    0  0.15419298851E-01 -0.19567603692E-01 -0.37430200774E-02  0.25192381599E-01  0.00000000000E+00 0. -1.
     999901    1    3    3    0    0 -0.50863208304E-01 -0.76418415382E-01 -0.75241407250E-01  0.88796852959E+00  0.88000000000E+00 0. -1.
        -11    1    4    4    0    0  0.70985605699E-02  0.84618039838E-02  0.15298428724E-01  0.18875771011E-01  0.51100000000E-03 0. -1.
         11    1    4    4    0    0  0.28345348883E-01  0.87524215090E-01  0.63685998604E-01  0.11189331781E+00  0.51100000000E-03 0.  1.
</event>
<event>
 8    1  0.1088021E+005  0.1043930E+01  0.7957747E-01            NaN
         13   -1    0    0    0    0  0.00000000000E+00  0.00000000000E+00  0.74505805969E-08  0.10566000000E+00  0.10566000000E+00 0.  1.
     999900   -1    0    0    0    0 -0.00000000000E+00 -0.00000000000E+00 -0.74505805969E-08  0.93827000000E+00  0.93827000000E+00 0. -1.
     999902    2    1    2    0    0 -0.10990305220E-02  0.12577869373E-01  0.19602623656E-01  0.10206131923E+01  0.10203468111E+01 0.  0.
     999903    2    3    3    0    0 -0.14493669070E-01 -0.53762099384E-01 -0.11387187337E+00  0.12797897320E+00  0.17646083498E-01 0.  0.
         14    1    1    2    0    0  0.10990305220E-02 -0.12577869373E-01 -0.19602623656E-01  0.23316807677E-01  0.00000000000E+00 0. -1.
     999901    1    3    3    0    0  0.13394638548E-01  0.66339968757E-01  0.13347449703E+00  0.89263421912E+00  0.88000000000E+00 0.  1.
        -11    1    4    4    0    0  0.15352590906E-03 -0.17821011897E-01 -0.22520890171E-01  0.28723921221E-01  0.51100000000E-03 0.  1.
         11    1    4    4    0    0 -0.14647194979E-01 -0.35941087487E-01 -0.91350983199E-01  0.99255051977E-01  0.51100000000E-03 0. -1.
</event>
<event>
 8    1  0.1088021E+005  0.1043930E+01  0.7957747E-01            NaN
         13   -1    0    0    0    0  0.00000000000E+00  0.00000000000E+00  0.74505805969E-08  0.10566000000E+00  0.10566000000E+00 0. -1.
     999900   -1    0    0    0    0 -0.00000000000E+00 -0.00000000000E+00 -0.74505805969E-08  0.93827000000E+00  0.93827000000E+00 0.  1.
     999902    2    1    2    0    0 -0.77824628784E-03  0.21001159192E-01 -0.14000448117E-01  0.10186779327E+01  0.10183648971E+01 0.  0.
     999903    2    3    3    0    0 -0.31463625798E-01  0.35092346948E-01  0.11770366657E+00  0.12823639734E+00  0.19209058234E-01 0.  0.
         14    1    1    2    0    0  0.77824628784E-03 -0.21001159192E-01  0.14000448117E-01  0.25252067285E-01  0.00000000000E+00 0. -1.
     999901    1    3    3    0    0  0.30685379511E-01 -0.14091187756E-01 -0.13170411468E+00  0.89044153537E+00  0.88000000000E+00 0.  1.
        -11    1    4    4    0    0 -0.33389450082E-01  0.28211649089E-01  0.99927192658E-01  0.10907088280E+00  0.51100000000E-03 0. -1.
         11    1    4    4    0    0  0.19258242837E-02  0.68806978589E-02  0.17776473908E-01  0.19165514545E-01  0.51100000000E-03 0.  1.
</event>
<event>
 8    1  0.1088021E+005  0.1043930E+01  0.7957747E-01            NaN
         13   -1    0    0    0    0  0.00000000000E+00  0.00000000000E+00  0.74505805969E-08  0.10566000000E+00  0.10566000000E+00 0. -1.
     999900   -1    0    0    0    0 -0.00000000000E+00 -0.00000000000E+00 -0.74505805969E-08  0.93827000000E+00  0.93827000000E+00 0.  1.
     999902    2    1    2    0    0  0.14908344382E-01  0.17726397192E-01  0.60705334676E-02  0.10199855796E+01  0.10197044902E+01 0.  0.
     999903    2    3    3    0    0 -0.91828762362E-01  0.80285818047E-01  0.42094266796E-01  0.13060141042E+00  0.20161025059E-01 0.  0.
         14    1    1    2    0    0 -0.14908344382E-01 -0.17726397192E-01 -0.60705334676E-02  0.23944420357E-01  0.00000000000E+00 0.  1.
     999901    1    3    3    0    0  0.10673710674E+00 -0.62559420855E-01 -0.36023733328E-01  0.88938416922E+00  0.88000000000E+00 0.  1.
        -11    1    4    4    0    0 -0.67544830631E-01  0.54958930368E-01  0.38869679142E-01  0.95361948647E-01  0.51100000000E-03 0.  1.
         11    1    4    4    0    0 -0.24283931731E-01  0.25326887680E-01  0.32245876531E-02  0.35239461778E-01  0.51100000000E-03 0. -1.
</event>
<event>
 8    1  0.1088021E+005  0.1043930E+01  0.7957747E-01            NaN
         13   -1    0    0    0    0  0.00000000000E+00  0.00000000000E+00  0.74505805969E-08  0.10566000000E+00  0.10566000000E+00 0. -1.
     999900   -1    0    0    0    0 -0.00000000000E+00 -0.00000000000E+00 -0.74505805969E-08  0.93827000000E+00  0.93827000000E+00 0.  1.
     999902    2    1    2    0    0 -0.26929940574E-01 -0.63916887577E-02 -0.42324167272E-02  0.10159302011E+01  0.10155442801E+01 0.  0.
     999903    2    3    3    0    0  0.10566638785E+00 -0.83271671353E-02 -0.61417786773E-01  0.12415909882E+00  0.20214105333E-01 0.  0.
         14    1    1    2    0    0  0.26929940574E-01  0.63916887577E-02  0.42324167272E-02  0.27999798854E-01  0.00000000000E+00 0. -1.
     999901    1    3    3    0    0 -0.13259632843E+00  0.19354783776E-02  0.57185370045E-01  0.89177110232E+00  0.88000000000E+00 0. -1.
        -11    1    4    4    0    0  0.99865103653E-01 -0.60496336204E-02 -0.51738492977E-01  0.11263556175E+00  0.51100000000E-03 0. -1.
         11    1    4    4    0    0  0.58012841998E-02 -0.22775335148E-02 -0.96792937960E-02  0.11523537073E-01  0.51100000000E-03 0.  1.
</event>
<event>
 8    1  0.1088021E+005  0.1043930E+01  0.7957747E-01            NaN
         13   -1    0    0    0    0  0.00000000000E+00  0.00000000000E+00  0.74505805969E-08  0.10566000000E+00  0.10566000000E+00 0. -1.
     999900   -1    0    0    0    0 -0.00000000000E+00 -0.00000000000E+00 -0.74505805969E-08  0.93827000000E+00  0.93827000000E+00 0.  1.
     999902    2    1    2    0    0 -0.14219328202E-01 -0.17179873081E-01  0.13104864719E-01  0.10180635195E+01  0.10177348648E+01 0.  0.
     999903    2    3    3    0    0  0.12081660401E+00 -0.31468586512E-01 -0.14640293510E-01  0.12721635859E+00  0.19563740830E-01 0.  0.
         14    1    1    2    0    0  0.14219328202E-01  0.17179873081E-01 -0.13104864719E-01  0.25866480489E-01  0.00000000000E+00 0. -1.
     999901    1    3    3    0    0 -0.13503593222E+00  0.14288713431E-01  0.27745158229E-01  0.89084716092E+00  0.88000000000E+00 0. -1.
        -11    1    4    4    0    0  0.40454883209E-01 -0.45686885961E-02 -0.11930129721E-01  0.42427109342E-01  0.51100000000E-03 0. -1.
         11    1    4    4    0    0  0.80361720806E-01 -0.26899897916E-01 -0.27101637891E-02  0.84789249245E-01  0.51100000000E-03 0.  1.
</event>
<event>
 8    1  0.1088021E+005  0.1043930E+01  0.7957747E-01            NaN
         13   -1    0    0    0    0  0.00000000000E+00  0.00000000000E+00  0.74505805969E-08  0.10566000000E+00  0.10566000000E+00 0. -1.
     999900   -1    0    0    0    0 -0.00000000000E+00 -0.00000000000E+00 -0.74505805969E-08  0.93827000000E+00  0.93827000000E+00 0. -1.
     999902    2    1    2    0    0  0.22966337765E-02  0.43055303860E-02  0.22772857232E-01  0.10206401922E+01  0.10203744346E+01 0.  0.
     999903    2    3    3    0    0  0.18135427967E-01  0.10597665053E+00 -0.70573796845E-01  0.12974093762E+00  0.17091105494E-01 0.  0.
         14    1    1    2    0    0 -0.22966337765E-02 -0.43055303860E-02 -0.22772857232E-01  0.23289807752E-01  0.00000000000E+00 0.  1.
     999901    1    3    3    0    0 -0.15838794190E-01 -0.10167112015E+00  0.93346654077E-01  0.89089925463E+00  0.88000000000E+00 0.  1.
        -11    1    4    4    0    0  0.19986092242E-01  0.73700085220E-01 -0.46223219678E-01  0.89263618585E-01  0.51100000000E-03 0. -1.
         11    1    4    4    0    0 -0.18506642751E-02  0.32276565314E-01 -0.24350577167E-01  0.40477319033E-01  0.51100000000E-03 0.  1.
</event>
<event>
 8    1  0.1088021E+005  0.1043930E+01  0.7957747E-01            NaN
         13   -1    0    0    0    0  0.00000000000E+00  0.00000000000E+00  0.74505805969E-08  0.10566000000E+00  0.10566000000E+00 0.  1.
     999900   -1    0    0    0    0 -0.00000000000E+00 -0.00000000000E+00 -0.74505805969E-08  0.93827000000E+00  0.93827000000E+00 0.  1.
     999902    2    1    2    0    0  0.26638174708E-02  0.55345281648E-02 -0.23210415619E-01  0.10199206202E+01  0.10196379854E+01 0.  0.
     999903    2    3    3    0    0 -0.29441966826E-02  0.61304488695E-01  0.11050386982E+00  0.12805670207E+00  0.20506220304E-01 0.  0.
         14    1    1    2    0    0 -0.26638174708E-02 -0.55345281648E-02  0.23210415619E-01  0.24009379807E-01  0.00000000000E+00 0.  1.
     999901    1    3    3    0    0  0.56080141534E-02 -0.55769960531E-01 -0.13371428544E+00  0.89186391812E+00  0.88000000000E+00 0.  1.
        -11    1    4    4    0    0  0.21032418338E-03  0.20567872269E-01  0.19714458916E-01  0.28495659621E-01  0.51100000000E-03 0. -1.
         11    1    4    4    0    0 -0.31545208660E-02  0.40736616427E-01  0.90789410905E-01  0.99561042448E-01  0.51100000000E-03 0.  1.
</event>
<event>
 8    1  0.1088021E+005  0.1043930E+01  0.7957747E-01            NaN
         13   -1    0    0    0    0  0.00000000000E+00  0.00000000000E+00  0.74505805969E-08  0.10566000000E+00  0.10566000000E+00 0. -1.
     999900   -1    0    0    0    0 -0.00000000000E+00 -0.00000000000E+00 -0.74505805969E-08  0.93827000000E+00  0.93827000000E+00 0.  1.
     999902    2    1    2    0    0 -0.81936666054E-02  0.27881767525E-02 -0.21865115227E-01  0.10204141890E+01  0.10201431879E+01 0.  0.
     999903    2    3    3    0    0 -0.99441293184E-01 -0.62471213555E-01 -0.58189393053E-01  0.13254912577E+00  0.19800049653E-01 0.  0.
         14    1    1    2    0    0  0.81936666054E-02 -0.27881767525E-02  0.21865115227E-01  0.23515810977E-01  0.00000000000E+00 0. -1.
     999901    1    3    3    0    0  0.91247626579E-01  0.65259390307E-01  0.36324277827E-01  0.88786506325E+00  0.88000000000E+00 0. -1.
        -11    1    4    4    0    0 -0.92984251037E-02 -0.98199185724E-02 -0.13094994863E-01  0.18831662743E-01  0.51100000000E-03 0.  1.
         11    1    4    4    0    0 -0.90142868080E-01 -0.52651294982E-01 -0.45094398190E-01  0.11371746303E+00  0.51100000000E-03 0. -1.
</event>
<event>
 8    1  0.1088021E+005  0.1043930E+01  0.7957747E-01            NaN
         13   -1    0    0    0    0  0.00000000000E+00  0.00000000000E+00  0.74505805969E-08  0.10566000000E+00  0.10566000000E+00 0.  1.
     999900   -1    0    0    0    0 -0.00000000000E+00 -0.00000000000E+00 -0.74505805969E-08  0.93827000000E+00  0.93827000000E+00 0.  1.
     999902    2    1    2    0    0 -0.57016949955E-02  0.67602223030E-02 -0.18802868187E-01  0.10231512180E+01  0.10229402021E+01 0.  0.
     999903    2    3    3    0    0  0.12734569015E+00  0.17528898758E-01 -0.27697448260E-01  0.13304072782E+00  0.20211371252E-01 0.  0.
         14    1    1    2    0    0  0.57016949955E-02 -0.67602223030E-02  0.18802868187E-01  0.20778782049E-01  0.00000000000E+00 0.  1.
     999901    1    3    3    0    0 -0.13304738514E+00 -0.10768676455E-01  0.88945800727E-02  0.89011049013E+00  0.88000000000E+00 0. -1.
        -11    1    4    4    0    0  0.11628809604E+00  0.10460331349E-01 -0.27264750244E-01  0.11989982293E+00  0.51100000000E-03 0.  1.
         11    1    4    4    0    0  0.11057594108E-01  0.70685674097E-02 -0.43269801593E-03  0.13140904887E-01  0.51100000000E-03 0. -1.
</event>
<event>
 8    1  0.1088021E+005  0.1043930E+01  0.7957747E-01            NaN
         13   -1    0    0    0    0  0.00000000000E+00  0.00000000000E+00  0.74505805969E-08  0.10566000000E+00  0.10566000000E+00 0. -1.
     999900   -1    0    0    0    0 -0.00000000000E+00 -0.00000000000E+00 -0.74505805969E-08  0.93827000000E+00  0.93827000000E+00 0.  1.
     999902    2    1    2    0    0  0.80202736697E-02 -0.19924327333E-01  0.80254277487E-02  0.10210016093E+01  0.10207441281E+01 0.  0.
     999903    2    3    3    0    0  0.11457549298E+00  0.22232221699E-01  0.58422841892E-01  0.13214217793E+00  0.20652153904E-01 0.  0.
         14    1    1    2    0    0 -0.80202736697E-02  0.19924327333E-01 -0.80254277487E-02  0.22928390697E-01  0.00000000000E+00 0.  1.
     999901    1    3    3    0    0 -0.10655521931E+00 -0.42156549032E-01 -0.50397414143E-01  0.88885943137E+00  0.88000000000E+00 0.  1.
        -11    1    4    4    0    0  0.62343518669E-01  0.16121416745E-01  0.21524331597E-01  0.67898250122E-01  0.51100000000E-03 0. -1.
         11    1    4    4    0    0  0.52231974307E-01  0.61108049533E-02  0.36898510295E-01  0.64243927808E-01  0.51100000000E-03 0.  1.
</event>
<event>
 8    1  0.1088021E+005  0.1043930E+01  0.7957747E-01            NaN
         13   -1    0    0    0    0  0.00000000000E+00  0.00000000000E+00  0.74505805969E-08  0.10566000000E+00  0.10566000000E+00 0. -1.
     999900   -1    0    0    0    0 -0.00000000000E+00 -0.00000000000E+00 -0.74505805969E-08  0.93827000000E+00  0.93827000000E+00 0. -1.
     999902    2    1    2    0    0 -0.10378798529E-01  0.13962120290E-01  0.15940036910E-01  0.10203345547E+01  0.10200616935E+01 0.  0.
     999903    2    3    3    0    0  0.64643102348E-01  0.68902483081E-01  0.90976002880E-01  0.13225959995E+00  0.17020159319E-01 0.  0.
         14    1    1    2    0    0  0.10378798529E-01 -0.13962120290E-01 -0.15940036910E-01  0.23595445294E-01  0.00000000000E+00 0.  1.
     999901    1    3    3    0    0 -0.75021900877E-01 -0.54940362791E-01 -0.75035965969E-01  0.88807495476E+00  0.88000000000E+00 0.  1.
        -11    1    4    4    0    0  0.28405869882E-01  0.41708323318E-01  0.43402473989E-01  0.66562102935E-01  0.51100000000E-03 0.  1.
         11    1    4    4    0    0  0.36237232466E-01  0.27194159763E-01  0.47573528890E-01  0.65697497016E-01  0.51100000000E-03 0. -1.
</event>
<event>
 8    1  0.1088021E+005  0.1043930E+01  0.7957747E-01            NaN
         13   -1    0    0    0    0  0.00000000000E+00  0.00000000000E+00  0.74505805969E-08  0.10566000000E+00  0.10566000000E+00 0. -1.
     999900   -1    0    0    0    0 -0.00000000000E+00 -0.00000000000E+00 -0.74505805969E-08  0.93827000000E+00  0.93827000000E+00 0.  1.
     999902    2    1    2    0    0  0.80245016575E-03  0.20851069810E-01 -0.10545740870E-01  0.10205500152E+01  0.10202821717E+01 0.  0.
     999903    2    3    3    0    0  0.63656473790E-01  0.88806787919E-01 -0.73906963027E-01  0.13342924982E+00  0.20058247364E-01 0.  0.
         14    1    1    2    0    0 -0.80245016575E-03 -0.20851069810E-01  0.10545740870E-01  0.23379984794E-01  0.00000000000E+00 0. -1.
     999901    1    3    3    0    0 -0.62854023624E-01 -0.67955718109E-01  0.63361222157E-01  0.88712076539E+00  0.88000000000E+00 0. -1.
        -11    1    4    4    0    0  0.10044241630E-01  0.28987826394E-01 -0.22688252809E-01  0.38160173028E-01  0.51100000000E-03 0. -1.
         11    1    4    4    0    0  0.53612232160E-01  0.59818961525E-01 -0.51218710217E-01  0.95269076790E-01  0.51100000000E-03 0.  1.
</event>
<event>
 8    1  0.1088021E+005  0.1043930E+01  0.7957747E-01            NaN
         13   -1    0    0    0    0  0.00000000000E+00  0.00000000000E+00  0.74505805969E-08  0.10566000000E+00  0.10566000000E+00 0. -1.
     999900   -1    0    0    0    0 -0.00000000000E+00 -0.00000000000E+00 -0.74505805969E-08  0.93827000000E+00  0.93827000000E+00 0.  1.
     999902    2    1    2    0    0  0.62817095835E-02 -0.79708708456E-02  0.22293243767E-01  0.10194354419E+01  0.10191411271E+01 0.  0.
     999903    2    3    3    0    0 -0.11219967432E+00  0.58979651788E-01 -0.70925499668E-02  0.12849002515E+00  0.19799395350E-01 0.  0.
         14    1    1    2    0    0 -0.62817095835E-02  0.79708708456E-02 -0.22293243767E-01  0.24494558069E-01  0.00000000000E+00 0.  1.
     999901    1    3    3    0    0  0.11848138390E+00 -0.66950522633E-01  0.29385793734E-01  0.89094541678E+00  0.88000000000E+00 0.  1.
        -11    1    4    4    0    0 -0.59635915839E-01  0.35138436611E-01  0.54107693384E-02  0.69431187022E-01  0.51100000000E-03 0. -1.
         11    1    4    4    0    0 -0.52563758477E-01  0.23841215177E-01 -0.12503319305E-01  0.59058838128E-01  0.51100000000E-03 0.  1.
</event>
<event>
 8    1  0.1088021E+005  0.1043930E+01  0.7957747E-01            NaN
         13   -1    0    0    0    0  0.00000000000E+00  0.00000000000E+00  0.74505805969E-08  0.10566000000E+00  0.10566000000E+00 0. -1.
     999900   -1    0    0    0    0 -0.00000000000E+00 -0.00000000000E+00 -0.74505805969E-08  0.93827000000E+00  0.93827000000E+00 0.  1.
     999902    2    1    2    0    0 -0.12812342878E-01  0.16415682992E-01 -0.11493969910E-01  0.10201446658E+01  0.10198673429E+01 0.  0.
     999903    2    3    3    0    0  0.70431651493E-01 -0.25897284841E-01  0.10171646306E+00  0.12799190312E+00  0.20109736793E-01 0.  0.
         14    1    1    2    0    0  0.12812342878E-01 -0.16415682992E-01  0.11493969910E-01  0.23785334188E-01  0.00000000000E+00 0. -1.
     999901    1    3    3    0    0 -0.83243994371E-01  0.42312967833E-01 -0.11321043297E+00  0.89215276269E+00  0.88000000000E+00 0.  1.
        -11    1    4    4    0    0  0.13555267406E-01 -0.32187494025E-02  0.33715997295E-01  0.36484725801E-01  0.51100000000E-03 0.  1.
         11    1    4    4    0    0  0.56876384087E-01 -0.22678535439E-01  0.68000465760E-01  0.91507177320E-01  0.51100000000E-03 0. -1.
</event>
<event>
 8    1  0.1088021E+005  0.1043930E+01  0.7957747E-01            NaN
         13   -1    0    0    0    0  0.00000000000E+00  0.00000000000E+00  0.74505805969E-08  0.10566000000E+00  0.10566000000E+00 0. -1.
     999900   -1    0    0    0    0 -0.00000000000E+00 -0.00000000000E+00 -0.74505805969E-08  0.93827000000E+00  0.93827000000E+00 0. -1.
     999902    2    1    2    0    0 -0.20426743736E-01  0.15308512343E-01  0.17693637568E-01  0.10128709076E+01  0.10123945912E+01 0.  0.
     999903    2    3    3    0    0 -0.12296481325E+00 -0.60637319473E-02 -0.17153213005E-01  0.12597455993E+00  0.20450987532E-01 0.  0.
         14    1    1    2    0    0  0.20426743736E-01 -0.15308512343E-01 -0.17693637568E-01  0.31059092392E-01  0.00000000000E+00 0.  1.
     999901    1    3    3    0    0  0.10253806951E+00  0.21372244290E-01  0.34846850573E-01  0.88689634768E+00  0.88000000000E+00 0. -1.
        -11    1    4    4    0    0 -0.95124051873E-01  0.36080798752E-02 -0.15532579430E-01  0.96452711885E-01  0.51100000000E-03 0. -1.
         11    1    4    4    0    0 -0.27840761377E-01 -0.96718118224E-02 -0.16206335750E-02  0.29521848048E-01  0.51100000000E-03 0.  1.
</event>
<event>
 8    1  0.1088021E+005  0.1043930E+01  0.7957747E-01            NaN
         13   -1    0    0    0    0  0.00000000000E+00  0.00000000000E+00  0.74505805969E-08  0.10566000000E+00  0.10566000000E+00 0.  1.
     999900   -1    0    0    0    0 -0.00000000000E+00 -0.00000000000E+00 -0.74505805969E-08  0.93827000000E+00  0.93827000000E+00 0.  1.
     999902    2    1    2    0    0 -0.12580122072E-01  0.12459460036E-01  0.15785845729E-01  0.10202089009E+01  0.10199330914E+01 0.  0.
     999903    2    3    3    0    0 -0.12900762046E+00  0.11532049903E-01  0.19501320146E-01  0.13253214263E+00  0.20211705337E-01 0.  0.
         14    1    1    2    0    0  0.12580122072E-01 -0.12459460036E-01 -0.15785845729E-01  0.23721099071E-01  0.00000000000E+00 0. -1.
     999901    1    3    3    0    0  0.11642749838E+00  0.92741013370E-03 -0.37154744169E-02  0.88767675830E+00  0.88000000000E+00 0. -1.
        -11    1    4    4    0    0 -0.46135983848E-01 -0.55437409528E-02  0.63748052057E-02  0.46905877370E-01  0.51100000000E-03 0.  1.
         11    1    4    4    0    0 -0.82871636608E-01  0.17075790856E-01  0.13126514940E-01  0.85626265263E-01  0.51100000000E-03 0. -1.
</event>
<event>
 8    1  0.1088021E+005  0.1043930E+01  0.7957747E-01            NaN
         13   -1    0    0    0    0  0.00000000000E+00  0.00000000000E+00  0.74505805969E-08  0.10566000000E+00  0.10566000000E+00 0.  1.
     999900   -1    0    0    0    0 -0.00000000000E+00 -0.00000000000E+00 -0.74505805969E-08  0.93827000000E+00  0.93827000000E+00 0.  1.
     999902    2    1    2    0    0  0.15772913345E-01 -0.33582041714E-02 -0.16758201690E-01  0.10206727505E+01  0.10204077440E+01 0.  0.
     999903    2    3    3    0    0  0.79301674851E-02 -0.12177396791E+00  0.42915351333E-01  0.13070379896E+00  0.18707454822E-01 0.  0.
         14    1    1    2    0    0 -0.15772913345E-01  0.33582041714E-02  0.16758201690E-01  0.23257249505E-01  0.00000000000E+00 0.  1.
     999901    1    3    3    0    0  0.78427458594E-02  0.11841576374E+00 -0.59673553023E-01  0.88996895153E+00  0.88000000000E+00 0. -1.
        -11    1    4    4    0    0  0.11211460897E-01 -0.71362611818E-01  0.32038365067E-01  0.79025547629E-01  0.51100000000E-03 0. -1.
         11    1    4    4    0    0 -0.32812934117E-02 -0.50411356092E-01  0.10876986266E-01  0.51678251332E-01  0.51100000000E-03 0.  1.
</event>
<event>
 8    1  0.1088021E+005  0.1043930E+01  0.7957747E-01            NaN
         13   -1    0    0    0    0  0.00000000000E+00  0.00000000000E+00  0.74505805969E-08  0.10566000000E+00  0.10566000000E+00 0.  1.
     999900   -1    0    0    0    0 -0.00000000000E+00 -0.00000000000E+00 -0.74505805969E-08  0.93827000000E+00  0.93827000000E+00 0. -1.
     999902    2    1    2    0    0 -0.13471215523E-01 -0.22751243655E-01 -0.19744927921E-02  0.10174160158E+01  0.10170704783E+01 0.  0.
     999903    2    3    3    0    0 -0.23774604349E-02 -0.43708992541E-01  0.11947469776E+00  0.12875848643E+00  0.19708274327E-01 0.  0.
         14    1    1    2    0    0  0.13471215523E-01  0.22751243655E-01  0.19744927921E-02  0.26513984184E-01  0.00000000000E+00 0. -1.
     999901    1    3    3    0    0 -0.11093755088E-01  0.20957748886E-01 -0.12144919055E+00  0.88865752938E+00  0.88000000000E+00 0. -1.
        -11    1    4    4    0    0 -0.38619001710E-02 -0.31773369694E-02  0.31304945406E-01  0.31706000552E-01  0.51100000000E-03 0. -1.
         11    1    4    4    0    0  0.14844397361E-02 -0.40531655572E-01  0.88169752354E-01  0.97052485882E-01  0.51100000000E-03 0.  1.
</event>
<event>
 8    1  0.1088021E+005  0.1043930E+01  0.7957747E-01            NaN
         13   -1    0    0    0    0  0.00000000000E+00  0.00000000000E+00  0.74505805969E-08  0.10566000000E+00  0.10566000000E+00 0. -1.
     999900   -1    0    0    0    0 -0.00000000000E+00 -0.00000000000E+00 -0.74505805969E-08  0.93827000000E+00  0.93827000000E+00 0. -1.
     999902    2    1    2    0    0 -0.12874178720E-01  0.13618720781E-01  0.11571378167E-01  0.10219047684E+01  0.10216673847E+01 0.  0.
     999903    2    3    3    0    0 -0.13206168098E+00  0.11782979214E-02 -0.43424380804E-02  0.13364035150E+00  0.19980260580E-01 0.  0.
         14    1    1    2    0    0  0.12874178720E-01 -0.13618720781E-01 -0.11571378167E-01  0.22025231579E-01  0.00000000000E+00 0.  1.
     999901    1    3    3    0    0  0.11918750226E+00  0.12440422860E-01  0.15913816247E-01  0.88826441692E+00  0.88000000000E+00 0. -1.
        -11    1    4    4    0    0 -0.83194681353E-01 -0.68349928021E-02  0.32481132821E-02  0.83539712071E-01  0.51100000000E-03 0. -1.
         11    1    4    4    0    0 -0.48866999624E-01  0.80132907235E-02 -0.75905513625E-02  0.50100639432E-01  0.51100000000E-03 0.  1.
</event>
<event>
 8    1  0.1088021E+005  0.1043930E+01  0.7957747E-01            NaN
         13   -1    0    0    0    0  0.00000000000E+00  0.00000000000E+00  0.74505805969E-08  0.10566000000E+00  0.10566000000E+00 0. -1.
     999900   -1    0    0    0    0 -0.00000000000E+00 -0.00000000000E+00 -0.74505805969E-08  0.93827000000E+00  0.93827000000E+00 0.  1.
     999902    2    1    2    0    0  0.21970643229E-01 -0.41440899238E-03 -0.82564581148E-02  0.10204555458E+01  0.10201855081E+01 0.  0.
     999903    2    3    3    0    0 -0.11202352013E-01 -0.12829812905E+00 -0.10887129704E-01  0.13058948067E+00  0.18686365563E-01 0.  0.
         14    1    1    2    0    0 -0.21970643229E-01  0.41440899238E-03  0.82564581148E-02  0.23474454186E-01  0.00000000000E+00 0. -1.
     999901    1    3    3    0    0  0.33172995242E-01  0.12788372006E+00  0.26306715888E-02  0.88986606515E+00  0.88000000000E+00 0.  1.
        -11    1    4    4    0    0  0.80931928513E-03 -0.24597061953E-01  0.46287534361E-02  0.25047094318E-01  0.51100000000E-03 0.  1.
         11    1    4    4    0    0 -0.12011671298E-01 -0.10370106710E+00 -0.15515883140E-01  0.10554238635E+00  0.51100000000E-03 0. -1.
</event>
<event>
 8    1  0.1088021E+005  0.1043930E+01  0.7957747E-01            NaN
         13   -1    0    0    0    0  0.00000000000E+00  0.00000000000E+00  0.74505805969E-08  0.10566000000E+00  0.10566000000E+00 0.  1.
     999900   -1    0    0    0    0 -0.00000000000E+00 -0.00000000000E+00 -0.74505805969E-08  0.93827000000E+00  0.93827000000E+00 0. -1.
     999902    2    1    2    0    0 -0.15524131942E-01  0.29859059328E-02  0.18241827698E-01  0.10197912638E+01  0.10195055386E+01 0.  0.
     999903    2    3    3    0    0 -0.11937332338E+00  0.43781338479E-01 -0.27275499016E-01  0.13157915575E+00  0.20058051951E-01 0.  0.
         14    1    1    2    0    0  0.15524131942E-01 -0.29859059328E-02 -0.18241827698E-01  0.24138736184E-01  0.00000000000E+00 0. -1.
     999901    1    3    3    0    0  0.10384919144E+00 -0.40795432546E-01  0.45517326714E-01  0.88821210806E+00  0.88000000000E+00 0.  1.
        -11    1    4    4    0    0 -0.51959805382E-01  0.11197447071E-01 -0.18049438857E-01  0.56135973852E-01  0.51100000000E-03 0.  1.
         11    1    4    4    0    0 -0.67413517998E-01  0.32583891408E-01 -0.92260601580E-02  0.75443181900E-01  0.51100000000E-03 0. -1.
</event>
<event>
 8    1  0.1088021E+005  0.1043930E+01  0.7957747E-01            NaN
         13   -1    0    0    0    0  0.00000000000E+00  0.00000000000E+00  0.74505805969E-08  0.10566000000E+00  0.10566000000E+00 0. -1.
     999900   -1    0    0    0    0 -0.00000000000E+00 -0.00000000000E+00 -0.74505805969E-08  0.93827000000E+00  0.93827000000E+00 0. -1.
     999902    2    1    2    0    0  0.84057583937E-02 -0.79443127643E-02  0.20634963584E-01  0.10202747553E+01  0.10200004930E+01 0.  0.
     999903    2    3    3    0    0 -0.56378594249E-01 -0.19248831723E-01  0.11675188708E+00  0.13260180456E+00  0.20079143999E-01 0.  0.
         14    1    1    2    0    0 -0.84057583937E-02  0.79443127643E-02 -0.20634963584E-01  0.23655244695E-01  0.00000000000E+00 0.  1.
     999901    1    3    3    0    0  0.64784352642E-01  0.11304518959E-01 -0.96116923500E-01  0.88767295074E+00  0.88000000000E+00 0. -1.
        -11    1    4    4    0    0 -0.32476742092E-01 -0.28086978047E-02  0.48504778368E-01  0.58443153627E-01  0.51100000000E-03 0. -1.
         11    1    4    4    0    0 -0.23901852157E-01 -0.16440133919E-01  0.68247108715E-01  0.74158650937E-01  0.51100000000E-03 0.  1.
</event>
<event>
 8    1  0.1088021E+005  0.1043930E+01  0.7957747E-01            NaN
         13   -1    0    0    0    0  0.00000000000E+00  0.00000000000E+00  0.74505805969E-08  0.10566000000E+00  0.10566000000E+00 0.  1.
     999900   -1    0    0    0    0 -0.00000000000E+00 -0.00000000000E+00 -0.74505805969E-08  0.93827000000E+00  0.93827000000E+00 0. -1.
     999902    2    1    2    0    0  0.22089791687E-01  0.61494682630E-02  0.56271926945E-02  0.10203198294E+01  0.10200466235E+01 0.  0.
     999903    2    3    3    0    0  0.95434399639E-01 -0.85066653955E-01  0.27677344381E-01  0.13229616890E+00  0.19803551826E-01 0.  0.
         14    1    1    2    0    0 -0.22089791687E-01 -0.61494682630E-02 -0.56271926945E-02  0.23610170569E-01  0.00000000000E+00 0. -1.
     999901    1    3    3    0    0 -0.73344607952E-01  0.91216122218E-01 -0.22050151687E-01  0.88802366053E+00  0.88000000000E+00 0. -1.
        -11    1    4    4    0    0  0.14173990645E-02  0.10738686550E-02  0.25765602362E-03  0.18680796618E-02  0.51100000000E-03 0. -1.
         11    1    4    4    0    0  0.94017000574E-01 -0.86140522610E-01  0.27419688358E-01  0.13042808924E+00  0.51100000000E-03 0.  1.
</event>
<event>
 8    1  0.1088021E+005  0.1043930E+01  0.7957747E-01            NaN
         13   -1    0    0    0    0  0.00000000000E+00  0.00000000000E+00  0.74505805969E-08  0.10566000000E+00  0.10566000000E+00 0. -1.
     999900   -1    0    0    0    0 -0.00000000000E+00 -0.00000000000E+00 -0.74505805969E-08  0.93827000000E+00  0.93827000000E+00 0.  1.
     999902    2    1    2    0    0  0.26440138897E-02 -0.18985927916E-01 -0.13737311317E-01  0.10203467434E+01  0.10200741673E+01 0.  0.
     999903    2    3    3    0    0  0.71657326314E-01  0.98433593084E-01 -0.39423314727E-01  0.12949885968E+00  0.19794247983E-01 0.  0.
         14    1    1    2    0    0 -0.26440138897E-02  0.18985927916E-01  0.13737311317E-01  0.23583256571E-01  0.00000000000E+00 0. -1.
     999901    1    3    3    0    0 -0.69013312425E-01 -0.11741952100E+00  0.25686003409E-01  0.89084788375E+00  0.88000000000E+00 0.  1.
        -11    1    4    4    0    0  0.43215192586E-01  0.50050017725E-01 -0.12702482277E-01  0.67336255625E-01  0.51100000000E-03 0. -1.
         11    1    4    4    0    0  0.28442133728E-01  0.48383575358E-01 -0.26720832450E-01  0.62162604058E-01  0.51100000000E-03 0.  1.
</event>
<event>
 8    1  0.1088021E+005  0.1043930E+01  0.7957747E-01            NaN
         13   -1    0    0    0    0  0.00000000000E+00  0.00000000000E+00  0.74505805969E-08  0.10566000000E+00  0.10566000000E+00 0. -1.
     999900   -1    0    0    0    0 -0.00000000000E+00 -0.00000000000E+00 -0.74505805969E-08  0.93827000000E+00  0.93827000000E+00 0. -1.
     999902    2    1    2    0    0  0.61444141028E-02 -0.11680952894E-01  0.19477298223E-01  0.10204020670E+01  0.10201307831E+01 0.  0.
     999903    2    3    3    0    0 -0.79821042877E-01  0.86061411557E-01  0.52316030249E-01  0.13022117981E+00  0.21038612223E-01 0.  0.
         14    1    1    2    0    0 -0.61444141028E-02  0.11680952894E-01 -0.19477298223E-01  0.23527933000E-01  0.00000000000E+00 0.  1.
     999901    1    3    3    0    0  0.85965456980E-01 -0.97742364451E-01 -0.32838732026E-01  0.89018088719E+00  0.88000000000E+00 0. -1.
        -11    1    4    4    0    0 -0.28578667076E-01  0.44696785884E-01  0.28234922101E-01  0.60100040160E-01  0.51100000000E-03 0. -1.
         11    1    4    4    0    0 -0.51242375801E-01  0.41364625674E-01  0.24081108147E-01  0.70121139647E-01  0.51100000000E-03 0.  1.
</event>
<event>
 8    1  0.1088021E+005  0.1043930E+01  0.7957747E-01            NaN
         13   -1    0    0    0    0  0.00000000000E+00  0.00000000000E+00  0.74505805969E-08  0.10566000000E+00  0.10566000000E+00 0.  1.
     999900   -1    0    0    0    0 -0.00000000000E+00 -0.00000000000E+00 -0.74505805969E-08  0.93827000000E+00  0.93827000000E+00 0. -1.
     999902    2    1    2    0    0  0.14533807387E-01  0.19154619412E-01 -0.38411256733E-02  0.10195807649E+01  0.10192899739E+01 0.  0.
     999903    2    3    3    0    0 -0.30291765541E-01 -0.67215582711E-02 -0.12438901387E+00  0.12985569396E+00  0.20666496487E-01 0.  0.
         14    1    1    2    0    0 -0.14533807387E-01 -0.19154619412E-01  0.38411256733E-02  0.24349235068E-01  0.00000000000E+00 0. -1.
     999901    1    3    3    0    0  0.44825572928E-01  0.25876177683E-01  0.12054788820E+00  0.88972507097E+00  0.88000000000E+00 0.  1.
        -11    1    4    4    0    0 -0.28916858935E-01 -0.10519526062E-01 -0.87729855054E-01  0.92971144706E-01  0.51100000000E-03 0. -1.
         11    1    4    4    0    0 -0.13749066059E-02  0.37979677906E-02 -0.36659158820E-01  0.36884549257E-01  0.51100000000E-03 0.  1.
</event>
<event>
 8    1  0.1088021E+005  0.1043930E+01  0.7957747E-01            NaN
         13   -1    0    0    0    0  0.00000000000E+00  0.00000000000E+00  0.74505805969E-08  0.10566000000E+00  0.10566000000E+00 0.  1.
     999900   -1    0    0    0    0 -0.00000000000E+00 -0.00000000000E+00 -0.74505805969E-08  0.93827000000E+00  0.93827000000E+00 0.  1.
     999902    2    1    2    0    0  0.11562401254E-01 -0.81387354872E-02 -0.19420999384E-01  0.10199070244E+01  0.10196240656E+01 0.  0.
     999903    2    3    3    0    0 -0.94222505555E-01 -0.17685417458E-01 -0.86891693727E-01  0.13095602452E+00  0.20215325278E-01 0.  0.
         14    1    1    2    0    0 -0.11562401254E-01  0.81387354872E-02  0.19420999384E-01  0.24022975568E-01  0.00000000000E+00 0.  1.
     999901    1    3    3    0    0  0.10578490681E+00  0.95466819710E-02  0.67470694343E-01  0.88895099991E+00  0.88000000000E+00 0. -1.
        -11    1    4    4    0    0 -0.75708366122E-01 -0.14773347510E-01 -0.79586241957E-01  0.11083428859E+00  0.51100000000E-03 0. -1.
         11    1    4    4    0    0 -0.18514139433E-01 -0.29120699477E-02 -0.73054517700E-02  0.20121735931E-01  0.51100000000E-03 0.  1.
</event>
<event>
 8    1  0.1088021E+005  0.1043930E+01  0.7957747E-01            NaN
         13   -1    0    0    0    0  0.00000000000E+00  0.00000000000E+00  0.74505805969E-08  0.10566000000E+00  0.10566000000E+00 0.  1.
     999900   -1    0    0    0    0 -0.00000000000E+00 -0.00000000000E+00 -0.74505805969E-08  0.93827000000E+00  0.93827000000E+00 0. -1.
     999902    2    1    2    0    0 -0.81973126767E-02  0.11760707865E-01 -0.18518691902E-01  0.10205109451E+01  0.10202421952E+01 0.  0.
     999903    2    3    3    0    0 -0.11531971532E+00  0.45980668523E-01  0.35813138962E-01  0.13169253689E+00  0.25445721248E-01 0.  0.
         14    1    1    2    0    0  0.81973126767E-02 -0.11760707865E-01  0.18518691902E-01  0.23419054942E-01  0.00000000000E+00 0. -1.
     999901    1    3    3    0    0  0.10712240265E+00 -0.34219960658E-01 -0.54331830863E-01  0.88881840817E+00  0.88000000000E+00 0. -1.
        -11    1    4    4    0    0 -0.98629646365E-01  0.44483717447E-01  0.38231487294E-01  0.11475415462E+00  0.51100000000E-03 0. -1.
         11    1    4    4    0    0 -0.16690068958E-01  0.14969510767E-02 -0.24183483322E-02  0.16938382272E-01  0.51100000000E-03 0.  1.
</event>
<event>
 8    1  0.1088021E+005  0.1043930E+01  0.7957747E-01            NaN
         13   -1    0    0    0    0  0.00000000000E+00  0.00000000000E+00  0.74505805969E-08  0.10566000000E+00  0.10566000000E+00 0. -1.
     999900   -1    0    0    0    0 -0.00000000000E+00 -0.00000000000E+00 -0.74505805969E-08  0.93827000000E+00  0.93827000000E+00 0.  1.
     999902    2    1    2    0    0  0.46412634836E-02  0.19960246686E-01 -0.11355907730E-01  0.10205011841E+01  0.10202322075E+01 0.  0.
     999903    2    3    3    0    0 -0.99455122202E-01  0.62493054674E-01  0.54168964063E-01  0.13092903632E+00  0.20283803123E-01 0.  0.
         14    1    1    2    0    0 -0.46412634836E-02 -0.19960246686E-01  0.11355907730E-01  0.23428815909E-01  0.00000000000E+00 0. -1.
     999901    1    3    3    0    0  0.10409638569E+00 -0.42532807988E-01 -0.65524871793E-01  0.88957214777E+00  0.88000000000E+00 0.  1.
        -11    1    4    4    0    0 -0.24950670346E-01  0.24379910149E-01  0.99639698899E-02  0.36283023393E-01  0.51100000000E-03 0.  1.
         11    1    4    4    0    0 -0.74504451856E-01  0.38113144526E-01  0.44204994173E-01  0.94646012926E-01  0.51100000000E-03 0. -1.
</event>
<event>
 8    1  0.1088021E+005  0.1043930E+01  0.7957747E-01            NaN
         13   -1    0    0    0    0  0.00000000000E+00  0.00000000000E+00  0.74505805969E-08  0.10566000000E+00  0.10566000000E+00 0.  1.
     999900   -1    0    0    0    0 -0.00000000000E+00 -0.00000000000E+00 -0.74505805969E-08  0.93827000000E+00  0.93827000000E+00 0. -1.
     999902    2    1    2    0    0 -0.28149074363E-01  0.11912871659E-01  0.67983930997E-02  0.10126169828E+01  0.10121327229E+01 0.  0.
     999903    2    3    3    0    0  0.46828190918E-01 -0.37687354493E-01 -0.10345038592E+00  0.12119308473E+00  0.19301950295E-01 0.  0.
         14    1    1    2    0    0  0.28149074363E-01 -0.11912871659E-01 -0.67983930997E-02  0.31313017219E-01  0.00000000000E+00 0.  1.
     999901    1    3    3    0    0 -0.74977265281E-01  0.49600226152E-01  0.11024877902E+00  0.89142389805E+00  0.88000000000E+00 0.  1.
        -11    1    4    4    0    0  0.18686084372E-02 -0.94025509781E-02 -0.11285728486E-01  0.14816492529E-01  0.51100000000E-03 0. -1.
         11    1    4    4    0    0  0.44959582481E-01 -0.28284803515E-01 -0.92164657436E-01  0.10637659220E+00  0.51100000000E-03 0.  1.
</event>
<event>
 8    1  0.1088021E+005  0.1043930E+01  0.7957747E-01            NaN
         13   -1    0    0    0    0  0.00000000000E+00  0.00000000000E+00  0.74505805969E-08  0.10566000000E+00  0.10566000000E+00 0. -1.
     999900   -1    0    0    0    0 -0.00000000000E+00 -0.00000000000E+00 -0.74505805969E-08  0.93827000000E+00  0.93827000000E+00 0. -1.
     999902    2    1    2    0    0  0.12630457657E-01  0.38999254596E-02 -0.18243620303E-01  0.10214007399E+01  0.10211522432E+01 0.  0.
     999903    2    3    3    0    0 -0.12604957627E+00 -0.11769891797E-01  0.15431447729E-01  0.12976645097E+00  0.23961973752E-01 0.  0.
         14    1    1    2    0    0 -0.12630457657E-01 -0.38999254596E-02  0.18243620303E-01  0.22529260107E-01  0.00000000000E+00 0.  1.
     999901    1    3    3    0    0  0.13868003393E+00  0.15669817257E-01 -0.33675068032E-01  0.89163428893E+00  0.88000000000E+00 0. -1.
        -11    1    4    4    0    0 -0.99458610560E-01 -0.16776345024E-01  0.57670114897E-02  0.10102960214E+00  0.51100000000E-03 0.  1.
         11    1    4    4    0    0 -0.26590965712E-01  0.50064532262E-02  0.96644362389E-02  0.28736848822E-01  0.51100000000E-03 0. -1.
</event>
<event>
 8    1  0.1088021E+005  0.1043930E+01  0.7957747E-01            NaN
         13   -1    0    0    0    0  0.00000000000E+00  0.00000000000E+00  0.74505805969E-08  0.10566000000E+00  0.10566000000E+00 0. -1.
     999900   -1    0    0    0    0 -0.00000000000E+00 -0.00000000000E+00 -0.74505805969E-08  0.93827000000E+00  0.93827000000E+00 0.  1.
     999902    2    1    2    0    0  0.19089475369E-01  0.12567486744E-01 -0.74646284439E-02  0.10198869039E+01  0.10196034652E+01 0.  0.
     999903    2    3    3    0    0  0.60273968655E-01 -0.10347819433E+00 -0.48229988807E-01  0.13037885042E+00  0.18216059292E-01 0.  0.
         14    1    1    2    0    0 -0.19089475369E-01 -0.12567486744E-01  0.74646284439E-02  0.24043096113E-01  0.00000000000E+00 0.  1.
     999901    1    3    3    0    0 -0.41184493286E-01  0.11604568107E+00  0.40765360363E-01  0.88950805347E+00  0.88000000000E+00 0.  1.
        -11    1    4    4    0    0  0.36953584525E-01 -0.51655446278E-01 -0.32835599606E-01  0.71500281551E-01  0.51100000000E-03 0. -1.
         11    1    4    4    0    0  0.23320384130E-01 -0.51822748053E-01 -0.15394389201E-01  0.58878568866E-01  0.51100000000E-03 0.  1.
</event>
<event>
 8    1  0.1101393E+005  0.1043930E+01  0.7957747E-01            NaN
         13   -1    0    0    0    0  0.00000000000E+00  0.00000000000E+00  0.74505805969E-08  0.10566000000E+00  0.10566000000E+00 0. -1.
     999900   -1    0    0    0    0 -0.00000000000E+00 -0.00000000000E+00 -0.74505805969E-08  0.93827000000E+00  0.93827000000E+00 0.  1.
     999902    2    1    2    0    0  0.23063462558E-01 -0.25368659757E-02  0.82670805243E-03  0.10207127125E+01  0.10204486263E+01 0.  0.
     999903    2    3    3    0    0  0.90186752324E-01  0.75263627289E-01 -0.58858432122E-01  0.13272579323E+00  0.18803118593E-01 0.  0.
         14    1    1    2    0    0 -0.23063462558E-01  0.25368659757E-02 -0.82670805243E-03  0.23217287532E-01  0.00000000000E+00 0. -1.
     999901    1    3    3    0    0 -0.67123289766E-01 -0.77800493265E-01  0.59685140175E-01  0.88798691924E+00  0.88000000000E+00 0.  1.
        -11    1    4    4    0    0  0.52149185276E-01  0.40313491139E-01 -0.22886610097E-01  0.69776594467E-01  0.51100000000E-03 0.  1.
         11    1    4    4    0    0  0.38037567048E-01  0.34950136151E-01 -0.35971822025E-01  0.62949198762E-01  0.51100000000E-03 0. -1.
</event>
<event>
 8    1  0.1088021E+005  0.1043930E+01  0.7957747E-01            NaN
         13   -1    0    0    0    0  0.00000000000E+00  0.00000000000E+00  0.74505805969E-08  0.10566000000E+00  0.10566000000E+00 0. -1.
     999900   -1    0    0    0    0 -0.00000000000E+00 -0.00000000000E+00 -0.74505805969E-08  0.93827000000E+00  0.93827000000E+00 0. -1.
     999902    2    1    2    0    0  0.60405680202E-02 -0.49373125011E-02 -0.22480558054E-01  0.10201341809E+01  0.10198566105E+01 0.  0.
     999903    2    3    3    0    0 -0.81143559494E-01 -0.64486441426E-01  0.73436419410E-01  0.12864820937E+00  0.20363587690E-01 0.  0.
         14    1    1    2    0    0 -0.60405680202E-02  0.49373125011E-02  0.22480558054E-01  0.23795819111E-01  0.00000000000E+00 0. -1.
     999901    1    3    3    0    0  0.87184127514E-01  0.59549128924E-01 -0.95916977464E-01  0.89148597152E+00  0.88000000000E+00 0. -1.
        -11    1    4    4    0    0 -0.76059333342E-01 -0.61590619339E-01  0.62183208429E-01  0.11595446999E+00  0.51100000000E-03 0.  1.
         11    1    4    4    0    0 -0.50842261526E-02 -0.28958220866E-02  0.11253210981E-01  0.12693739382E-01  0.51100000000E-03 0. -1.
</event>
<event>
 8    1  0.1088021E+005  0.1043930E+01  0.7957747E-01            NaN
         13   -1    0    0    0    0  0.00000000000E+00  0.00000000000E+00  0.74505805969E-08  0.10566000000E+00  0.10566000000E+00 0.  1.
     999900   -1    0    0    0    0 -0.00000000000E+00 -0.00000000000E+00 -0.74505805969E-08  0.93827000000E+00  0.93827000000E+00 0. -1.
     999902    2    1    2    0    0 -0.16511148930E-01 -0.51330551749E-02  0.14205712146E-01  0.10215521415E+01  0.10213070103E+01 0.  0.
     999903    2    3    3    0    0 -0.11661420302E+00 -0.59442013647E-01  0.22180683296E-01  0.13417753931E+00  0.19478295930E-01 0.  0.
         14    1    1    2    0    0  0.16511148930E-01  0.51330551749E-02 -0.14205712146E-01  0.22377858521E-01  0.00000000000E+00 0. -1.
     999901    1    3    3    0    0  0.10010305409E+00  0.54308958472E-01 -0.79749711503E-02  0.88737460217E+00  0.88000000000E+00 0. -1.
        -11    1    4    4    0    0 -0.96640081834E-01 -0.50636009482E-01  0.11028955703E-01  0.10965951786E+00  0.51100000000E-03 0.  1.
         11    1    4    4    0    0 -0.19974121183E-01 -0.88060041642E-02  0.11151727593E-01  0.24518021447E-01  0.51100000000E-03 0. -1.
</event>
<event>
 8    1  0.1088021E+005  0.1043930E+01  0.7957747E-01            NaN
         13   -1    0    0    0    0  0.00000000000E+00  0.00000000000E+00  0.74505805969E-08  0.10566000000E+00  0.10566000000E+00 0.  1.
     999900   -1    0    0    0    0 -0.00000000000E+00 -0.00000000000E+00 -0.74505805969E-08  0.93827000000E+00  0.93827000000E+00 0. -1.
     999902    2    1    2    0    0 -0.11964238660E-02 -0.10817222125E-02  0.22639396963E-01  0.10212332194E+01  0.10209809717E+01 0.  0.
     999903    2    3    3    0    0  0.12696899996E+00  0.24250868728E-01  0.16149732813E-01  0.13156461160E+00  0.18417425730E-01 0.  0.
         14    1    1    2    0    0  0.11964238660E-02  0.10817222125E-02 -0.22639396963E-01  0.22696780561E-01  0.00000000000E+00 0. -1.
     999901    1    3    3    0    0 -0.12816542383E+00 -0.25332590941E-01  0.64896641498E-02  0.88966860784E+00  0.88000000000E+00 0. -1.
        -11    1    4    4    0    0  0.78714203473E-01  0.23137106039E-01  0.62019084447E-02  0.82279865663E-01  0.51100000000E-03 0. -1.
         11    1    4    4    0    0  0.48254796490E-01  0.11137626892E-02  0.99478243683E-02  0.49284745939E-01  0.51100000000E-03 0.  1.
</event>
<event>
 8    1  0.1088021E+005  0.1043930E+01  0.7957747E-01            NaN
         13   -1    0    0    0    0  0.00000000000E+00  0.00000000000E+00  0.74505805969E-08  0.10566000000E+00  0.10566000000E+00 0. -1.
     999900   -1    0    0    0    0 -0.00000000000E+00 -0.00000000000E+00 -0.74505805969E-08  0.93827000000E+00  0.93827000000E+00 0.  1.
     999902    2    1    2    0    0  0.93314285443E-02  0.20659577761E-01 -0.39893531593E-02  0.10209124274E+01  0.10206529164E+01 0.  0.
     999903    2    3    3    0    0  0.79161075196E-01 -0.23302349583E-01  0.99912295927E-01  0.13096614623E+00  0.18978652686E-01 0.  0.
         14    1    1    2    0    0 -0.93314285443E-02 -0.20659577761E-01  0.39893531593E-02  0.23017572648E-01  0.00000000000E+00 0.  1.
     999901    1    3    3    0    0 -0.69829646652E-01  0.43961927345E-01 -0.10390164909E+00  0.88994628113E+00  0.88000000000E+00 0.  1.
        -11    1    4    4    0    0  0.10300598815E-01 -0.66978282872E-02  0.70635280879E-02  0.14181600395E-01  0.51100000000E-03 0. -1.
         11    1    4    4    0    0  0.68860476381E-01 -0.16604521296E-01  0.92848767839E-01  0.11678454583E+00  0.51100000000E-03 0.  1.
</event>
<event>
 8    1  0.1088021E+005  0.1043930E+01  0.7957747E-01            NaN
         13   -1    0    0    0    0  0.00000000000E+00  0.00000000000E+00  0.74505805969E-08  0.10566000000E+00  0.10566000000E+00 0. -1.
     999900   -1    0    0    0    0 -0.00000000000E+00 -0.00000000000E+00 -0.74505805969E-08  0.93827000000E+00  0.93827000000E+00 0. -1.
     999902    2    1    2    0    0 -0.22679945076E-02  0.95160706420E-02  0.21357611672E-01  0.10204385765E+01  0.10201681438E+01 0.  0.
     999903    2    3    3    0    0 -0.86923643189E-01 -0.81134263958E-01 -0.46420269644E-01  0.12915977437E+00  0.19720987496E-01 0.  0.
         14    1    1    2    0    0  0.22679945076E-02 -0.95160706420E-02 -0.21357611672E-01  0.23491423453E-01  0.00000000000E+00 0.  1.
     999901    1    3    3    0    0  0.84655648682E-01  0.90650334600E-01  0.67777881316E-01  0.89127880218E+00  0.88000000000E+00 0.  1.
        -11    1    4    4    0    0 -0.75217731667E-01 -0.62213014449E-01 -0.42911870820E-01  0.10662952735E+00  0.51100000000E-03 0. -1.
         11    1    4    4    0    0 -0.11705911522E-01 -0.18921249509E-01 -0.35083988240E-02  0.22530247022E-01  0.51100000000E-03 0.  1.
</event>
<event>
 8    1  0.1088021E+005  0.1043930E+01  0.7957747E-01            NaN
         13   -1    0    0    0    0  0.00000000000E+00  0.00000000000E+00  0.74505805969E-08  0.10566000000E+00  0.10566000000E+00 0. -1.
     999900   -1    0    0    0    0 -0.00000000000E+00 -0.00000000000E+00 -0.74505805969E-08  0.93827000000E+00  0.93827000000E+00 0.  1.
     999902    2    1    2    0    0 -0.93875254211E-02  0.13516264169E-01  0.16241190234E-01  0.10208087697E+01  0.10205468892E+01 0.  0.
     999903    2    3    3    0    0 -0.20281185839E-01  0.17315989024E-01  0.12905418013E+00  0.13353210459E+00  0.21556242098E-01 0.  0.
         14    1    1    2    0    0  0.93875254211E-02 -0.13516264169E-01 -0.16241190234E-01  0.23121230305E-01  0.00000000000E+00 0. -1.
     999901    1    3    3    0    0  0.10893660418E-01 -0.37997248545E-02 -0.11281298989E+00  0.88727666510E+00  0.88000000000E+00 0.  1.
        -11    1    4    4    0    0 -0.13290062648E-01  0.70972808222E-02  0.28724266738E-01  0.32439817831E-01  0.51100000000E-03 0.  1.
         11    1    4    4    0    0 -0.69911231905E-02  0.10218708201E-01  0.10032991339E+00  0.10109228676E+00  0.51100000000E-03 0. -1.
</event>
<event>
 8    1  0.1088021E+005  0.1043930E+01  0.7957747E-01            NaN
         13   -1    0    0    0    0  0.00000000000E+00  0.00000000000E+00  0.74505805969E-08  0.10566000000E+00  0.10566000000E+00 0. -1.
     999900   -1    0    0    0    0 -0.00000000000E+00 -0.00000000000E+00 -0.74505805969E-08  0.93827000000E+00  0.93827000000E+00 0. -1.
     999902    2    1    2    0    0 -0.92202524467E-02  0.18158369065E-01 -0.11739081545E-01  0.10204237145E+01  0.10201529354E+01 0.  0.
     999903    2    3    3    0    0 -0.19204709614E-01  0.12432011523E+00  0.36637700515E-01  0.13266793797E+00  0.20836236305E-01 0.  0.
         14    1    1    2    0    0  0.92202524467E-02 -0.18158369065E-01  0.11739081545E-01  0.23506285495E-01  0.00000000000E+00 0. -1.
     999901    1    3    3    0    0  0.99844571670E-02 -0.10616174616E+00 -0.48376782060E-01  0.88775577654E+00  0.88000000000E+00 0.  1.
        -11    1    4    4    0    0 -0.88326886512E-02  0.95840909392E-01  0.34627421927E-01  0.10228790629E+00  0.51100000000E-03 0.  1.
         11    1    4    4    0    0 -0.10372020963E-01  0.28479205837E-01  0.20102785875E-02  0.30380031681E-01  0.51100000000E-03 0. -1.
</event>
<event>
 8    1  0.1088021E+005  0.1043930E+01  0.7957747E-01            NaN
         13   -1    0    0    0    0  0.00000000000E+00  0.00000000000E+00  0.74505805969E-08  0.10566000000E+00  0.10566000000E+00 0.  1.
     999900   -1    0    0    0    0 -0.00000000000E+00 -0.00000000000E+00 -0.74505805969E-08  0.93827000000E+00  0.93827000000E+00 0.  1.
     999902    2    1    2    0    0  0.22884086728E-01  0.45337301557E-02 -0.30507037279E-02  0.10204025070E+01  0.10201312334E+01 0.  0.
     999903    2    3    3    0    0 -0.87785226343E-01 -0.70171998907E-01 -0.59117403086E-01  0.12856613321E+00  0.20100444410E-01 0.  0.
         14    1    1    2    0    0 -0.22884086728E-01 -0.45337301557E-02  0.30507037279E-02  0.23527493019E-01  0.00000000000E+00 0.  1.
     999901    1    3    3    0    0  0.11066931307E+00  0.74705729063E-01  0.56066699358E-01  0.89183637377E+00  0.88000000000E+00 0. -1.
        -11    1    4    4    0    0 -0.19452863619E-01 -0.20361797766E-01 -0.23996047247E-01  0.37001190733E-01  0.51100000000E-03 0. -1.
         11    1    4    4    0    0 -0.68332362724E-01 -0.49810201142E-01 -0.35121355839E-01  0.91564942473E-01  0.51100000000E-03 0.  1.
</event>
<event>
 8    1  0.1088021E+005  0.1043930E+01  0.7957747E-01            NaN
         13   -1    0    0    0    0  0.00000000000E+00  0.00000000000E+00  0.74505805969E-08  0.10566000000E+00  0.10566000000E+00 0.  1.
     999900   -1    0    0    0    0 -0.00000000000E+00 -0.00000000000E+00 -0.74505805969E-08  0.93827000000E+00  0.93827000000E+00 0. -1.
     999902    2    1    2    0    0  0.11740962223E-01 -0.75959433473E-02 -0.19377448219E-01  0.10200336813E+01  0.10197537334E+01 0.  0.
     999903    2    3    3    0    0  0.27004244897E-01  0.18804876717E-01 -0.12711271598E+00  0.13293906455E+00  0.20791817811E-01 0.  0.
         14    1    1    2    0    0 -0.11740962223E-01  0.75959433473E-02  0.19377448219E-01  0.23896318728E-01  0.00000000000E+00 0.  1.
     999901    1    3    3    0    0 -0.15263282674E-01 -0.26400820064E-01  0.10773526776E+00  0.88709461672E+00  0.88000000000E+00 0.  1.
        -11    1    4    4    0    0  0.23454260570E-01  0.48148757577E-02 -0.89502662011E-01  0.92651351827E-01  0.51100000000E-03 0.  1.
         11    1    4    4    0    0  0.35499843270E-02  0.13990000960E-01 -0.37610053973E-01  0.40287712722E-01  0.51100000000E-03 0. -1.
</event>
<event>
 8    1  0.1088021E+005  0.1043930E+01  0.7957747E-01            NaN
         13   -1    0    0    0    0  0.00000000000E+00  0.00000000000E+00  0.74505805969E-08  0.10566000000E+00  0.10566000000E+00 0. -1.
     999900   -1    0    0    0    0 -0.00000000000E+00 -0.00000000000E+00 -0.74505805969E-08  0.93827000000E+00  0.93827000000E+00 0. -1.
     999902    2    1    2    0    0  0.20817897877E-01 -0.30511844011E-02  0.11356447063E-01  0.10200205147E+01  0.10197402546E+01 0.  0.
     999903    2    3    3    0    0  0.11619441512E-02  0.11766222340E+00  0.53089243620E-01  0.13058265308E+00  0.19687878729E-01 0.  0.
         14    1    1    2    0    0 -0.20817897877E-01  0.30511844011E-02 -0.11356447063E-01  0.23909485318E-01  0.00000000000E+00 0.  1.
     999901    1    3    3    0    0  0.19655953726E-01 -0.12071340780E+00 -0.41732796557E-01  0.88943786160E+00  0.88000000000E+00 0.  1.
        -11    1    4    4    0    0 -0.81045768444E-02  0.65956982101E-01  0.34359098737E-01  0.74811873661E-01  0.51100000000E-03 0.  1.
         11    1    4    4    0    0  0.92665209957E-02  0.51705241296E-01  0.18730144883E-01  0.55770779421E-01  0.51100000000E-03 0. -1.
</event>
<event>
 8    1  0.1088021E+005  0.1043930E+01  0.7957747E-01            NaN
         13   -1    0    0    0    0  0.00000000000E+00  0.00000000000E+00  0.74505805969E-08  0.10566000000E+00  0.10566000000E+00 0. -1.
     999900   -1    0    0    0    0 -0.00000000000E+00 -0.00000000000E+00 -0.74505805969E-08  0.93827000000E+00  0.93827000000E+00 0. -1.
     999902    2    1    2    0    0  0.17618544789E-01  0.27959449277E-02 -0.14280983049E-01  0.10210788095E+01  0.10208230789E+01 0.  0.
     999903    2    3    3    0    0  0.12098531895E+00  0.24526876298E-01  0.44468957429E-01  0.13281731714E+00  0.20589718190E-01 0.  0.
         14    1    1    2    0    0 -0.17618544789E-01 -0.27959449277E-02  0.14280983049E-01  0.22851190459E-01  0.00000000000E+00 0. -1.
     999901    1    3    3    0    0 -0.10336677416E+00 -0.21730931371E-01 -0.58749940477E-01  0.88826149240E+00  0.88000000000E+00 0. -1.
        -11    1    4    4    0    0  0.62923523092E-01  0.28138027178E-02  0.25893620780E-01  0.68103068669E-01  0.51100000000E-03 0.  1.
         11    1    4    4    0    0  0.58061795857E-01  0.21713073581E-01  0.18575336649E-01  0.64714248470E-01  0.51100000000E-03 0. -1.
</event>
<event>
 8    1  0.1088021E+005  0.1043930E+01  0.7957747E-01            NaN
         13   -1    0    0    0    0  0.00000000000E+00  0.00000000000E+00  0.74505805969E-08  0.10566000000E+00  0.10566000000E+00 0.  1.
     999900   -1    0    0    0    0 -0.00000000000E+00 -0.00000000000E+00 -0.74505805969E-08  0.93827000000E+00  0.93827000000E+00 0.  1.
     999902    2    1    2    0    0  0.13830280924E-01  0.11776908062E-01 -0.15290708219E-01  0.10201859904E+01  0.10199096416E+01 0.  0.
     999903    2    3    3    0    0 -0.99692087719E-01 -0.62284361277E-01 -0.49659003731E-01  0.12914526208E+00  0.19865247342E-01 0.  0.
         14    1    1    2    0    0 -0.13830280924E-01 -0.11776908062E-01  0.15290708219E-01  0.23744009598E-01  0.00000000000E+00 0.  1.
     999901    1    3    3    0    0  0.11352236864E+00  0.74061269338E-01  0.34368295512E-01  0.89104072833E+00  0.88000000000E+00 0. -1.
        -11    1    4    4    0    0 -0.51315205019E-01 -0.43206225968E-01 -0.30917192728E-01  0.73865838895E-01  0.51100000000E-03 0. -1.
         11    1    4    4    0    0 -0.48376882700E-01 -0.19078135309E-01 -0.18741811002E-01  0.55279423182E-01  0.51100000000E-03 0.  1.
</event>
<event>
 8    1  0.1088021E+005  0.1043930E+01  0.7957747E-01            NaN
         13   -1    0    0    0    0  0.00000000000E+00  0.00000000000E+00  0.74505805969E-08  0.10566000000E+00  0.10566000000E+00 0. -1.
     999900   -1    0    0    0    0 -0.00000000000E+00 -0.00000000000E+00 -0.74505805969E-08  0.93827000000E+00  0.93827000000E+00 0.  1.
     999902    2    1    2    0    0 -0.16948548757E-01 -0.15116857709E-01  0.31382762220E-02  0.10210035640E+01  0.10207461272E+01 0.  0.
     999903    2    3    3    0    0  0.66037741604E-01  0.10054551617E+00 -0.40425392694E-01  0.12850017328E+00  0.20191533391E-01 0.  0.
         14    1    1    2    0    0  0.16948548757E-01  0.15116857709E-01 -0.31382762220E-02  0.22926436043E-01  0.00000000000E+00 0. -1.
     999901    1    3    3    0    0 -0.82986290361E-01 -0.11566237388E+00  0.43563668916E-01  0.89250339068E+00  0.88000000000E+00 0. -1.
        -11    1    4    4    0    0  0.27192565171E-01  0.56227283346E-01 -0.27056528958E-01  0.68068053250E-01  0.51100000000E-03 0.  1.
         11    1    4    4    0    0  0.38845176433E-01  0.44318232824E-01 -0.13368863736E-01  0.60432120030E-01  0.51100000000E-03 0. -1.
</event>
<event>
 8    1  0.1088021E+005  0.1043930E+01  0.7957747E-01            NaN
         13   -1    0    0    0    0  0.00000000000E+00  0.00000000000E+00  0.74505805969E-08  0.10566000000E+00  0.10566000000E+00 0.  1.
     999900   -1    0    0    0    0 -0.00000000000E+00 -0.00000000000E+00 -0.74505805969E-08  0.93827000000E+00  0.93827000000E+00 0.  1.
     999902    2    1    2    0    0 -0.23017754465E-01 -0.43182719451E-02  0.30121307950E-02  0.10203177696E+01  0.10200445155E+01 0.  0.
     999903    2    3    3    0    0 -0.92369324869E-01 -0.74488424035E-01 -0.56254086818E-01  0.13282355827E+00  0.19923801266E-01 0.  0.
         14    1    1    2    0    0  0.23017754465E-01  0.43182719451E-02 -0.30121307950E-02  0.23612230414E-01  0.00000000000E+00 0.  1.
     999901    1    3    3    0    0  0.69351570404E-01  0.70170152090E-01  0.59266217613E-01  0.88749421131E+00  0.88000000000E+00 0. -1.
        -11    1    4    4    0    0 -0.60249688774E-01 -0.43092023036E-01 -0.25318838320E-01  0.78283153626E-01  0.51100000000E-03 0. -1.
         11    1    4    4    0    0 -0.32119636094E-01 -0.31396400999E-01 -0.30935248499E-01  0.54540404648E-01  0.51100000000E-03 0.  1.
</event>
<event>
 8    1  0.1088021E+005  0.1043930E+01  0.7957747E-01            NaN
         13   -1    0    0    0    0  0.00000000000E+00  0.00000000000E+00  0.74505805969E-08  0.10566000000E+00  0.10566000000E+00 0. -1.
     999900   -1    0    0    0    0 -0.00000000000E+00 -0.00000000000E+00 -0.74505805969E-08  0.93827000000E+00  0.93827000000E+00 0.  1.
     999902    2    1    2    0    0  0.77451770467E-02 -0.98419092831E-04 -0.22450437016E-01  0.10201809037E+01  0.10199044351E+01 0.  0.
     999903    2    3    3    0    0 -0.69624931846E-03 -0.11650225613E+00  0.52477973209E-01  0.12931874958E+00  0.19903287980E-01 0.  0.
         14    1    1    2    0    0 -0.77451770467E-02  0.98419092831E-04  0.22450437016E-01  0.23749096320E-01  0.00000000000E+00 0. -1.
     999901    1    3    3    0    0  0.84414263652E-02  0.11640383704E+00 -0.74928410225E-01  0.89086215410E+00  0.88000000000E+00 0. -1.
        -11    1    4    4    0    0 -0.63494495854E-02 -0.53606106811E-01  0.15618796173E-01  0.56197314103E-01  0.51100000000E-03 0.  1.
         11    1    4    4    0    0  0.56532002670E-02 -0.62896149322E-01  0.36859177036E-01  0.73121435473E-01  0.51100000000E-03 0. -1.
</event>
<event>
 8    1  0.1088021E+005  0.1043930E+01  0.7957747E-01            NaN
         13   -1    0    0    0    0  0.00000000000E+00  0.00000000000E+00  0.74505805969E-08  0.10566000000E+00  0.10566000000E+00 0. -1.
     999900   -1    0    0    0    0 -0.00000000000E+00 -0.00000000000E+00 -0.74505805969E-08  0.93827000000E+00  0.93827000000E+00 0.  1.
     999902    2    1    2    0    0 -0.87390648295E-02  0.14003958163E-01 -0.17637298663E-01  0.10197730879E+01  0.10194869270E+01 0.  0.
     999903    2    3    3    0    0  0.11507694156E+00  0.14467554079E-01  0.52091495867E-01  0.12837378167E+00  0.17728262155E-01 0.  0.
         14    1    1    2    0    0  0.87390648295E-02 -0.14003958163E-01  0.17637298663E-01  0.24156912105E-01  0.00000000000E+00 0.  1.
     999901    1    3    3    0    0 -0.12381600638E+00 -0.46359591583E-03 -0.69728794530E-01  0.89139930623E+00  0.88000000000E+00 0.  1.
        -11    1    4    4    0    0  0.19609993062E-01 -0.41766774428E-02  0.91663954569E-02  0.22051766120E-01  0.51100000000E-03 0. -1.
         11    1    4    4    0    0  0.95466948493E-01  0.18644231521E-01  0.42925100410E-01  0.10632201555E+00  0.51100000000E-03 0.  1.
</event>
<event>
 8    1  0.1088021E+005  0.1043930E+01  0.7957747E-01            NaN
         13   -1    0    0    0    0  0.00000000000E+00  0.00000000000E+00  0.74505805969E-08  0.10566000000E+00  0.10566000000E+00 0.  1.
     999900   -1    0    0    0    0 -0.00000000000E+00 -0.00000000000E+00 -0.74505805969E-08  0.93827000000E+00  0.93827000000E+00 0.  1.
     999902    2    1    2    0    0 -0.28511846611E-03  0.15883071110E-01  0.14162862119E-01  0.10226476152E+01  0.10224261367E+01 0.  0.
     999903    2    3    3    0    0 -0.76922112554E-01 -0.10371236520E+00 -0.94814331265E-02  0.13094399292E+00  0.19574616534E-01 0.  0.
         14    1    1    2    0    0  0.28511846611E-03 -0.15883071110E-01 -0.14162862119E-01  0.21282384825E-01  0.00000000000E+00 0. -1.
     999901    1    3    3    0    0  0.76636994087E-01  0.11959543631E+00  0.23644295246E-01  0.89170362226E+00  0.88000000000E+00 0.  1.
        -11    1    4    4    0    0 -0.22401565221E-01 -0.39871932592E-01 -0.10736483941E-01  0.46980148375E-01  0.51100000000E-03 0. -1.
         11    1    4    4    0    0 -0.54520547333E-01 -0.63840432606E-01  0.12550508143E-02  0.83963844542E-01  0.51100000000E-03 0.  1.
</event>
<event>
 8    1  0.1088021E+005  0.1043930E+01  0.7957747E-01            NaN
         13   -1    0    0    0    0  0.00000000000E+00  0.00000000000E+00  0.74505805969E-08  0.10566000000E+00  0.10566000000E+00 0. -1.
     999900   -1    0    0    0    0 -0.00000000000E+00 -0.00000000000E+00 -0.74505805969E-08  0.93827000000E+00  0.93827000000E+00 0.  1.
     999902    2    1    2    0    0 -0.12561018036E-01 -0.70329465244E-02 -0.14411003038E-01  0.10235604512E+01  0.10233577472E+01 0.  0.
     999903    2    3    3    0    0  0.20953914487E-01  0.91428707610E-01  0.89997424075E-01  0.13130540485E+00  0.18528299837E-01 0.  0.
         14    1    1    2    0    0  0.12561018036E-01  0.70329465244E-02  0.14411003038E-01  0.20369548828E-01  0.00000000000E+00 0.  1.
     999901    1    3    3    0    0 -0.33514932523E-01 -0.98461654134E-01 -0.10440842711E+00  0.89225504632E+00  0.88000000000E+00 0.  1.
        -11    1    4    4    0    0  0.10699845345E-01  0.77632968474E-01  0.72205260846E-01  0.10656089949E+00  0.51100000000E-03 0. -1.
         11    1    4    4    0    0  0.10254069142E-01  0.13795739135E-01  0.17792163229E-01  0.24744505362E-01  0.51100000000E-03 0.  1.
</event>
<event>
 8    1  0.1088021E+005  0.1043930E+01  0.7957747E-01            NaN
         13   -1    0    0    0    0  0.00000000000E+00  0.00000000000E+00  0.74505805969E-08  0.10566000000E+00  0.10566000000E+00 0.  1.
     999900   -1    0    0    0    0 -0.00000000000E+00 -0.00000000000E+00 -0.74505805969E-08  0.93827000000E+00  0.93827000000E+00 0.  1.
     999902    2    1    2    0    0 -0.17314731642E-01  0.11934443810E-01 -0.11948983984E-01  0.10197430387E+01  0.10194561569E+01 0.  0.
     999903    2    3    3    0    0  0.10866767791E+00  0.65494876019E-01 -0.17857025544E-01  0.12913920284E+00  0.16118850526E-01 0.  0.
         14    1    1    2    0    0  0.17314731642E-01 -0.11934443810E-01  0.11948983984E-01  0.24186961346E-01  0.00000000000E+00 0. -1.
     999901    1    3    3    0    0 -0.12598240955E+00 -0.53560432209E-01  0.59080415602E-02  0.89060383582E+00  0.88000000000E+00 0.  1.
        -11    1    4    4    0    0  0.25921221512E-01  0.20580484462E-01 -0.10380018058E-01  0.34691093399E-01  0.51100000000E-03 0. -1.
         11    1    4    4    0    0  0.82746456394E-01  0.44914391558E-01 -0.74770074866E-02  0.94448109440E-01  0.51100000000E-03 0.  1.
</event>
<event>
 8    1  0.1088021E+005  0.1043930E+01  0.7957747E-01            NaN
         13   -1    0    0    0    0  0.00000000000E+00  0.00000000000E+00  0.74505805969E-08  0.10566000000E+00  0.10566000000E+00 0.  1.
     999900   -1    0    0    0    0 -0.00000000000E+00 -0.00000000000E+00 -0.74505805969E-08  0.93827000000E+00  0.93827000000E+00 0.  1.
     999902    2    1    2    0    0  0.27284462473E-01 -0.27572706013E-02  0.12099344043E-01  0.10139560353E+01  0.10135129022E+01 0.  0.
     999903    2    3    3    0    0 -0.78078129775E-01  0.92001013749E-01 -0.54031905114E-02  0.12244790465E+00  0.20097611935E-01 0.  0.
         14    1    1    2    0    0 -0.27284462473E-01  0.27572706013E-02 -0.12099344043E-01  0.29973964701E-01  0.00000000000E+00 0. -1.
     999901    1    3    3    0    0  0.10536259225E+00 -0.94758284350E-01  0.17502534554E-01  0.89150813065E+00  0.88000000000E+00 0. -1.
        -11    1    4    4    0    0 -0.47500384985E-01  0.62889489137E-01 -0.11970169310E-01  0.79717755186E-01  0.51100000000E-03 0. -1.
         11    1    4    4    0    0 -0.30577744789E-01  0.29111524612E-01  0.65669787983E-02  0.42730149463E-01  0.51100000000E-03 0.  1.
</event>
<event>
 8    1  0.1088021E+005  0.1043930E+01  0.7957747E-01            NaN
         13   -1    0    0    0    0  0.00000000000E+00  0.00000000000E+00  0.74505805969E-08  0.10566000000E+00  0.10566000000E+00 0. -1.
     999900   -1    0    0    0    0 -0.00000000000E+00 -0.00000000000E+00 -0.74505805969E-08  0.93827000000E+00  0.93827000000E+00 0. -1.
     999902    2    1    2    0    0 -0.23782584066E-01 -0.14108078457E-02 -0.91636350989E-02  0.10184040545E+01  0.10180841048E+01 0.  0.
     999903    2    3    3    0    0  0.79393107026E-01 -0.79520068539E-01 -0.59307752919E-01  0.12752768130E+00  0.10917563721E-01 0.  0.
         14    1    1    2    0    0  0.23782584066E-01  0.14108078457E-02  0.91636350989E-02  0.25525945465E-01  0.00000000000E+00 0. -1.
     999901    1    3    3    0    0 -0.10317569109E+00  0.78109260693E-01  0.50144117820E-01  0.89087637324E+00  0.88000000000E+00 0.  1.
        -11    1    4    4    0    0  0.41900077916E-01 -0.44751398172E-01 -0.26619050970E-01  0.66836660324E-01  0.51100000000E-03 0. -1.
         11    1    4    4    0    0  0.37493029110E-01 -0.34768670367E-01 -0.32688701949E-01  0.60691020976E-01  0.51100000000E-03 0.  1.
</event>
<event>
 8    1  0.1088021E+005  0.1043930E+01  0.7957747E-01            NaN
         13   -1    0    0    0    0  0.00000000000E+00  0.00000000000E+00  0.74505805969E-08  0.10566000000E+00  0.10566000000E+00 0. -1.
     999900   -1    0    0    0    0 -0.00000000000E+00 -0.00000000000E+00 -0.74505805969E-08  0.93827000000E+00  0.93827000000E+00 0. -1.
     999902    2    1    2    0    0  0.86685038607E-03 -0.22217066368E-01  0.45997011459E-02  0.10212252270E+01  0.10209727996E+01 0.  0.
     999903    2    3    3    0    0 -0.75550181745E-03  0.10676436296E+00 -0.69164145319E-01  0.12876797523E+00  0.19957767047E-01 0.  0.
         14    1    1    2    0    0 -0.86685038607E-03  0.22217066368E-01 -0.45997011459E-02  0.22704773028E-01  0.00000000000E+00 0.  1.
     999901    1    3    3    0    0  0.16223522035E-02 -0.12898142933E+00  0.73763846465E-01  0.89245725174E+00  0.88000000000E+00 0. -1.
        -11    1    4    4    0    0 -0.94780848186E-02  0.68797589255E-01 -0.48092271433E-01  0.84475263076E-01  0.51100000000E-03 0. -1.
         11    1    4    4    0    0  0.87225830012E-02  0.37966773709E-01 -0.21071873886E-01  0.44292712156E-01  0.51100000000E-03 0.  1.
</event>
<event>
 8    1  0.1088021E+005  0.1043930E+01  0.7957747E-01            NaN
         13   -1    0    0    0    0  0.00000000000E+00  0.00000000000E+00  0.74505805969E-08  0.10566000000E+00  0.10566000000E+00 0.  1.
     999900   -1    0    0    0    0 -0.00000000000E+00 -0.00000000000E+00 -0.74505805969E-08  0.93827000000E+00  0.93827000000E+00 0.  1.
     999902    2    1    2    0    0  0.83715428649E-02 -0.20444639162E-01  0.88661021515E-02  0.10201250894E+01  0.10198473044E+01 0.  0.
     999903    2    3    3    0    0 -0.83163144205E-01  0.33601198639E-01 -0.89495802983E-01  0.12828731499E+00  0.20074544354E-01 0.  0.
         14    1    1    2    0    0 -0.83715428649E-02  0.20444639162E-01 -0.88661021515E-02  0.23804910581E-01  0.00000000000E+00 0. -1.
     999901    1    3    3    0    0  0.91534687070E-01 -0.54045837802E-01  0.98361905135E-01  0.89183777443E+00  0.88000000000E+00 0. -1.
        -11    1    4    4    0    0 -0.51942883704E-01  0.30311952354E-01 -0.64175332662E-01  0.87952328373E-01  0.51100000000E-03 0. -1.
         11    1    4    4    0    0 -0.31220260502E-01  0.32892462853E-02 -0.25320470321E-01  0.40334986615E-01  0.51100000000E-03 0.  1.
</event>
<event>
 8    1  0.1088021E+005  0.1043930E+01  0.7957747E-01            NaN
         13   -1    0    0    0    0  0.00000000000E+00  0.00000000000E+00  0.74505805969E-08  0.10566000000E+00  0.10566000000E+00 0. -1.
     999900   -1    0    0    0    0 -0.00000000000E+00 -0.00000000000E+00 -0.74505805969E-08  0.93827000000E+00  0.93827000000E+00 0.  1.
     999902    2    1    2    0    0 -0.10404210018E-01  0.15714621430E-01  0.14141497244E-01  0.10203677663E+01  0.10200956816E+01 0.  0.
     999903    2    3    3    0    0  0.68659313095E-01  0.33152988273E-02 -0.10673972901E+00  0.12850619927E+00  0.19884190207E-01 0.  0.
         14    1    1    2    0    0  0.10404210018E-01 -0.15714621430E-01 -0.14141497244E-01  0.23562233703E-01  0.00000000000E+00 0.  1.
     999901    1    3    3    0    0 -0.79063523113E-01  0.12399322603E-01  0.12088122625E+00  0.89186156703E+00  0.88000000000E+00 0. -1.
        -11    1    4    4    0    0  0.12178977156E-02 -0.26978022045E-02 -0.98759100213E-02  0.10322602934E-01  0.51100000000E-03 0.  1.
         11    1    4    4    0    0  0.67441415379E-01  0.60131010318E-02 -0.96863818985E-01  0.11818359633E+00  0.51100000000E-03 0. -1.
</event>
<event>
 8    1  0.1088021E+005  0.1043930E+01  0.7957747E-01            NaN
         13   -1    0    0    0    0  0.00000000000E+00  0.00000000000E+00  0.74505805969E-08  0.10566000000E+00  0.10566000000E+00 0. -1.
     999900   -1    0    0    0    0 -0.00000000000E+00 -0.00000000000E+00 -0.74505805969E-08  0.93827000000E+00  0.93827000000E+00 0. -1.
     999902    2    1    2    0    0 -0.14512391151E-02 -0.39555275700E-02  0.23194234742E-01  0.10203561836E+01  0.10200838282E+01 0.  0.
     999903    2    3    3    0    0 -0.88192285611E-01  0.92881582303E-01  0.17665350125E-01  0.13078774693E+00  0.19710468774E-01 0.  0.
         14    1    1    2    0    0  0.14512391151E-02  0.39555275700E-02 -0.23194234742E-01  0.23573816377E-01  0.00000000000E+00 0.  1.
     999901    1    3    3    0    0  0.86741046496E-01 -0.96837109873E-01  0.55288846173E-02  0.88956843669E+00  0.88000000000E+00 0. -1.
        -11    1    4    4    0    0 -0.49168317069E-01  0.62353320986E-01  0.17133132116E-01  0.81235862638E-01  0.51100000000E-03 0.  1.
         11    1    4    4    0    0 -0.39023968542E-01  0.30528261318E-01  0.53221800873E-03  0.49551884292E-01  0.51100000000E-03 0. -1.
</event>
<event>
 8    1  0.1088021E+005  0.1043930E+01  0.7957747E-01            NaN
         13   -1    0    0    0    0  0.00000000000E+00  0.00000000000E+00  0.74505805969E-08  0.10566000000E+00  0.10566000000E+00 0.  1.
     999900   -1    0    0    0    0 -0.00000000000E+00 -0.00000000000E+00 -0.74505805969E-08  0.93827000000E+00  0.93827000000E+00 0. -1.
     999902    2    1    2    0    0  0.48114793289E-02  0.12813144349E-01 -0.19219182820E-01  0.10203354246E+01  0.10200625837E+01 0.  0.
     999903    2    3    3    0    0 -0.11421639201E+00  0.21384518752E-01  0.52745810812E-01  0.12936962112E+00  0.21253151845E-01 0.  0.
         14    1    1    2    0    0 -0.48114793289E-02 -0.12813144349E-01  0.19219182820E-01  0.23594575430E-01  0.00000000000E+00 0.  1.
     999901    1    3    3    0    0  0.11902787134E+00 -0.85713744032E-02 -0.71964993633E-01  0.89096580345E+00  0.88000000000E+00 0. -1.
        -11    1    4    4    0    0 -0.89215805548E-01  0.12897902744E-01  0.31543021514E-01  0.95504131754E-01  0.51100000000E-03 0. -1.
         11    1    4    4    0    0 -0.25000586463E-01  0.84866160084E-02  0.21202789298E-01  0.33865489363E-01  0.51100000000E-03 0.  1.
</event>
<event>
 8    1  0.1088021E+005  0.1043930E+01  0.7957747E-01            NaN
         13   -1    0    0    0    0  0.00000000000E+00  0.00000000000E+00  0.74505805969E-08  0.10566000000E+00  0.10566000000E+00 0.  1.
     999900   -1    0    0    0    0 -0.00000000000E+00 -0.00000000000E+00 -0.74505805969E-08  0.93827000000E+00  0.93827000000E+00 0.  1.
     999902    2    1    2    0    0 -0.13562678907E-01  0.12557883402E-02  0.18959539120E-01  0.10205850351E+01  0.10203180026E+01 0.  0.
     999903    2    3    3    0    0 -0.86310058081E-01 -0.50892255741E-01  0.85420912982E-01  0.13355137512E+00  0.22355974652E-01 0.  0.
         14    1    1    2    0    0  0.13562678907E-01 -0.12557883402E-02 -0.18959539120E-01  0.23344964921E-01  0.00000000000E+00 0. -1.
     999901    1    3    3    0    0  0.72747379173E-01  0.52148044081E-01 -0.66461373862E-01  0.88703365996E+00  0.88000000000E+00 0.  1.
        -11    1    4    4    0    0 -0.15700563709E-01 -0.71350552413E-03  0.17058242072E-01  0.23200464101E-01  0.51100000000E-03 0. -1.
         11    1    4    4    0    0 -0.70609494372E-01 -0.50178750216E-01  0.68362670910E-01  0.11035091102E+00  0.51100000000E-03 0.  1.
</event>
<event>
 8    1  0.1088021E+005  0.1043930E+01  0.7957747E-01            NaN
         13   -1    0    0    0    0  0.00000000000E+00  0.00000000000E+00  0.74505805969E-08  0.10566000000E+00  0.10566000000E+00 0.  1.
     999900   -1    0    0    0    0 -0.00000000000E+00 -0.00000000000E+00 -0.74505805969E-08  0.93827000000E+00  0.93827000000E+00 0. -1.
     999902    2    1    2    0    0 -0.42121448785E-03 -0.19536826071E-01 -0.13598165950E-01  0.10201229609E+01  0.10198451256E+01 0.  0.
     999903    2    3    3    0    0 -0.55335329641E-01 -0.72379514174E-01 -0.95047683648E-01  0.13308184928E+00  0.19388750937E-01 0.  0.
         14    1    1    2    0    0  0.42121448785E-03  0.19536826071E-01  0.13598165950E-01  0.23807039122E-01  0.00000000000E+00 0.  1.
     999901    1    3    3    0    0  0.54914115153E-01  0.52842688103E-01  0.81449517699E-01  0.88704111160E+00  0.88000000000E+00 0.  1.
        -11    1    4    4    0    0 -0.35538838939E-01 -0.30599083320E-01 -0.48986287231E-01  0.67817626255E-01  0.51100000000E-03 0. -1.
         11    1    4    4    0    0 -0.19796490702E-01 -0.41780430854E-01 -0.46061396417E-01  0.65264223027E-01  0.51100000000E-03 0.  1.
</event>
<event>
 8    1  0.1088021E+005  0.1043930E+01  0.7957747E-01            NaN
         13   -1    0    0    0    0  0.00000000000E+00  0.00000000000E+00  0.74505805969E-08  0.10566000000E+00  0.10566000000E+00 0. -1.
     999900   -1    0    0    0    0 -0.00000000000E+00 -0.00000000000E+00 -0.74505805969E-08  0.93827000000E+00  0.93827000000E+00 0. -1.
     999902    2    1    2    0    0 -0.17612678015E-01  0.12509971110E-01 -0.17242330616E-01  0.10162893819E+01  0.10159134333E+01 0.  0.
     999903    2    3    3    0    0  0.47553391059E-01 -0.10402348630E+00  0.43761868666E-01  0.12413010487E+00  0.20272421730E-01 0.  0.
         14    1    1    2    0    0  0.17612678015E-01 -0.12509971110E-01  0.17242330616E-01  0.27640618103E-01  0.00000000000E+00 0. -1.
     999901    1    3    3    0    0 -0.65166069074E-01  0.11653345741E+00 -0.61004199282E-01  0.89215927703E+00  0.88000000000E+00 0. -1.
        -11    1    4    4    0    0  0.26614226707E-01 -0.70871901852E-01  0.20094535955E-01  0.78327485799E-01  0.51100000000E-03 0. -1.
         11    1    4    4    0    0  0.20939164352E-01 -0.33151584448E-01  0.23667332710E-01  0.45802619071E-01  0.51100000000E-03 0.  1.
</event>
<event>
 8    1  0.1088021E+005  0.1043930E+01  0.7957747E-01            NaN
         13   -1    0    0    0    0  0.00000000000E+00  0.00000000000E+00  0.74505805969E-08  0.10566000000E+00  0.10566000000E+00 0.  1.
     999900   -1    0    0    0    0 -0.00000000000E+00 -0.00000000000E+00 -0.74505805969E-08  0.93827000000E+00  0.93827000000E+00 0.  1.
     999902    2    1    2    0    0  0.25687652168E-05 -0.16701871716E-01 -0.17151300334E-01  0.10199900829E+01  0.10197091005E+01 0.  0.
     999903    2    3    3    0    0 -0.71172871363E-01  0.93521471032E-01 -0.50760136735E-01  0.12962797546E+00  0.20370993552E-01 0.  0.
         14    1    1    2    0    0 -0.25687652168E-05  0.16701871716E-01  0.17151300334E-01  0.23939917054E-01  0.00000000000E+00 0.  1.
     999901    1    3    3    0    0  0.71175440128E-01 -0.11022334275E+00  0.33608836401E-01  0.89036210749E+00  0.88000000000E+00 0. -1.
        -11    1    4    4    0    0 -0.22303477372E-01  0.42573040225E-01 -0.27054065758E-01  0.55155167046E-01  0.51100000000E-03 0. -1.
         11    1    4    4    0    0 -0.48869393991E-01  0.50948430806E-01 -0.23706070977E-01  0.74472808412E-01  0.51100000000E-03 0.  1.
</event>
<event>
 8    1  0.1088021E+005  0.1043930E+01  0.7957747E-01            NaN
         13   -1    0    0    0    0  0.00000000000E+00  0.00000000000E+00  0.74505805969E-08  0.10566000000E+00  0.10566000000E+00 0.  1.
     999900   -1    0    0    0    0 -0.00000000000E+00 -0.00000000000E+00 -0.74505805969E-08  0.93827000000E+00  0.93827000000E+00 0.  1.
     999902    2    1    2    0    0 -0.80717312649E-02  0.20934360143E-01 -0.51555734727E-02  0.10209087008E+01  0.10206491048E+01 0.  0.
     999903    2    3    3    0    0  0.12681585854E+00  0.21314473255E-01  0.10150641631E-01  0.13049919578E+00  0.19759449046E-01 0.  0.
         14    1    1    2    0    0  0.80717312649E-02 -0.20934360143E-01  0.51555734727E-02  0.23021299226E-01  0.00000000000E+00 0. -1.
     999901    1    3    3    0    0 -0.13488758980E+00 -0.38011311224E-03 -0.15306215104E-01  0.89040950500E+00  0.88000000000E+00 0. -1.
        -11    1    4    4    0    0  0.96371187795E-01  0.24470893599E-01  0.94522074907E-02  0.99879106013E-01  0.51100000000E-03 0. -1.
         11    1    4    4    0    0  0.30444670741E-01 -0.31564203433E-02  0.69843414035E-03  0.30620089764E-01  0.51100000000E-03 0.  1.
</event>
<event>
 8    1  0.1088021E+005  0.1043930E+01  0.7957747E-01            NaN
         13   -1    0    0    0    0  0.00000000000E+00  0.00000000000E+00  0.74505805969E-08  0.10566000000E+00  0.10566000000E+00 0. -1.
     999900   -1    0    0    0    0 -0.00000000000E+00 -0.00000000000E+00 -0.74505805969E-08  0.93827000000E+00  0.93827000000E+00 0.  1.
     999902    2    1    2    0    0  0.13655424077E-01 -0.18561873456E-01 -0.46797587848E-02  0.10204158788E+01  0.10201449171E+01 0.  0.
     999903    2    3    3    0    0  0.33322627942E-01 -0.70525978984E-01 -0.10567582418E+00  0.13289840158E+00  0.20255717225E-01 0.  0.
         14    1    1    2    0    0 -0.13655424077E-01  0.18561873456E-01  0.46797587848E-02  0.23514121187E-01  0.00000000000E+00 0. -1.
     999901    1    3    3    0    0 -0.19667203865E-01  0.51964105528E-01  0.10099606540E+00  0.88751747723E+00  0.88000000000E+00 0.  1.
        -11    1    4    4    0    0  0.17248553109E-01 -0.15328957148E-01 -0.29100108056E-01  0.37142521744E-01  0.51100000000E-03 0.  1.
         11    1    4    4    0    0  0.16074074833E-01 -0.55197021835E-01 -0.76575716129E-01  0.95755879835E-01  0.51100000000E-03 0. -1.
</event>
<event>
 8    1  0.1088021E+005  0.1043930E+01  0.7957747E-01            NaN
         13   -1    0    0    0    0  0.00000000000E+00  0.00000000000E+00  0.74505805969E-08  0.10566000000E+00  0.10566000000E+00 0.  1.
     999900   -1    0    0    0    0 -0.00000000000E+00 -0.00000000000E+00 -0.74505805969E-08  0.93827000000E+00  0.93827000000E+00 0. -1.
     999902    2    1    2    0    0 -0.19315156321E-01  0.12512245629E-01 -0.24582254743E-02  0.10207853586E+01  0.10205229414E+01 0.  0.
     999903    2    3    3    0    0 -0.11849023346E+00  0.54880457829E-01 -0.21708528995E-01  0.13399263447E+00  0.20759715436E-01 0.  0.
         14    1    1    2    0    0  0.19315156321E-01 -0.12512245629E-01  0.24582254743E-02  0.23144641429E-01  0.00000000000E+00 0.  1.
     999901    1    3    3    0    0  0.99175077138E-01 -0.42368212200E-01  0.19250303521E-01  0.88679272410E+00  0.88000000000E+00 0. -1.
        -11    1    4    4    0    0 -0.78241414209E-01  0.40028081301E-01 -0.52664423723E-02  0.88045231139E-01  0.51100000000E-03 0. -1.
         11    1    4    4    0    0 -0.40248819250E-01  0.14852376527E-01 -0.16442086623E-01  0.45947403333E-01  0.51100000000E-03 0.  1.
</event>
<event>
 8    1  0.1088021E+005  0.1043930E+01  0.7957747E-01            NaN
         13   -1    0    0    0    0  0.00000000000E+00  0.00000000000E+00  0.74505805969E-08  0.10566000000E+00  0.10566000000E+00 0. -1.
     999900   -1    0    0    0    0 -0.00000000000E+00 -0.00000000000E+00 -0.74505805969E-08  0.93827000000E+00  0.93827000000E+00 0.  1.
     999902    2    1    2    0    0 -0.27662835761E-01 -0.84773086792E-02 -0.66385901490E-02  0.10142455239E+01  0.10138110349E+01 0.  0.
     999903    2    3    3    0    0 -0.93584461225E-01  0.82710359870E-01  0.11219435291E-01  0.12690130616E+00  0.19468198819E-01 0.  0.
         14    1    1    2    0    0  0.27662835761E-01  0.84773086792E-02  0.66385901490E-02  0.29684476144E-01  0.00000000000E+00 0. -1.
     999901    1    3    3    0    0  0.65921625465E-01 -0.91187668549E-01 -0.17858025440E-01  0.88734421769E+00  0.88000000000E+00 0. -1.
        -11    1    4    4    0    0 -0.64085021517E-01  0.55759363704E-01  0.16676543230E-01  0.86569999646E-01  0.51100000000E-03 0.  1.
         11    1    4    4    0    0 -0.29499439708E-01  0.26950996166E-01 -0.54571079390E-02  0.40331306518E-01  0.51100000000E-03 0. -1.
</event>
<event>
 8    1  0.1088021E+005  0.1043930E+01  0.7957747E-01            NaN
         13   -1    0    0    0    0  0.00000000000E+00  0.00000000000E+00  0.74505805969E-08  0.10566000000E+00  0.10566000000E+00 0. -1.
     999900   -1    0    0    0    0 -0.00000000000E+00 -0.00000000000E+00 -0.74505805969E-08  0.93827000000E+00  0.93827000000E+00 0.  1.
     999902    2    1    2    0    0  0.19177718081E-01  0.17238989933E-02  0.95337490452E-02  0.10224439797E+01  0.10222181971E+01 0.  0.
     999903    2    3    3    0    0  0.20060420899E-01  0.10396660624E+00  0.79733216701E-01  0.13374700342E+00  0.17871748065E-01 0.  0.
         14    1    1    2    0    0 -0.19177718081E-01 -0.17238989933E-02 -0.95337490452E-02  0.21486020325E-01  0.00000000000E+00 0.  1.
     999901    1    3    3    0    0 -0.88270281845E-03 -0.10224270724E+00 -0.70199467656E-01  0.88869697626E+00  0.88000000000E+00 0. -1.
        -11    1    4    4    0    0  0.23946926911E-02  0.25641896619E-01  0.10833412199E-01  0.27943968154E-01  0.51100000000E-03 0.  1.
         11    1    4    4    0    0  0.17665728208E-01  0.78324709618E-01  0.68899804502E-01  0.10580303526E+00  0.51100000000E-03 0. -1.
</event>
<event>
 8    1  0.1088021E+005  0.1043930E+01  0.7957747E-01            NaN
         13   -1    0    0    0    0  0.00000000000E+00  0.00000000000E+00  0.74505805969E-08  0.10566000000E+00  0.10566000000E+00 0. -1.
     999900   -1    0    0    0    0 -0.00000000000E+00 -0.00000000000E+00 -0.74505805969E-08  0.93827000000E+00  0.93827000000E+00 0.  1.
     999902    2    1    2    0    0  0.56136248081E-02 -0.40884579650E-02 -0.22705059431E-01  0.10201866221E+01  0.10199102881E+01 0.  0.
     999903    2    3    3    0    0  0.34739231755E-01  0.12318693928E+00 -0.16863205870E-01  0.13053418713E+00  0.19312432944E-01 0.  0.
         14    1    1    2    0    0 -0.56136248081E-02  0.40884579650E-02  0.22705059431E-01  0.23743377935E-01  0.00000000000E+00 0. -1.
     999901    1    3    3    0    0 -0.29125606947E-01 -0.12727539725E+00 -0.58418535608E-02  0.88965243493E+00  0.88000000000E+00 0. -1.
        -11    1    4    4    0    0  0.78974746796E-02  0.44044820498E-01 -0.14092335712E-01  0.46916642738E-01  0.51100000000E-03 0.  1.
         11    1    4    4    0    0  0.26841757076E-01  0.79142118784E-01 -0.27708701581E-02  0.83617544397E-01  0.51100000000E-03 0. -1.
</event>
<event>
 8    1  0.1088021E+005  0.1043930E+01  0.7957747E-01            NaN
         13   -1    0    0    0    0  0.00000000000E+00  0.00000000000E+00  0.74505805969E-08  0.10566000000E+00  0.10566000000E+00 0. -1.
     999900   -1    0    0    0    0 -0.00000000000E+00 -0.00000000000E+00 -0.74505805969E-08  0.93827000000E+00  0.93827000000E+00 0. -1.
     999902    2    1    2    0    0  0.17600048113E-01  0.13769415095E-01  0.10007335046E-01  0.10194452039E+01  0.10191511264E+01 0.  0.
     999903    2    3    3    0    0  0.10862818203E+00  0.59144017544E-01  0.44445284378E-01  0.13291773784E+00  0.19840488593E-01 0.  0.
         14    1    1    2    0    0 -0.17600048113E-01 -0.13769415095E-01 -0.10007335046E-01  0.24484796106E-01  0.00000000000E+00 0. -1.
     999901    1    3    3    0    0 -0.91028133915E-01 -0.45374602449E-01 -0.34437949332E-01  0.88652746605E+00  0.88000000000E+00 0.  1.
        -11    1    4    4    0    0  0.42358187137E-01  0.22137880919E-01  0.27505758469E-01  0.55146438317E-01  0.51100000000E-03 0.  1.
         11    1    4    4    0    0  0.66269994891E-01  0.37006136624E-01  0.16939525910E-01  0.77771299524E-01  0.51100000000E-03 0. -1.
</event>
<event>
 8    1  0.1088021E+005  0.1043930E+01  0.7957747E-01            NaN
         13   -1    0    0    0    0  0.00000000000E+00  0.00000000000E+00  0.74505805969E-08  0.10566000000E+00  0.10566000000E+00 0. -1.
     999900   -1    0    0    0    0 -0.00000000000E+00 -0.00000000000E+00 -0.74505805969E-08  0.93827000000E+00  0.93827000000E+00 0. -1.
     999902    2    1    2    0    0  0.22884188865E-01 -0.12614443008E-01  0.50663029484E-02  0.10173127556E+01  0.10169644856E+01 0.  0.
     999903    2    3    3    0    0 -0.13107414582E-01 -0.12121218243E+00 -0.36570395505E-01  0.12893081120E+00  0.20531993617E-01 0.  0.
         14    1    1    2    0    0 -0.22884188865E-01  0.12614443008E-01 -0.50663029484E-02  0.26617244373E-01  0.00000000000E+00 0.  1.
     999901    1    3    3    0    0  0.35991603447E-01  0.10859773943E+00  0.41636698453E-01  0.88838194443E+00  0.88000000000E+00 0. -1.
        -11    1    4    4    0    0 -0.76415218367E-02 -0.10538607234E+00 -0.25026963389E-01  0.10858741693E+00  0.51100000000E-03 0.  1.
         11    1    4    4    0    0 -0.54658927451E-02 -0.15826110097E-01 -0.11543432116E-01  0.20343394267E-01  0.51100000000E-03 0. -1.
</event>
<event>
 8    1  0.1088021E+005  0.1043930E+01  0.7957747E-01            NaN
         13   -1    0    0    0    0  0.00000000000E+00  0.00000000000E+00  0.74505805969E-08  0.10566000000E+00  0.10566000000E+00 0. -1.
     999900   -1    0    0    0    0 -0.00000000000E+00 -0.00000000000E+00 -0.74505805969E-08  0.93827000000E+00  0.93827000000E+00 0.  1.
     999902    2    1    2    0    0 -0.23323438256E-01  0.19615120072E-04 -0.14095178783E-02  0.10205640013E+01  0.10202964818E+01 0.  0.
     999903    2    3    3    0    0  0.11174541806E+00 -0.45915770281E-01  0.37422588317E-01  0.12822909324E+00  0.21141282367E-01 0.  0.
         14    1    1    2    0    0  0.23323438256E-01 -0.19615120072E-04  0.14095178783E-02  0.23365998748E-01  0.00000000000E+00 0.  1.
     999901    1    3    3    0    0 -0.13506885632E+00  0.45935385402E-01 -0.38832106195E-01  0.89233490801E+00  0.88000000000E+00 0.  1.
        -11    1    4    4    0    0  0.52687618693E-01 -0.10356475219E-01  0.15579450033E-01  0.55912629404E-01  0.51100000000E-03 0. -1.
         11    1    4    4    0    0  0.59057799366E-01 -0.35559295062E-01  0.21843138284E-01  0.72316463840E-01  0.51100000000E-03 0.  1.
</event>
<event>
 8    1  0.1088021E+005  0.1043930E+01  0.7957747E-01            NaN
         13   -1    0    0    0    0  0.00000000000E+00  0.00000000000E+00  0.74505805969E-08  0.10566000000E+00  0.10566000000E+00 0. -1.
     999900   -1    0    0    0    0 -0.00000000000E+00 -0.00000000000E+00 -0.74505805969E-08  0.93827000000E+00  0.93827000000E+00 0.  1.
     999902    2    1    2    0    0 -0.51520848277E-02 -0.96114322385E-04  0.23248681910E-01  0.10201170954E+01  0.10198391216E+01 0.  0.
     999903    2    3    3    0    0  0.20996483279E-01 -0.55097721821E-01  0.11757017463E+00  0.13298380864E+00  0.19629980640E-01 0.  0.
         14    1    1    2    0    0  0.51520848277E-02  0.96114322385E-04 -0.23248681910E-01  0.23812904623E-01  0.00000000000E+00 0.  1.
     999901    1    3    3    0    0 -0.26148568107E-01  0.55001607498E-01 -0.94321492716E-01  0.88713328673E+00  0.88000000000E+00 0. -1.
        -11    1    4    4    0    0  0.21385771953E-01 -0.36150996247E-01  0.92154012685E-01  0.10127620128E+00  0.51100000000E-03 0. -1.
         11    1    4    4    0    0 -0.38928867443E-03 -0.18946725574E-01  0.25416161941E-01  0.31707607359E-01  0.51100000000E-03 0.  1.
</event>
<event>
 8    1  0.1088021E+005  0.1043930E+01  0.7957747E-01            NaN
         13   -1    0    0    0    0  0.00000000000E+00  0.00000000000E+00  0.74505805969E-08  0.10566000000E+00  0.10566000000E+00 0. -1.
     999900   -1    0    0    0    0 -0.00000000000E+00 -0.00000000000E+00 -0.74505805969E-08  0.93827000000E+00  0.93827000000E+00 0. -1.
     999902    2    1    2    0    0  0.17673939881E-01  0.14720507833E-01  0.75511139153E-03  0.10209162716E+01  0.10206568483E+01 0.  0.
     999903    2    3    3    0    0  0.12655824219E+00 -0.45632470578E-02 -0.36206756746E-01  0.13322610370E+00  0.20011336348E-01 0.  0.
         14    1    1    2    0    0 -0.17673939881E-01 -0.14720507833E-01 -0.75511139153E-03  0.23013728403E-01  0.00000000000E+00 0.  1.
     999901    1    3    3    0    0 -0.10888430231E+00  0.19283754890E-01  0.36961868137E-01  0.88769016790E+00  0.88000000000E+00 0. -1.
        -11    1    4    4    0    0  0.10698578738E+00  0.31155862868E-02 -0.32608554280E-01  0.11188942985E+00  0.51100000000E-03 0.  1.
         11    1    4    4    0    0  0.19572454806E-01 -0.76788333445E-02 -0.35982024651E-02  0.21336673842E-01  0.51100000000E-03 0. -1.
</event>
<event>
 8    1  0.1088021E+005  0.1043930E+01  0.7957747E-01            NaN
         13   -1    0    0    0    0  0.00000000000E+00  0.00000000000E+00  0.74505805969E-08  0.10566000000E+00  0.10566000000E+00 0. -1.
     999900   -1    0    0    0    0 -0.00000000000E+00 -0.00000000000E+00 -0.74505805969E-08  0.93827000000E+00  0.93827000000E+00 0.  1.
     999902    2    1    2    0    0 -0.14284840652E-01  0.14080512000E-01  0.14893589344E-01  0.10189472761E+01  0.10186409647E+01 0.  0.
     999903    2    3    3    0    0 -0.53912655831E-01  0.10425822268E+00 -0.54295477545E-01  0.13075275335E+00  0.19285543088E-01 0.  0.
         14    1    1    2    0    0  0.14284840652E-01 -0.14080512000E-01 -0.14893589344E-01  0.24982723914E-01  0.00000000000E+00 0.  1.
     999901    1    3    3    0    0  0.39627815180E-01 -0.90177710678E-01  0.69189066889E-01  0.88819452273E+00  0.88000000000E+00 0.  1.
        -11    1    4    4    0    0 -0.74619407378E-02  0.26635045719E-01 -0.64068464473E-02  0.28397447464E-01  0.51100000000E-03 0.  1.
         11    1    4    4    0    0 -0.46450715094E-01  0.77623176959E-01 -0.47888631097E-01  0.10235530589E+00  0.51100000000E-03 0. -1.
</event>
<event>
 8    1  0.1088021E+005  0.1043930E+01  0.7957747E-01            NaN
         13   -1    0    0    0    0  0.00000000000E+00  0.00000000000E+00  0.74505805969E-08  0.10566000000E+00  0.10566000000E+00 0.  1.
     999900   -1    0    0    0    0 -0.00000000000E+00 -0.00000000000E+00 -0.74505805969E-08  0.93827000000E+00  0.93827000000E+00 0. -1.
     999902    2    1    2    0    0  0.23995755287E-01  0.73559493477E-03 -0.25712861468E-02  0.10197856656E+01  0.10194998062E+01 0.  0.
     999903    2    3    3    0    0 -0.10608632461E+00 -0.60323633322E-01 -0.31654926221E-01  0.12765594689E+00  0.20018926460E-01 0.  0.
         14    1    1    2    0    0 -0.23995755287E-01 -0.73559493477E-03  0.25712861468E-02  0.24144334411E-01  0.00000000000E+00 0. -1.
     999901    1    3    3    0    0  0.13008207989E+00  0.61059228256E-01  0.29083640075E-01  0.89212971870E+00  0.88000000000E+00 0. -1.
        -11    1    4    4    0    0 -0.20769215014E-01 -0.18627353732E-01 -0.11986010530E-02  0.27929131115E-01  0.51100000000E-03 0.  1.
         11    1    4    4    0    0 -0.85317109593E-01 -0.41696279590E-01 -0.30456325168E-01  0.99726815776E-01  0.51100000000E-03 0. -1.
</event>
<event>
 8    1  0.1088021E+005  0.1043930E+01  0.7957747E-01            NaN
         13   -1    0    0    0    0  0.00000000000E+00  0.00000000000E+00  0.74505805969E-08  0.10566000000E+00  0.10566000000E+00 0.  1.
     999900   -1    0    0    0    0 -0.00000000000E+00 -0.00000000000E+00 -0.74505805969E-08  0.93827000000E+00  0.93827000000E+00 0. -1.
     999902    2    1    2    0    0 -0.19242806458E-01  0.13462782584E-01  0.33475418417E-02  0.10202078974E+01  0.10199320643E+01 0.  0.
     999903    2    3    3    0    0  0.99891039468E-01 -0.15189702171E-01 -0.76734771096E-01  0.12811652598E+00  0.17795289117E-01 0.  0.
         14    1    1    2    0    0  0.19242806458E-01 -0.13462782584E-01 -0.33475418417E-02  0.23722102598E-01  0.00000000000E+00 0. -1.
     999901    1    3    3    0    0 -0.11913384593E+00  0.28652484755E-01  0.80082312937E-01  0.89209137143E+00  0.88000000000E+00 0. -1.
        -11    1    4    4    0    0  0.87333139620E-01 -0.15751282574E-01 -0.59765633131E-01  0.10699239320E+00  0.51100000000E-03 0.  1.
         11    1    4    4    0    0  0.12557899848E-01  0.56158040274E-03 -0.16969137964E-01  0.21124132773E-01  0.51100000000E-03 0. -1.
</event>
<event>
 8    1  0.1088021E+005  0.1043930E+01  0.7957747E-01            NaN
         13   -1    0    0    0    0  0.00000000000E+00  0.00000000000E+00  0.74505805969E-08  0.10566000000E+00  0.10566000000E+00 0. -1.
     999900   -1    0    0    0    0 -0.00000000000E+00 -0.00000000000E+00 -0.74505805969E-08  0.93827000000E+00  0.93827000000E+00 0. -1.
     999902    2    1    2    0    0  0.22815544248E-02  0.23670122209E-01  0.74950614013E-02  0.10189969673E+01  0.10186918882E+01 0.  0.
     999903    2    3    3    0    0  0.36551585112E-01  0.66959427149E-01  0.10550275219E+00  0.13183638069E+00  0.20746500767E-01 0.  0.
         14    1    1    2    0    0 -0.22815544248E-02 -0.23670122209E-01 -0.74950614013E-02  0.24933032735E-01  0.00000000000E+00 0.  1.
     999901    1    3    3    0    0 -0.34270030688E-01 -0.43289304941E-01 -0.98007690789E-01  0.88716058658E+00  0.88000000000E+00 0. -1.
        -11    1    4    4    0    0  0.11281695514E-01  0.86582897962E-02  0.11137619917E-01  0.18070703757E-01  0.51100000000E-03 0.  1.
         11    1    4    4    0    0  0.25269889599E-01  0.58301137353E-01  0.94365132274E-01  0.11376567693E+00  0.51100000000E-03 0. -1.
</event>
<event>
 8    1  0.1088021E+005  0.1043930E+01  0.7957747E-01            NaN
         13   -1    0    0    0    0  0.00000000000E+00  0.00000000000E+00  0.74505805969E-08  0.10566000000E+00  0.10566000000E+00 0.  1.
     999900   -1    0    0    0    0 -0.00000000000E+00 -0.00000000000E+00 -0.74505805969E-08  0.93827000000E+00  0.93827000000E+00 0.  1.
     999902    2    1    2    0    0  0.18704466180E-01  0.17542204865E-01 -0.25201939228E-02  0.10181630176E+01  0.10178369186E+01 0.  0.
     999903    2    3    3    0    0 -0.53825163769E-01 -0.71822508299E-01 -0.87079092273E-01  0.12664924511E+00  0.20041008525E-01 0.  0.
         14    1    1    2    0    0 -0.18704466180E-01 -0.17542204865E-01  0.25201939228E-02  0.25766982439E-01  0.00000000000E+00 0.  1.
     999901    1    3    3    0    0  0.72529629949E-01  0.89364713164E-01  0.84558898351E-01  0.89151377245E+00  0.88000000000E+00 0. -1.
        -11    1    4    4    0    0 -0.54089462052E-01 -0.63259531526E-01 -0.80924818564E-01  0.11608843876E+00  0.51100000000E-03 0.  1.
         11    1    4    4    0    0  0.26429828316E-03 -0.85629767733E-02 -0.61542737098E-02  0.10560806347E-01  0.51100000000E-03 0. -1.
</event>
<event>
 8    1  0.1088021E+005  0.1043930E+01  0.7957747E-01            NaN
         13   -1    0    0    0    0  0.00000000000E+00  0.00000000000E+00  0.74505805969E-08  0.10566000000E+00  0.10566000000E+00 0. -1.
     999900   -1    0    0    0    0 -0.00000000000E+00 -0.00000000000E+00 -0.74505805969E-08  0.93827000000E+00  0.93827000000E+00 0.  1.
     999902    2    1    2    0    0 -0.77316801256E-02  0.21371590845E-01  0.76600190577E-02  0.10199466794E+01  0.10196646651E+01 0.  0.
     999903    2    3    3    0    0  0.53601939810E-01  0.19873793805E-01 -0.11428329347E+00  0.12942198703E+00  0.20524227874E-01 0.  0.
         14    1    1    2    0    0  0.77316801256E-02 -0.21371590845E-01 -0.76600190577E-02  0.23983320554E-01  0.00000000000E+00 0.  1.
     999901    1    3    3    0    0 -0.61333619935E-01  0.14977970399E-02  0.12194331253E+00  0.89052469241E+00  0.88000000000E+00 0.  1.
        -11    1    4    4    0    0  0.32986935024E-01  0.46271049862E-02 -0.79573920216E-01  0.86265971752E-01  0.51100000000E-03 0. -1.
         11    1    4    4    0    0  0.20615004786E-01  0.15246688819E-01 -0.34709373252E-01  0.43156015280E-01  0.51100000000E-03 0.  1.
</event>
<event>
 8    1  0.1088021E+005  0.1043930E+01  0.7957747E-01            NaN
         13   -1    0    0    0    0  0.00000000000E+00  0.00000000000E+00  0.74505805969E-08  0.10566000000E+00  0.10566000000E+00 0.  1.
     999900   -1    0    0    0    0 -0.00000000000E+00 -0.00000000000E+00 -0.74505805969E-08  0.93827000000E+00  0.93827000000E+00 0.  1.
     999902    2    1    2    0    0 -0.18540691419E-02 -0.10609451650E-01 -0.20859754411E-01  0.10204538975E+01  0.10201838214E+01 0.  0.
     999903    2    3    3    0    0 -0.68384473321E-01 -0.59745114275E-01 -0.95719366008E-01  0.13341130013E+00  0.19760139210E-01 0.  0.
         14    1    1    2    0    0  0.18540691419E-02  0.10609451650E-01  0.20859754411E-01  0.23476102547E-01  0.00000000000E+00 0.  1.
     999901    1    3    3    0    0  0.66530404179E-01  0.49135662625E-01  0.74859611597E-01  0.88704259733E+00  0.88000000000E+00 0. -1.
        -11    1    4    4    0    0 -0.41264347701E-01 -0.26948432491E-01 -0.41148782096E-01  0.64206290922E-01  0.51100000000E-03 0. -1.
         11    1    4    4    0    0 -0.27120125620E-01 -0.32796681784E-01 -0.54570583912E-01  0.69205009206E-01  0.51100000000E-03 0.  1.
</event>
<event>
 8    1  0.1088021E+005  0.1043930E+01  0.7957747E-01            NaN
         13   -1    0    0    0    0  0.00000000000E+00  0.00000000000E+00  0.74505805969E-08  0.10566000000E+00  0.10566000000E+00 0.  1.
     999900   -1    0    0    0    0 -0.00000000000E+00 -0.00000000000E+00 -0.74505805969E-08  0.93827000000E+00  0.93827000000E+00 0.  1.
     999902    2    1    2    0    0 -0.69482768966E-02 -0.15716094777E-01 -0.16709737479E-01  0.10199614891E+01  0.10196798271E+01 0.  0.
     999903    2    3    3    0    0  0.11388200534E-01  0.91769846354E-01 -0.89712726346E-01  0.13023181651E+00  0.18988337282E-01 0.  0.
         14    1    1    2    0    0  0.69482768966E-02  0.15716094777E-01  0.16709737479E-01  0.23968510873E-01  0.00000000000E+00 0.  1.
     999901    1    3    3    0    0 -0.18336477430E-01 -0.10748594113E+00  0.73002988867E-01  0.88972967261E+00  0.88000000000E+00 0. -1.
        -11    1    4    4    0    0  0.12401541182E-01  0.69556931867E-01 -0.57549873060E-01  0.91127460212E-01  0.51100000000E-03 0. -1.
         11    1    4    4    0    0 -0.10133406485E-02  0.22212914487E-01 -0.32162853285E-01  0.39104356301E-01  0.51100000000E-03 0.  1.
</event>
<event>
 8    1  0.1088021E+005  0.1043930E+01  0.7957747E-01            NaN
         13   -1    0    0    0    0  0.00000000000E+00  0.00000000000E+00  0.74505805969E-08  0.10566000000E+00  0.10566000000E+00 0. -1.
     999900   -1    0    0    0    0 -0.00000000000E+00 -0.00000000000E+00 -0.74505805969E-08  0.93827000000E+00  0.93827000000E+00 0. -1.
     999902    2    1    2    0    0 -0.74810454492E-02 -0.10924382971E-01  0.17936867883E-01  0.10216356192E+01  0.10213923336E+01 0.  0.
     999903    2    3    3    0    0 -0.23297611450E-01 -0.72754240650E-01 -0.10431995065E+00  0.13089445327E+00  0.20365351971E-01 0.  0.
         14    1    1    2    0    0  0.74810454492E-02  0.10924382971E-01 -0.17936867883E-01  0.22294380766E-01  0.00000000000E+00 0.  1.
     999901    1    3    3    0    0  0.15816566001E-01  0.61829857679E-01  0.12225681854E+00  0.89074116596E+00  0.88000000000E+00 0.  1.
        -11    1    4    4    0    0 -0.26380395077E-01 -0.57735444757E-01 -0.87881363249E-01  0.10840987941E+00  0.51100000000E-03 0. -1.
         11    1    4    4    0    0  0.30827836263E-02 -0.15018795892E-01 -0.16438587405E-01  0.22484573863E-01  0.51100000000E-03 0.  1.
</event>
<event>
 8    1  0.1088021E+005  0.1043930E+01  0.7957747E-01            NaN
         13   -1    0    0    0    0  0.00000000000E+00  0.00000000000E+00  0.74505805969E-08  0.10566000000E+00  0.10566000000E+00 0.  1.
     999900   -1    0    0    0    0 -0.00000000000E+00 -0.00000000000E+00 -0.74505805969E-08  0.93827000000E+00  0.93827000000E+00 0.  1.
     999902    2    1    2    0    0 -0.12347962773E-01  0.52332531075E-02 -0.19987681758E-01  0.10198599658E+01  0.10195758841E+01 0.  0.
     999903    2    3    3    0    0  0.87961386474E-01 -0.47238516119E-01  0.76530478090E-01  0.12737410752E+00  0.19964124662E-01 0.  0.
         14    1    1    2    0    0  0.12347962773E-01 -0.52332531075E-02  0.19987681758E-01  0.24070034167E-01  0.00000000000E+00 0.  1.
     999901    1    3    3    0    0 -0.10030934925E+00  0.52471769226E-01 -0.96518159849E-01  0.89248585832E+00  0.88000000000E+00 0.  1.
        -11    1    4    4    0    0  0.63047508354E-01 -0.42756569767E-01  0.61695695127E-01  0.98029243015E-01  0.51100000000E-03 0. -1.
         11    1    4    4    0    0  0.24913878120E-01 -0.44819463519E-02  0.14834782963E-01  0.29344864502E-01  0.51100000000E-03 0.  1.
</event>
<event>
 8    1  0.1088021E+005  0.1043930E+01  0.7957747E-01            NaN
         13   -1    0    0    0    0  0.00000000000E+00  0.00000000000E+00  0.74505805969E-08  0.10566000000E+00  0.10566000000E+00 0. -1.
     999900   -1    0    0    0    0 -0.00000000000E+00 -0.00000000000E+00 -0.74505805969E-08  0.93827000000E+00  0.93827000000E+00 0.  1.
     999902    2    1    2    0    0  0.17398883528E-01  0.15477861830E-01  0.47990415701E-02  0.10201536219E+01  0.10198765102E+01 0.  0.
     999903    2    3    3    0    0 -0.53983791692E-01 -0.85157487585E-01 -0.76450814674E-01  0.12783949616E+00  0.18225319151E-01 0.  0.
         14    1    1    2    0    0 -0.17398883528E-01 -0.15477861830E-01 -0.47990415701E-02  0.23776378085E-01  0.00000000000E+00 0. -1.
     999901    1    3    3    0    0  0.71382675220E-01  0.10063534942E+00  0.81249856244E-01  0.89231412575E+00  0.88000000000E+00 0. -1.
        -11    1    4    4    0    0 -0.50886086210E-01 -0.77365554420E-01 -0.63068417719E-01  0.11203887368E+00  0.51100000000E-03 0. -1.
         11    1    4    4    0    0 -0.30977054816E-02 -0.77919331649E-02 -0.13382396956E-01  0.15800622487E-01  0.51100000000E-03 0.  1.
</event>
<event>
 8    1  0.1088021E+005  0.1043930E+01  0.7957747E-01            NaN
         13   -1    0    0    0    0  0.00000000000E+00  0.00000000000E+00  0.74505805969E-08  0.10566000000E+00  0.10566000000E+00 0.  1.
     999900   -1    0    0    0    0 -0.00000000000E+00 -0.00000000000E+00 -0.74505805969E-08  0.93827000000E+00  0.93827000000E+00 0. -1.
     999902    2    1    2    0    0  0.58627325830E-03  0.22979303011E-01  0.65259416192E-02  0.10200348123E+01  0.10197548912E+01 0.  0.
     999903    2    3    3    0    0 -0.62571510816E-01  0.10337168831E+00  0.51666799752E-01  0.13296686764E+00  0.20244253091E-01 0.  0.
         14    1    1    2    0    0 -0.58627325830E-03 -0.22979303011E-01 -0.65259416192E-02  0.23895187742E-01  0.00000000000E+00 0. -1.
     999901    1    3    3    0    0  0.63157784074E-01 -0.80392385296E-01 -0.45140858133E-01  0.88706794462E+00  0.88000000000E+00 0. -1.
        -11    1    4    4    0    0 -0.58922190289E-01  0.82934007405E-01  0.43696032770E-01  0.11072252930E+00  0.51100000000E-03 0.  1.
         11    1    4    4    0    0 -0.36493205269E-02  0.20437680902E-01  0.79707669823E-02  0.22244338341E-01  0.51100000000E-03 0. -1.
</event>
<event>
 8    1  0.1088021E+005  0.1043930E+01  0.7957747E-01            NaN
         13   -1    0    0    0    0  0.00000000000E+00  0.00000000000E+00  0.74505805969E-08  0.10566000000E+00  0.10566000000E+00 0.  1.
     999900   -1    0    0    0    0 -0.00000000000E+00 -0.00000000000E+00 -0.74505805969E-08  0.93827000000E+00  0.93827000000E+00 0.  1.
     999902    2    1    2    0    0 -0.85897403097E-02  0.21555581714E-02 -0.21892763149E-01  0.10203138371E+01  0.10200404909E+01 0.  0.
     999903    2    3    3    0    0 -0.65953473443E-01 -0.11128207801E+00  0.19445549868E-03  0.13090586529E+00  0.20068537789E-01 0.  0.
         14    1    1    2    0    0  0.85897403097E-02 -0.21555581714E-02  0.21892763149E-01  0.23616162853E-01  0.00000000000E+00 0.  1.
     999901    1    3    3    0    0  0.57363733134E-01  0.11343763618E+00 -0.22087218647E-01  0.88940797186E+00  0.88000000000E+00 0. -1.
        -11    1    4    4    0    0 -0.16911332194E-01 -0.14279083007E-01 -0.15698758666E-02  0.22194841728E-01  0.51100000000E-03 0.  1.
         11    1    4    4    0    0 -0.49042141250E-01 -0.97002994999E-01  0.17643313653E-02  0.10871102356E+00  0.51100000000E-03 0. -1.
</event>
<event>
 8    1  0.1088021E+005  0.1043930E+01  0.7957747E-01            NaN
         13   -1    0    0    0    0  0.00000000000E+00  0.00000000000E+00  0.74505805969E-08  0.10566000000E+00  0.10566000000E+00 0. -1.
     999900   -1    0    0    0    0 -0.00000000000E+00 -0.00000000000E+00 -0.74505805969E-08  0.93827000000E+00  0.93827000000E+00 0.  1.
     999902    2    1    2    0    0 -0.12225989540E-01  0.89403110687E-02  0.19231914447E-01  0.10194499976E+01  0.10191560367E+01 0.  0.
     999903    2    3    3    0    0  0.41226168356E-01 -0.68136984340E-01 -0.96964549049E-01  0.12686965908E+00  0.18749427485E-01 0.  0.
         14    1    1    2    0    0  0.12225989540E-01 -0.89403110687E-02 -0.19231914447E-01  0.24480002360E-01  0.00000000000E+00 0.  1.
     999901    1    3    3    0    0 -0.53452157896E-01  0.77077295409E-01  0.11619646350E+00  0.89258033856E+00  0.88000000000E+00 0. -1.
        -11    1    4    4    0    0  0.38462563689E-01 -0.58124698038E-01 -0.91790005218E-01  0.11525413444E+00  0.51100000000E-03 0. -1.
         11    1    4    4    0    0  0.27636046664E-02 -0.10012286302E-01 -0.51745438308E-02  0.11615524638E-01  0.51100000000E-03 0.  1.
</event>
<event>
 8    1  0.1088021E+005  0.1043930E+01  0.7957747E-01            NaN
         13   -1    0    0    0    0  0.00000000000E+00  0.00000000000E+00  0.74505805969E-08  0.10566000000E+00  0.10566000000E+00 0. -1.
     999900   -1    0    0    0    0 -0.00000000000E+00 -0.00000000000E+00 -0.74505805969E-08  0.93827000000E+00  0.93827000000E+00 0.  1.
     999902    2    1    2    0    0  0.25400657320E-01  0.28953635764E-02  0.24150659549E-02  0.10182510385E+01  0.10179271920E+01 0.  0.
     999903    2    3    3    0    0 -0.65012335615E-01  0.96253775342E-01 -0.48792229469E-01  0.12723336779E+00  0.17783564655E-01 0.  0.
         14    1    1    2    0    0 -0.25400657320E-01 -0.28953635764E-02 -0.24150659549E-02  0.25678961546E-01  0.00000000000E+00 0. -1.
     999901    1    3    3    0    0  0.90412992935E-01 -0.93358411765E-01  0.51207295424E-01  0.89101767067E+00  0.88000000000E+00 0.  1.
        -11    1    4    4    0    0 -0.38775462366E-01  0.45974195044E-01 -0.31758887528E-01  0.68015080310E-01  0.51100000000E-03 0.  1.
         11    1    4    4    0    0 -0.26236873249E-01  0.50279580298E-01 -0.17033341942E-01  0.59218287475E-01  0.51100000000E-03 0. -1.
</event>
<event>
 8    1  0.1108950E+005  0.1043930E+01  0.7957747E-01            NaN
         13   -1    0    0    0    0  0.00000000000E+00  0.00000000000E+00  0.74505805969E-08  0.10566000000E+00  0.10566000000E+00 0. -1.
     999900   -1    0    0    0    0 -0.00000000000E+00 -0.00000000000E+00 -0.74505805969E-08  0.93827000000E+00  0.93827000000E+00 0. -1.
     999902    2    1    2    0    0 -0.19134823494E-01 -0.58943291655E-02  0.12539277094E-01  0.10203054776E+01  0.10200319356E+01 0.  0.
     999903    2    3    3    0    0 -0.12000256660E+00  0.28201571063E-01 -0.43578397389E-01  0.13211291665E+00  0.18942054443E-01 0.  0.
         14    1    1    2    0    0  0.19134823494E-01  0.58943291655E-02 -0.12539277094E-01  0.23624522355E-01  0.00000000000E+00 0. -1.
     999901    1    3    3    0    0  0.10086774311E+00 -0.34095900228E-01  0.56117674483E-01  0.88819256099E+00  0.88000000000E+00 0.  1.
        -11    1    4    4    0    0 -0.52357826963E-01  0.21960774201E-01 -0.19221361453E-01  0.59944470178E-01  0.51100000000E-03 0.  1.
         11    1    4    4    0    0 -0.67644739638E-01  0.62407968618E-02 -0.24357035936E-01  0.72168446476E-01  0.51100000000E-03 0. -1.
</event>
<event>
 8    1  0.1088021E+005  0.1043930E+01  0.7957747E-01            NaN
         13   -1    0    0    0    0  0.00000000000E+00  0.00000000000E+00  0.74505805969E-08  0.10566000000E+00  0.10566000000E+00 0. -1.
     999900   -1    0    0    0    0 -0.00000000000E+00 -0.00000000000E+00 -0.74505805969E-08  0.93827000000E+00  0.93827000000E+00 0. -1.
     999902    2    1    2    0    0 -0.14303665143E-01 -0.10706533644E-01  0.15569244078E-01  0.10202313490E+01  0.10199560674E+01 0.  0.
     999903    2    3    3    0    0  0.12609576527E+00 -0.12038037417E-01  0.13656533210E-01  0.12909868128E+00  0.20854549770E-01 0.  0.
         14    1    1    2    0    0  0.14303665143E-01  0.10706533644E-01 -0.15569244078E-01  0.23698651024E-01  0.00000000000E+00 0.  1.
     999901    1    3    3    0    0 -0.14039943041E+00  0.13315037730E-02  0.19127108674E-02  0.89113266769E+00  0.88000000000E+00 0.  1.
        -11    1    4    4    0    0  0.99738330505E-01 -0.16373039285E-01  0.15775791884E-01  0.10229832705E+00  0.51100000000E-03 0.  1.
         11    1    4    4    0    0  0.26357434766E-01  0.43350018675E-02 -0.21192586731E-02  0.26800354232E-01  0.51100000000E-03 0. -1.
</event>
<event>
 8    1  0.1088021E+005  0.1043930E+01  0.7957747E-01            NaN
         13   -1    0    0    0    0  0.00000000000E+00  0.00000000000E+00  0.74505805969E-08  0.10566000000E+00  0.10566000000E+00 0.  1.
     999900   -1    0    0    0    0 -0.00000000000E+00 -0.00000000000E+00 -0.74505805969E-08  0.93827000000E+00  0.93827000000E+00 0. -1.
     999902    2    1    2    0    0 -0.11428333251E-01 -0.20800763975E-01 -0.18795500482E-02  0.10201222010E+01  0.10198443478E+01 0.  0.
     999903    2    3    3    0    0  0.10505877025E+00 -0.54570906761E-01  0.50413139665E-01  0.13026592432E+00  0.20307567970E-01 0.  0.
         14    1    1    2    0    0  0.11428333251E-01  0.20800763975E-01  0.18795500482E-02  0.23807798958E-01  0.00000000000E+00 0.  1.
     999901    1    3    3    0    0 -0.11648710350E+00  0.33770142786E-01 -0.52292689713E-01  0.88985627672E+00  0.88000000000E+00 0. -1.
        -11    1    4    4    0    0  0.70153972436E-01 -0.35092086653E-01  0.22829351825E-01  0.81697459079E-01  0.51100000000E-03 0.  1.
         11    1    4    4    0    0  0.34904797813E-01 -0.19478820109E-01  0.27583787840E-01  0.48568465240E-01  0.51100000000E-03 0. -1.
</event>
<event>
 8    1  0.1088021E+005  0.1043930E+01  0.7957747E-01            NaN
         13   -1    0    0    0    0  0.00000000000E+00  0.00000000000E+00  0.74505805969E-08  0.10566000000E+00  0.10566000000E+00 0.  1.
     999900   -1    0    0    0    0 -0.00000000000E+00 -0.00000000000E+00 -0.74505805969E-08  0.93827000000E+00  0.93827000000E+00 0.  1.
     999902    2    1    2    0    0  0.20564227521E-01 -0.16135296777E-02  0.14836276890E-01  0.10185212211E+01  0.10182042388E+01 0.  0.
     999903    2    3    3    0    0 -0.98754231925E-01 -0.77046796500E-01  0.11482815902E-01  0.12726462609E+00  0.19386150179E-01 0.  0.
         14    1    1    2    0    0 -0.20564227521E-01  0.16135296777E-02 -0.14836276890E-01  0.25408778867E-01  0.00000000000E+00 0. -1.
     999901    1    3    3    0    0  0.11931845945E+00  0.75433266822E-01  0.33534609872E-02  0.89125659504E+00  0.88000000000E+00 0. -1.
        -11    1    4    4    0    0 -0.46158608178E-01 -0.44823943707E-01 -0.90340372897E-03  0.64349672087E-01  0.51100000000E-03 0. -1.
         11    1    4    4    0    0 -0.52595623747E-01 -0.32222852792E-01  0.12386219631E-01  0.62914954002E-01  0.51100000000E-03 0.  1.
</event>
<event>
 8    1  0.1088021E+005  0.1043930E+01  0.7957747E-01            NaN
         13   -1    0    0    0    0  0.00000000000E+00  0.00000000000E+00  0.74505805969E-08  0.10566000000E+00  0.10566000000E+00 0.  1.
     999900   -1    0    0    0    0 -0.00000000000E+00 -0.00000000000E+00 -0.74505805969E-08  0.93827000000E+00  0.93827000000E+00 0. -1.
     999902    2    1    2    0    0  0.43939871106E-02  0.21571896055E-01  0.65416191231E-02  0.10209637943E+01  0.10207054535E+01 0.  0.
     999903    2    3    3    0    0  0.74183522919E-01  0.19681439848E-01 -0.10455547002E+00  0.13123534343E+00  0.20007871100E-01 0.  0.
         14    1    1    2    0    0 -0.43939871106E-02 -0.21571896055E-01 -0.65416191231E-02  0.22966205671E-01  0.00000000000E+00 0. -1.
     999901    1    3    3    0    0 -0.69789535809E-01  0.18904562071E-02  0.11109708914E+00  0.88972845090E+00  0.88000000000E+00 0.  1.
        -11    1    4    4    0    0  0.40549880675E-01  0.90148539514E-02 -0.72512961346E-01  0.83570037087E-01  0.51100000000E-03 0.  1.
         11    1    4    4    0    0  0.33633642244E-01  0.10666585897E-01 -0.32042508672E-01  0.47665306338E-01  0.51100000000E-03 0. -1.
</event>
<event>
 8    1  0.1088021E+005  0.1043930E+01  0.7957747E-01            NaN
         13   -1    0    0    0    0  0.00000000000E+00  0.00000000000E+00  0.74505805969E-08  0.10566000000E+00  0.10566000000E+00 0. -1.
     999900   -1    0    0    0    0 -0.00000000000E+00 -0.00000000000E+00 -0.74505805969E-08  0.93827000000E+00  0.93827000000E+00 0.  1.
     999902    2    1    2    0    0  0.81973673653E-02  0.21652006689E-01 -0.18235030250E-02  0.10207064906E+01  0.10204422613E+01 0.  0.
     999903    2    3    3    0    0 -0.76433690012E-01  0.10330336774E+00  0.25370445916E-01  0.13246729338E+00  0.19754228210E-01 0.  0.
         14    1    1    2    0    0 -0.81973673653E-02 -0.21652006689E-01  0.18235030250E-02  0.23223509396E-01  0.00000000000E+00 0. -1.
     999901    1    3    3    0    0  0.84631057377E-01 -0.81651361054E-01 -0.27193948941E-01  0.88823919723E+00  0.88000000000E+00 0. -1.
        -11    1    4    4    0    0 -0.30572584910E-01  0.57589589548E-01  0.10781603750E-01  0.66088939111E-01  0.51100000000E-03 0. -1.
         11    1    4    4    0    0 -0.45861105102E-01  0.45713778195E-01  0.14588842167E-01  0.66378354264E-01  0.51100000000E-03 0.  1.
</event>
<event>
 8    1  0.1088021E+005  0.1043930E+01  0.7957747E-01            NaN
         13   -1    0    0    0    0  0.00000000000E+00  0.00000000000E+00  0.74505805969E-08  0.10566000000E+00  0.10566000000E+00 0. -1.
     999900   -1    0    0    0    0 -0.00000000000E+00 -0.00000000000E+00 -0.74505805969E-08  0.93827000000E+00  0.93827000000E+00 0.  1.
     999902    2    1    2    0    0 -0.44512502362E-02 -0.10753043282E-01 -0.19971506321E-01  0.10208150128E+01  0.10205532753E+01 0.  0.
     999903    2    3    3    0    0  0.28822301733E-01 -0.12338357946E+00  0.29495806840E-01  0.13163573841E+00  0.20093089543E-01 0.  0.
         14    1    1    2    0    0  0.44512502362E-02  0.10753043282E-01  0.19971506321E-01  0.23114987199E-01  0.00000000000E+00 0. -1.
     999901    1    3    3    0    0 -0.33273551969E-01  0.11263053618E+00 -0.49467313161E-01  0.88917927439E+00  0.88000000000E+00 0. -1.
        -11    1    4    4    0    0  0.10138458574E-02 -0.28442508102E-01  0.22804961093E-03  0.28466072405E-01  0.51100000000E-03 0. -1.
         11    1    4    4    0    0  0.27808455876E-01 -0.94941071358E-01  0.29267757229E-01  0.10316966600E+00  0.51100000000E-03 0.  1.
</event>
<event>
 7    1  0.1088021E+005  0.1043930E+01  0.7957747E-01            NaN
         13   -1    0    0    0    0  0.00000000000E+00  0.00000000000E+00  0.74505805969E-08  0.10566000000E+00  0.10566000000E+00 0.  1.
     999900   -1    0    0    0    0 -0.00000000000E+00 -0.00000000000E+00 -0.74505805969E-08  0.93827000000E+00  0.93827000000E+00 0. -1.
     999903    2    1    2    0    0 -0.45574663706E-01 -0.79212686765E-01 -0.55670121763E-01  0.10889203347E+00  0.20164641814E-01 0.  0.
         14    1    1    2    0    0  0.25104332257E-01 -0.27532463753E-01  0.30239745579E-01  0.47986521765E-01  0.00000000000E+00 0.  1.
     999901    1    1    2    0    0  0.20470331448E-01  0.10674515052E+00  0.25430376184E-01  0.88705144477E+00  0.88000000000E+00 0. -1.
        -11    1    3    3    0    0 -0.17952409230E-01 -0.25801648202E-01 -0.30182264346E-01  0.43580319517E-01  0.51100000000E-03 0. -1.
         11    1    3    3    0    0 -0.27622254476E-01 -0.53411038563E-01 -0.25487857417E-01  0.65311713952E-01  0.51100000000E-03 0.  1.
</event>
<event>
 7    1  0.1088021E+005  0.1043930E+01  0.7957747E-01            NaN
         13   -1    0    0    0    0  0.00000000000E+00  0.00000000000E+00  0.74505805969E-08  0.10566000000E+00  0.10566000000E+00 0.  1.
     999900   -1    0    0    0    0 -0.00000000000E+00 -0.00000000000E+00 -0.74505805969E-08  0.93827000000E+00  0.93827000000E+00 0. -1.
     999902    2    1    2    0    0 -0.15449271469E-01 -0.16029768527E-01  0.17794309501E-02  0.10215961727E+01  0.10213520158E+01 0.  0.
         14    1    1    2    0    0  0.15449271469E-01  0.16029768527E-01 -0.17794309501E-02  0.22333827313E-01  0.00000000000E+00 0. -1.
     999901    1    3    3    0    0  0.50456888374E-01  0.70827281879E-01 -0.66210685487E-01  0.88676166827E+00  0.88000000000E+00 0. -1.
        -11    1    3    3    0    0 -0.15401751190E-01 -0.10521229952E-01  0.30850821951E-01  0.36054743869E-01  0.51100000000E-03 0.  1.
         11    1    3    3    0    0 -0.50504408652E-01 -0.76335820454E-01  0.37139294487E-01  0.98779760547E-01  0.51100000000E-03 0. -1.
</event>
<event>
 8    1  0.1088021E+005  0.1043930E+01  0.7957747E-01            NaN
         13   -1    0    0    0    0  0.00000000000E+00  0.00000000000E+00  0.74505805969E-08  0.10566000000E+00  0.10566000000E+00 0. -1.
     999900   -1    0    0    0    0 -0.00000000000E+00 -0.00000000000E+00 -0.74505805969E-08  0.93827000000E+00  0.93827000000E+00 0. -1.
     999902    2    1    2    0    0 -0.93258637314E-02  0.10423719075E-01  0.19228827348E-01  0.10201524170E+01  0.10198752769E+01 0.  0.
     999903    2    3    3    0    0 -0.29492112093E-01 -0.12178672801E+00  0.28394799333E-01  0.13000057883E+00  0.19801365409E-01 0.  0.
         14    1    1    2    0    0  0.93258637314E-02 -0.10423719075E-01 -0.19228827348E-01  0.23777583033E-01  0.00000000000E+00 0.  1.
     999901    1    3    3    0    0  0.20166248362E-01  0.13221044709E+00 -0.91659719847E-02  0.89015183813E+00  0.88000000000E+00 0.  1.
        -11    1    4    4    0    0  0.93045336633E-03 -0.32510458000E-01  0.64088246351E-02  0.33153126203E-01  0.51100000000E-03 0. -1.
         11    1    4    4    0    0 -0.30422565460E-01 -0.89276270013E-01  0.21985974698E-01  0.96847452630E-01  0.51100000000E-03 0.  1.
</event>
<event>
 8    1  0.1088021E+005  0.1043930E+01  0.7957747E-01            NaN
         13   -1    0    0    0    0  0.00000000000E+00  0.00000000000E+00  0.74505805969E-08  0.10566000000E+00  0.10566000000E+00 0.  1.
     999900   -1    0    0    0    0 -0.00000000000E+00 -0.00000000000E+00 -0.74505805969E-08  0.93827000000E+00  0.93827000000E+00 0. -1.
     999902    2    1    2    0    0 -0.47002778824E-02  0.16147969109E-01  0.16523953371E-01  0.10203526687E+01  0.10200802311E+01 0.  0.
     999903    2    3    3    0    0 -0.41660111998E-02 -0.18346728298E-01 -0.12601691440E+00  0.12821586940E+00  0.14320906528E-01 0.  0.
         14    1    1    2    0    0  0.47002778824E-02 -0.16147969109E-01 -0.16523953371E-01  0.23577331348E-01  0.00000000000E+00 0. -1.
     999901    1    3    3    0    0 -0.53426668263E-03  0.34494697407E-01  0.14254086777E+00  0.89213679925E+00  0.88000000000E+00 0.  1.
        -11    1    4    4    0    0  0.41928696592E-02 -0.12742433892E-01 -0.64901567504E-01  0.66275367694E-01  0.51100000000E-03 0.  1.
         11    1    4    4    0    0 -0.83588808590E-02 -0.56042944062E-02 -0.61115346894E-01  0.61940501709E-01  0.51100000000E-03 0. -1.
</event>
<event>
 8    1  0.1088021E+005  0.1043930E+01  0.7957747E-01            NaN
         13   -1    0    0    0    0  0.00000000000E+00  0.00000000000E+00  0.74505805969E-08  0.10566000000E+00  0.10566000000E+00 0.  1.
     999900   -1    0    0    0    0 -0.00000000000E+00 -0.00000000000E+00 -0.74505805969E-08  0.93827000000E+00  0.93827000000E+00 0.  1.
     999902    2    1    2    0    0 -0.32636771493E-02 -0.37046199987E-02 -0.20434711445E-01  0.10229073163E+01  0.10226912655E+01 0.  0.
     999903    2    3    3    0    0  0.10299692367E+00  0.34538041733E-01  0.70627160229E-01  0.13102947661E+00  0.19475250128E-01 0.  0.
         14    1    1    2    0    0  0.32636771493E-02  0.37046199987E-02  0.20434711445E-01  0.21022683695E-01  0.00000000000E+00 0.  1.
     999901    1    3    3    0    0 -0.10626060082E+00 -0.38242661732E-01 -0.91061871674E-01  0.89187783969E+00  0.88000000000E+00 0.  1.
        -11    1    4    4    0    0  0.30770858291E-01  0.18767850366E-02  0.15784138635E-01  0.34637670180E-01  0.51100000000E-03 0.  1.
         11    1    4    4    0    0  0.72226065377E-01  0.32661256696E-01  0.54843021593E-01  0.96391806432E-01  0.51100000000E-03 0. -1.
</event>
<event>
 8    1  0.1088021E+005  0.1043930E+01  0.7957747E-01            NaN
         13   -1    0    0    0    0  0.00000000000E+00  0.00000000000E+00  0.74505805969E-08  0.10566000000E+00  0.10566000000E+00 0. -1.
     999900   -1    0    0    0    0 -0.00000000000E+00 -0.00000000000E+00 -0.74505805969E-08  0.93827000000E+00  0.93827000000E+00 0.  1.
     999902    2    1    2    0    0  0.14428595641E-01 -0.15953724295E-01  0.13531827759E-01  0.10185170888E+01  0.10182000021E+01 0.  0.
     999903    2    3    3    0    0  0.73026710561E-01 -0.34448651333E-01  0.10219912575E+00  0.13192942192E+00  0.21002405364E-01 0.  0.
         14    1    1    2    0    0 -0.14428595641E-01  0.15953724295E-01 -0.13531827759E-01  0.25412911159E-01  0.00000000000E+00 0. -1.
     999901    1    3    3    0    0 -0.58598114919E-01  0.18494927038E-01 -0.88667297991E-01  0.88658766692E+00  0.88000000000E+00 0.  1.
        -11    1    4    4    0    0  0.35309712450E-01 -0.27126205741E-01  0.61840972922E-01  0.76204815361E-01  0.51100000000E-03 0.  1.
         11    1    4    4    0    0  0.37716998110E-01 -0.73224455924E-02  0.40358152827E-01  0.55724606562E-01  0.51100000000E-03 0. -1.
</event>
<event>
 8    1  0.1088021E+005  0.1043930E+01  0.7957747E-01            NaN
         13   -1    0    0    0    0  0.00000000000E+00  0.00000000000E+00  0.74505805969E-08  0.10566000000E+00  0.10566000000E+00 0.  1.
     999900   -1    0    0    0    0 -0.00000000000E+00 -0.00000000000E+00 -0.74505805969E-08  0.93827000000E+00  0.93827000000E+00 0.  1.
     999902    2    1    2    0    0  0.19445197317E-01  0.61736908774E-02 -0.88860907573E-02  0.10216770729E+01  0.10214347010E+01 0.  0.
     999903    2    3    3    0    0  0.10639815269E+00 -0.64404743349E-01 -0.45011286496E-01  0.13384422733E+00  0.20487152421E-01 0.  0.
         14    1    1    2    0    0 -0.19445197317E-01 -0.61736908774E-02  0.88860907573E-02  0.22252927149E-01  0.00000000000E+00 0.  1.
     999901    1    3    3    0    0 -0.86952955375E-01  0.70578434226E-01  0.36125195739E-01  0.88783284553E+00  0.88000000000E+00 0. -1.
        -11    1    4    4    0    0  0.40547915294E-01 -0.14017634328E-01 -0.19165950506E-01  0.46991725725E-01  0.51100000000E-03 0. -1.
         11    1    4    4    0    0  0.65850237398E-01 -0.50387109021E-01 -0.25845335991E-01  0.86852501600E-01  0.51100000000E-03 0.  1.
</event>
<event>
 8    1  0.1088021E+005  0.1043930E+01  0.7957747E-01            NaN
         13   -1    0    0    0    0  0.00000000000E+00  0.00000000000E+00  0.74505805969E-08  0.10566000000E+00  0.10566000000E+00 0. -1.
     999900   -1    0    0    0    0 -0.00000000000E+00 -0.00000000000E+00 -0.74505805969E-08  0.93827000000E+00  0.93827000000E+00 0.  1.
     999902    2    1    2    0    0  0.10823495233E-03  0.20493627296E-02  0.23804684912E-01  0.10200370172E+01  0.10197571485E+01 0.  0.
     999903    2    3    3    0    0 -0.39745892818E-01  0.18923278189E-01 -0.11812800324E+00  0.12761448921E+00  0.19834471382E-01 0.  0.
         14    1    1    2    0    0 -0.10823495233E-03 -0.20493627296E-02 -0.23804684912E-01  0.23892982781E-01  0.00000000000E+00 0.  1.
     999901    1    3    3    0    0  0.39854127770E-01 -0.16873915460E-01  0.14193268815E+00  0.89242252800E+00  0.88000000000E+00 0. -1.
        -11    1    4    4    0    0 -0.26372788647E-01  0.96725693763E-02 -0.47943529129E-01  0.55569107296E-01  0.51100000000E-03 0.  1.
         11    1    4    4    0    0 -0.13373104171E-01  0.92507088132E-02 -0.70184474110E-01  0.72045381919E-01  0.51100000000E-03 0. -1.
</event>
<event>
 8    1  0.1088021E+005  0.1043930E+01  0.7957747E-01            NaN
         13   -1    0    0    0    0  0.00000000000E+00  0.00000000000E+00  0.74505805969E-08  0.10566000000E+00  0.10566000000E+00 0. -1.
     999900   -1    0    0    0    0 -0.00000000000E+00 -0.00000000000E+00 -0.74505805969E-08  0.93827000000E+00  0.93827000000E+00 0.  1.
     999902    2    1    2    0    0 -0.20014325500E-01 -0.38854872792E-02  0.11608190047E-01  0.10204689618E+01  0.10201992363E+01 0.  0.
     999903    2    3    3    0    0  0.37055944079E-01  0.12139461853E+00  0.17496464454E-01  0.12974633812E+00  0.20449684289E-01 0.  0.
         14    1    1    2    0    0  0.20014325500E-01  0.38854872792E-02 -0.11608190047E-01  0.23461038187E-01  0.00000000000E+00 0.  1.
     999901    1    3    3    0    0 -0.57070269580E-01 -0.12528010581E+00 -0.58882744071E-02  0.89072262369E+00  0.88000000000E+00 0. -1.
        -11    1    4    4    0    0  0.20223074946E-01  0.65221314263E-01  0.19668717301E-01  0.71062733945E-01  0.51100000000E-03 0.  1.
         11    1    4    4    0    0  0.16832869134E-01  0.56173304268E-01 -0.21722528473E-02  0.58683604176E-01  0.51100000000E-03 0. -1.
</event>
<event>
 8    1  0.1088021E+005  0.1043930E+01  0.7957747E-01            NaN
         13   -1    0    0    0    0  0.00000000000E+00  0.00000000000E+00  0.74505805969E-08  0.10566000000E+00  0.10566000000E+00 0.  1.
     999900   -1    0    0    0    0 -0.00000000000E+00 -0.00000000000E+00 -0.74505805969E-08  0.93827000000E+00  0.93827000000E+00 0.  1.
     999902    2    1    2    0    0 -0.58267083443E-02 -0.11710708354E-01 -0.20266855165E-01  0.10198087098E+01  0.10195234024E+01 0.  0.
     999903    2    3    3    0    0 -0.48870646545E-01  0.79845850319E-01 -0.89940463732E-01  0.13127632677E+00  0.19506077168E-01 0.  0.
         14    1    1    2    0    0  0.58267083443E-02  0.11710708354E-01  0.20266855165E-01  0.24121290151E-01  0.00000000000E+00 0. -1.
     999901    1    3    3    0    0  0.43043938201E-01 -0.91556558672E-01  0.69673608567E-01  0.88853238308E+00  0.88000000000E+00 0. -1.
        -11    1    4    4    0    0 -0.17928192874E-01  0.25262549513E-01 -0.42601313490E-01  0.52675891446E-01  0.51100000000E-03 0. -1.
         11    1    4    4    0    0 -0.30942453671E-01  0.54583300806E-01 -0.47339150242E-01  0.78600435322E-01  0.51100000000E-03 0.  1.
</event>
<event>
 8    1  0.1088021E+005  0.1043930E+01  0.7957747E-01            NaN
         13   -1    0    0    0    0  0.00000000000E+00  0.00000000000E+00  0.74505805969E-08  0.10566000000E+00  0.10566000000E+00 0.  1.
     999900   -1    0    0    0    0 -0.00000000000E+00 -0.00000000000E+00 -0.74505805969E-08  0.93827000000E+00  0.93827000000E+00 0. -1.
     999902    2    1    2    0    0 -0.58324029635E-02  0.21953904952E-01 -0.23744923647E-02  0.10210907995E+01  0.10208353401E+01 0.  0.
     999903    2    3    3    0    0  0.11716948880E+00  0.31791052944E-01  0.45252358270E-01  0.13120622731E+00  0.20686662476E-01 0.  0.
         14    1    1    2    0    0  0.58324029635E-02 -0.21953904952E-01  0.23744923647E-02  0.22839200533E-01  0.00000000000E+00 0. -1.
     999901    1    3    3    0    0 -0.12300189176E+00 -0.98371479915E-02 -0.47626850635E-01  0.88988457215E+00  0.88000000000E+00 0. -1.
        -11    1    4    4    0    0  0.77721008155E-01  0.30134624892E-01  0.35005338441E-01  0.90411755687E-01  0.51100000000E-03 0. -1.
         11    1    4    4    0    0  0.39448480642E-01  0.16564280519E-02  0.10247019829E-01  0.40794471626E-01  0.51100000000E-03 0.  1.
</event>
<event>
 8    1  0.1088021E+005  0.1043930E+01  0.7957747E-01            NaN
         13   -1    0    0    0    0  0.00000000000E+00  0.00000000000E+00  0.74505805969E-08  0.10566000000E+00  0.10566000000E+00 0. -1.
     999900   -1    0    0    0    0 -0.00000000000E+00 -0.00000000000E+00 -0.74505805969E-08  0.93827000000E+00  0.93827000000E+00 0. -1.
     999902    2    1    2    0    0  0.14657958408E-01 -0.10901684903E-01  0.13647064480E-01  0.10211277008E+01  0.10208730756E+01 0.  0.
     999903    2    3    3    0    0  0.14022461540E-01  0.12263798074E+00  0.37432015720E-01  0.13073510761E+00  0.21302788879E-01 0.  0.
         14    1    1    2    0    0 -0.14657958408E-01  0.10901684903E-01 -0.13647064480E-01  0.22802299168E-01  0.00000000000E+00 0.  1.
     999901    1    3    3    0    0  0.63549686810E-03 -0.13353966564E+00 -0.23784951240E-01  0.89039259322E+00  0.88000000000E+00 0.  1.
        -11    1    4    4    0    0  0.15717804941E-01  0.78714231264E-01  0.32112796403E-01  0.86455031141E-01  0.51100000000E-03 0.  1.
         11    1    4    4    0    0 -0.16953434003E-02  0.43923749475E-01  0.53192193163E-02  0.44280076471E-01  0.51100000000E-03 0. -1.
</event>
<event>
 8    1  0.1088021E+005  0.1043930E+01  0.7957747E-01            NaN
         13   -1    0    0    0    0  0.00000000000E+00  0.00000000000E+00  0.74505805969E-08  0.10566000000E+00  0.10566000000E+00 0. -1.
     999900   -1    0    0    0    0 -0.00000000000E+00 -0.00000000000E+00 -0.74505805969E-08  0.93827000000E+00  0.93827000000E+00 0.  1.
     999902    2    1    2    0    0 -0.13410055477E-02 -0.19623834347E-01 -0.14108271225E-01  0.10197238750E+01  0.10194365330E+01 0.  0.
     999903    2    3    3    0    0  0.21484320548E-01  0.33581582672E-01  0.11980247902E+00  0.12771271984E+00  0.19199117274E-01 0.  0.
         14    1    1    2    0    0  0.13410055477E-02  0.19623834347E-01  0.14108271225E-01  0.24206124996E-01  0.00000000000E+00 0. -1.
     999901    1    3    3    0    0 -0.22825326096E-01 -0.53205417019E-01 -0.13391075025E+00  0.89201115517E+00  0.88000000000E+00 0.  1.
        -11    1    4    4    0    0 -0.25843381943E-02  0.98770865115E-02  0.33800728154E-01  0.35312688748E-01  0.51100000000E-03 0. -1.
         11    1    4    4    0    0  0.24068658742E-01  0.23704496160E-01  0.86001750868E-01  0.92400031089E-01  0.51100000000E-03 0.  1.
</event>
<event>
 8    1  0.1088021E+005  0.1043930E+01  0.7957747E-01            NaN
         13   -1    0    0    0    0  0.00000000000E+00  0.00000000000E+00  0.74505805969E-08  0.10566000000E+00  0.10566000000E+00 0.  1.
     999900   -1    0    0    0    0 -0.00000000000E+00 -0.00000000000E+00 -0.74505805969E-08  0.93827000000E+00  0.93827000000E+00 0. -1.
     999902    2    1    2    0    0  0.35575478509E-02  0.23345748429E-01  0.22716203177E-02  0.10202057429E+01  0.10199298591E+01 0.  0.
     999903    2    3    3    0    0 -0.36194728062E-01 -0.12033800287E+00 -0.56076620251E-02  0.12763230226E+00  0.21616323316E-01 0.  0.
         14    1    1    2    0    0 -0.35575478509E-02 -0.23345748429E-01 -0.22716203177E-02  0.23724257107E-01  0.00000000000E+00 0. -1.
     999901    1    3    3    0    0  0.39752275913E-01  0.14368375130E+00  0.78792823428E-02  0.89257344063E+00  0.88000000000E+00 0. -1.
        -11    1    4    4    0    0 -0.28737262856E-01 -0.88457131153E-01  0.51856789766E-02  0.93153887282E-01  0.51100000000E-03 0.  1.
         11    1    4    4    0    0 -0.74574652065E-02 -0.31880871716E-01 -0.10793341002E-01  0.34478414982E-01  0.51100000000E-03 0. -1.
</event>
<event>
 8    1  0.1088021E+005  0.1043930E+01  0.7957747E-01            NaN
         13   -1    0    0    0    0  0.00000000000E+00  0.00000000000E+00  0.74505805969E-08  0.10566000000E+00  0.10566000000E+00 0. -1.
     999900   -1    0    0    0    0 -0.00000000000E+00 -0.00000000000E+00 -0.74505805969E-08  0.93827000000E+00  0.93827000000E+00 0.  1.
     999902    2    1    2    0    0 -0.86283964686E-02 -0.90427584271E-02 -0.19871196926E-01  0.10204547966E+01  0.10201847415E+01 0.  0.
     999903    2    3    3    0    0 -0.89034321541E-01 -0.96153158963E-01  0.83031179110E-02  0.13205898019E+00  0.14074519198E-01 0.  0.
         14    1    1    2    0    0  0.86283964686E-02  0.90427584271E-02  0.19871196926E-01  0.23475203362E-01  0.00000000000E+00 0.  1.
     999901    1    3    3    0    0  0.80405925072E-01  0.87110400536E-01 -0.28174314837E-01  0.88839581645E+00  0.88000000000E+00 0. -1.
        -11    1    4    4    0    0 -0.33250891744E-01 -0.45291992877E-01  0.62978055005E-02  0.56541222976E-01  0.51100000000E-03 0.  1.
         11    1    4    4    0    0 -0.55783429797E-01 -0.50861166086E-01  0.20053124105E-02  0.75517757213E-01  0.51100000000E-03 0. -1.
</event>
<event>
 8    1  0.1088021E+005  0.1043930E+01  0.7957747E-01            NaN
         13   -1    0    0    0    0  0.00000000000E+00  0.00000000000E+00  0.74505805969E-08  0.10566000000E+00  0.10566000000E+00 0. -1.
     999900   -1    0    0    0    0 -0.00000000000E+00 -0.00000000000E+00 -0.74505805969E-08  0.93827000000E+00  0.93827000000E+00 0. -1.
     999902    2    1    2    0    0  0.16338464702E-01 -0.89331443679E-02  0.16245874435E-01  0.10192181621E+01  0.10189185380E+01 0.  0.
     999903    2    3    3    0    0  0.91253307926E-01  0.47108692113E-01  0.80543722259E-01  0.13192613890E+00  0.19256683237E-01 0.  0.
         14    1    1    2    0    0 -0.16338464702E-01  0.89331443679E-02 -0.16245874435E-01  0.24711837918E-01  0.00000000000E+00 0. -1.
     999901    1    3    3    0    0 -0.74914843224E-01 -0.56041836481E-01 -0.64297847824E-01  0.88729202318E+00  0.88000000000E+00 0. -1.
        -11    1    4    4    0    0  0.77262588947E-02  0.32230475373E-02  0.87086112549E-03  0.84322376648E-02  0.51100000000E-03 0.  1.
         11    1    4    4    0    0  0.83527049031E-01  0.43885644575E-01  0.79672861134E-01  0.12349390123E+00  0.51100000000E-03 0. -1.
</event>
<event>
 8    1  0.1088021E+005  0.1043930E+01  0.7957747E-01            NaN
         13   -1    0    0    0    0  0.00000000000E+00  0.00000000000E+00  0.74505805969E-08  0.10566000000E+00  0.10566000000E+00 0. -1.
     999900   -1    0    0    0    0 -0.00000000000E+00 -0.00000000000E+00 -0.74505805969E-08  0.93827000000E+00  0.93827000000E+00 0. -1.
     999902    2    1    2    0    0  0.63326723501E-02 -0.12530323865E-01  0.19225873625E-01  0.10201235729E+01  0.10198457521E+01 0.  0.
     999903    2    3    3    0    0 -0.87731312199E-01  0.60652946581E-01  0.72504016409E-01  0.13049309636E+00  0.19901073685E-01 0.  0.
         14    1    1    2    0    0 -0.63326723501E-02  0.12530323865E-01 -0.19225873625E-01  0.23806427113E-01  0.00000000000E+00 0.  1.
     999901    1    3    3    0    0  0.94063984549E-01 -0.73183270446E-01 -0.53278142785E-01  0.88963047652E+00  0.88000000000E+00 0. -1.
        -11    1    4    4    0    0 -0.58522260558E-01  0.40928638638E-01  0.36875618274E-01  0.80374627748E-01  0.51100000000E-03 0.  1.
         11    1    4    4    0    0 -0.29209051641E-01  0.19724307943E-01  0.35628398136E-01  0.50118468615E-01  0.51100000000E-03 0. -1.
</event>
<event>
 8    1  0.1088021E+005  0.1043930E+01  0.7957747E-01            NaN
         13   -1    0    0    0    0  0.00000000000E+00  0.00000000000E+00  0.74505805969E-08  0.10566000000E+00  0.10566000000E+00 0.  1.
     999900   -1    0    0    0    0 -0.00000000000E+00 -0.00000000000E+00 -0.74505805969E-08  0.93827000000E+00  0.93827000000E+00 0. -1.
     999902    2    1    2    0    0 -0.19012789855E-01  0.33682704740E-02 -0.22219838160E-01  0.10144927340E+01  0.10140655574E+01 0.  0.
     999903    2    3    3    0    0  0.55595333147E-01  0.10264029837E+00  0.36060437926E-01  0.12386492274E+00  0.20403234635E-01 0.  0.
         14    1    1    2    0    0  0.19012789855E-01 -0.33682704740E-02  0.22219838160E-01  0.29437266040E-01  0.00000000000E+00 0.  1.
     999901    1    3    3    0    0 -0.74608123003E-01 -0.99272027898E-01 -0.58280276087E-01  0.89062781122E+00  0.88000000000E+00 0.  1.
        -11    1    4    4    0    0  0.47509485224E-01  0.97207667898E-01  0.36248715761E-01  0.11410833624E+00  0.51100000000E-03 0.  1.
         11    1    4    4    0    0  0.80858479240E-02  0.54326304745E-02 -0.18827783478E-03  0.97565864966E-02  0.51100000000E-03 0. -1.
</event>
<event>
 8    1  0.1088021E+005  0.1043930E+01  0.7957747E-01            NaN
         13   -1    0    0    0    0  0.00000000000E+00  0.00000000000E+00  0.74505805969E-08  0.10566000000E+00  0.10566000000E+00 0.  1.
     999900   -1    0    0    0    0 -0.00000000000E+00 -0.00000000000E+00 -0.74505805969E-08  0.93827000000E+00  0.93827000000E+00 0.  1.
     999902    2    1    2    0    0 -0.13832368028E-01 -0.12047668415E-01 -0.14922591659E-01  0.10202833414E+01  0.10200092805E+01 0.  0.
     999903    2    3    3    0    0 -0.14235829770E-01  0.12643627158E+00  0.65596028433E-02  0.12919442943E+00  0.21433212224E-01 0.  0.
         14    1    1    2    0    0  0.13832368028E-01  0.12047668415E-01  0.14922591659E-01  0.23646658566E-01  0.00000000000E+00 0.  1.
     999901    1    3    3    0    0  0.40346174234E-03 -0.13848393999E+00 -0.21482194503E-01  0.89108891200E+00  0.88000000000E+00 0.  1.
        -11    1    4    4    0    0 -0.16124128895E-01  0.61634270628E-01 -0.23482854863E-02  0.63753795293E-01  0.51100000000E-03 0.  1.
         11    1    4    4    0    0  0.18882991246E-02  0.64802000950E-01  0.89078883295E-02  0.65440634137E-01  0.51100000000E-03 0. -1.
</event>
<event>
 8    1  0.1088021E+005  0.1043930E+01  0.7957747E-01            NaN
         13   -1    0    0    0    0  0.00000000000E+00  0.00000000000E+00  0.74505805969E-08  0.10566000000E+00  0.10566000000E+00 0. -1.
     999900   -1    0    0    0    0 -0.00000000000E+00 -0.00000000000E+00 -0.74505805969E-08  0.93827000000E+00  0.93827000000E+00 0.  1.
     999902    2    1    2    0    0  0.64314144962E-02  0.12957313491E-01  0.18948679827E-01  0.10200907984E+01  0.10198122030E+01 0.  0.
     999903    2    3    3    0    0 -0.14311781635E-02 -0.11393833575E-03 -0.12642482409E+00  0.12803355045E+00  0.20181492544E-01 0.  0.
         14    1    1    2    0    0 -0.64314144962E-02 -0.12957313491E-01 -0.18948679827E-01  0.23839201592E-01  0.00000000000E+00 0.  1.
     999901    1    3    3    0    0  0.78625926597E-02  0.13071251827E-01  0.14537350392E+00  0.89205724796E+00  0.88000000000E+00 0. -1.
        -11    1    4    4    0    0  0.47554034123E-02  0.70874968015E-02 -0.89382217281E-01  0.89790246461E-01  0.51100000000E-03 0. -1.
         11    1    4    4    0    0 -0.61865815758E-02 -0.72014351372E-02 -0.37042606814E-01  0.38243303992E-01  0.51100000000E-03 0.  1.
</event>
<event>
 8    1  0.1088021E+005  0.1043930E+01  0.7957747E-01            NaN
         13   -1    0    0    0    0  0.00000000000E+00  0.00000000000E+00  0.74505805969E-08  0.10566000000E+00  0.10566000000E+00 0. -1.
     999900   -1    0    0    0    0 -0.00000000000E+00 -0.00000000000E+00 -0.74505805969E-08  0.93827000000E+00  0.93827000000E+00 0. -1.
     999902    2    1    2    0    0 -0.17900556328E-01  0.15765162613E-01  0.36753801301E-02  0.10197954047E+01  0.10195097787E+01 0.  0.
     999903    2    3    3    0    0 -0.48175285191E-01  0.11864878940E+00 -0.28515746574E-01  0.13270021904E+00  0.19945099625E-01 0.  0.
         14    1    1    2    0    0  0.17900556328E-01 -0.15765162613E-01 -0.36753801301E-02  0.24134595256E-01  0.00000000000E+00 0.  1.
     999901    1    3    3    0    0  0.30274728863E-01 -0.10288362679E+00  0.32191126704E-01  0.88709518571E+00  0.88000000000E+00 0.  1.
        -11    1    4    4    0    0 -0.92512596901E-02  0.17577751792E-01  0.25289811772E-02  0.20030477545E-01  0.51100000000E-03 0. -1.
         11    1    4    4    0    0 -0.38924025501E-01  0.10107103761E+00 -0.31044727751E-01  0.11266974149E+00  0.51100000000E-03 0.  1.
</event>
<event>
 8    1  0.1088021E+005  0.1043930E+01  0.7957747E-01            NaN
         13   -1    0    0    0    0  0.00000000000E+00  0.00000000000E+00  0.74505805969E-08  0.10566000000E+00  0.10566000000E+00 0.  1.
     999900   -1    0    0    0    0 -0.00000000000E+00 -0.00000000000E+00 -0.74505805969E-08  0.93827000000E+00  0.93827000000E+00 0.  1.
     999902    2    1    2    0    0 -0.11141365151E-01 -0.14252456768E-01 -0.16232000591E-01  0.10196248486E+01  0.10193351223E+01 0.  0.
     999903    2    3    3    0    0  0.38259956540E-02  0.11865936307E+00  0.42202428489E-01  0.12760233978E+00  0.20165055407E-01 0.  0.
         14    1    1    2    0    0  0.11141365151E-01  0.14252456768E-01  0.16232000591E-01  0.24305151399E-01  0.00000000000E+00 0.  1.
     999901    1    3    3    0    0 -0.14967360805E-01 -0.13291181984E+00 -0.58434429079E-01  0.89202250882E+00  0.88000000000E+00 0.  1.
        -11    1    4    4    0    0 -0.10687944163E-02  0.10710696207E+00  0.41971899204E-01  0.11504323139E+00  0.51100000000E-03 0. -1.
         11    1    4    4    0    0  0.48947900704E-02  0.11552401000E-01  0.23052928469E-03  0.12559108386E-01  0.51100000000E-03 0.  1.
</event>
<event>
 8    1  0.1088021E+005  0.1043930E+01  0.7957747E-01            NaN
         13   -1    0    0    0    0  0.00000000000E+00  0.00000000000E+00  0.74505805969E-08  0.10566000000E+00  0.10566000000E+00 0. -1.
     999900   -1    0    0    0    0 -0.00000000000E+00 -0.00000000000E+00 -0.74505805969E-08  0.93827000000E+00  0.93827000000E+00 0.  1.
     999902    2    1    2    0    0 -0.28678025202E-02 -0.35214537039E-02  0.25302926892E-01  0.10182227435E+01  0.10178981739E+01 0.  0.
     999903    2    3    3    0    0  0.10129803404E+00  0.70536301489E-01  0.31813143356E-01  0.12896605641E+00  0.19583311494E-01 0.  0.
         14    1    1    2    0    0  0.28678025202E-02  0.35214537039E-02 -0.25302926892E-01  0.25707256501E-01  0.00000000000E+00 0.  1.
     999901    1    3    3    0    0 -0.10416583656E+00 -0.74057755193E-01 -0.65102164642E-02  0.88925668709E+00  0.88000000000E+00 0. -1.
        -11    1    4    4    0    0  0.34285032177E-01  0.14265980019E-01  0.51875418965E-02  0.37498711034E-01  0.51100000000E-03 0. -1.
         11    1    4    4    0    0  0.67013001859E-01  0.56270321470E-01  0.26625601460E-01  0.91467345378E-01  0.51100000000E-03 0.  1.
</event>
<event>
 8    1  0.1088021E+005  0.1043930E+01  0.7957747E-01            NaN
         13   -1    0    0    0    0  0.00000000000E+00  0.00000000000E+00  0.74505805969E-08  0.10566000000E+00  0.10566000000E+00 0. -1.
     999900   -1    0    0    0    0 -0.00000000000E+00 -0.00000000000E+00 -0.74505805969E-08  0.93827000000E+00  0.93827000000E+00 0. -1.
     999902    2    1    2    0    0 -0.27121194597E-01  0.12224708886E-01  0.15636170539E-01  0.10103220763E+01  0.10097629452E+01 0.  0.
     999903    2    3    3    0    0  0.76750335154E-01 -0.34224721251E-01 -0.80135618875E-01  0.11784290017E+00  0.20081987364E-01 0.  0.
         14    1    1    2    0    0  0.27121194597E-01 -0.12224708886E-01 -0.15636170539E-01  0.33607923661E-01  0.00000000000E+00 0. -1.
     999901    1    3    3    0    0 -0.10387152975E+00  0.46449430137E-01  0.95771789413E-01  0.89247917617E+00  0.88000000000E+00 0.  1.
        -11    1    4    4    0    0  0.35513607451E-01 -0.24251590686E-01 -0.31548366384E-01  0.53337758741E-01  0.51100000000E-03 0. -1.
         11    1    4    4    0    0  0.41236727702E-01 -0.99731305652E-02 -0.48587252490E-01  0.64505141426E-01  0.51100000000E-03 0.  1.
</event>
<event>
 8    1  0.1088021E+005  0.1043930E+01  0.7957747E-01            NaN
         13   -1    0    0    0    0  0.00000000000E+00  0.00000000000E+00  0.74505805969E-08  0.10566000000E+00  0.10566000000E+00 0. -1.
     999900   -1    0    0    0    0 -0.00000000000E+00 -0.00000000000E+00 -0.74505805969E-08  0.93827000000E+00  0.93827000000E+00 0.  1.
     999902    2    1    2    0    0  0.11825972321E-01 -0.17229690944E-01 -0.11855161313E-01  0.10199037493E+01  0.10196207124E+01 0.  0.
     999903    2    3    3    0    0  0.17714460196E-01 -0.20388106929E-01  0.12490846107E+00  0.12931465312E+00  0.19765597941E-01 0.  0.
         14    1    1    2    0    0 -0.11825972321E-01  0.17229690944E-01  0.11855161313E-01  0.24026250667E-01  0.00000000000E+00 0.  1.
     999901    1    3    3    0    0 -0.58884878754E-02  0.31584159853E-02 -0.13676362238E+00  0.89058909621E+00  0.88000000000E+00 0.  1.
        -11    1    4    4    0    0  0.11834615843E-01 -0.65297114571E-02  0.93587624450E-01  0.94560032969E-01  0.51100000000E-03 0.  1.
         11    1    4    4    0    0  0.58798443525E-02 -0.13858395472E-01  0.31320836618E-01  0.34754620155E-01  0.51100000000E-03 0. -1.
</event>
<event>
 8    1  0.1088021E+005  0.1043930E+01  0.7957747E-01            NaN
         13   -1    0    0    0    0  0.00000000000E+00  0.00000000000E+00  0.74505805969E-08  0.10566000000E+00  0.10566000000E+00 0. -1.
     999900   -1    0    0    0    0 -0.00000000000E+00 -0.00000000000E+00 -0.74505805969E-08  0.93827000000E+00  0.93827000000E+00 0. -1.
     999902    2    1    2    0    0 -0.54188406768E-02 -0.64399971849E-02 -0.17750787370E-01  0.10242849535E+01  0.10240965473E+01 0.  0.
     999903    2    3    3    0    0  0.76089413678E-01 -0.87702806111E-01 -0.66406236127E-01  0.13545730302E+00  0.21389522466E-01 0.  0.
         14    1    1    2    0    0  0.54188406768E-02  0.64399971849E-02  0.17750787370E-01  0.19645046456E-01  0.00000000000E+00 0. -1.
     999901    1    3    3    0    0 -0.81508254354E-01  0.81262808926E-01  0.48655448757E-01  0.88882765052E+00  0.88000000000E+00 0.  1.
        -11    1    4    4    0    0  0.29044713450E-01 -0.20841814658E-01 -0.14281442422E-01  0.38499316050E-01  0.51100000000E-03 0.  1.
         11    1    4    4    0    0  0.47044700228E-01 -0.66860991452E-01 -0.52124793705E-01  0.96957986970E-01  0.51100000000E-03 0. -1.
</event>
<event>
 8    1  0.1088021E+005  0.1043930E+01  0.7957747E-01            NaN
         13   -1    0    0    0    0  0.00000000000E+00  0.00000000000E+00  0.74505805969E-08  0.10566000000E+00  0.10566000000E+00 0. -1.
     999900   -1    0    0    0    0 -0.00000000000E+00 -0.00000000000E+00 -0.74505805969E-08  0.93827000000E+00  0.93827000000E+00 0. -1.
     999902    2    1    2    0    0 -0.17977694976E-01  0.70178929388E-02 -0.16283676122E-01  0.10186791298E+01  0.10183661243E+01 0.  0.
     999903    2    3    3    0    0 -0.38105731947E-01 -0.10179132961E+00  0.65703543413E-01  0.12796790333E+00  0.15662281932E-01 0.  0.
         14    1    1    2    0    0  0.17977694976E-01 -0.70178929388E-02  0.16283676122E-01  0.25250870202E-01  0.00000000000E+00 0. -1.
     999901    1    3    3    0    0  0.20128036972E-01  0.10880922255E+00 -0.81987219535E-01  0.89071122647E+00  0.88000000000E+00 0.  1.
        -11    1    4    4    0    0 -0.22603451242E-01 -0.76230515029E-01  0.42765099251E-01  0.90283565861E-01  0.51100000000E-03 0. -1.
         11    1    4    4    0    0 -0.15502280705E-01 -0.25560814581E-01  0.22938444161E-01  0.37684337471E-01  0.51100000000E-03 0.  1.
</event>
<event>
 8    1  0.1088021E+005  0.1043930E+01  0.7957747E-01            NaN
         13   -1    0    0    0    0  0.00000000000E+00  0.00000000000E+00  0.74505805969E-08  0.10566000000E+00  0.10566000000E+00 0.  1.
     999900   -1    0    0    0    0 -0.00000000000E+00 -0.00000000000E+00 -0.74505805969E-08  0.93827000000E+00  0.93827000000E+00 0.  1.
     999902    2    1    2    0    0 -0.98091508029E-02 -0.19186133181E-01  0.13354188919E-01  0.10185792306E+01  0.10182637122E+01 0.  0.
     999903    2    3    3    0    0 -0.12048485425E+00 -0.34042270863E-01 -0.30627710207E-01  0.13043272041E+00  0.19979029307E-01 0.  0.
         14    1    1    2    0    0  0.98091508029E-02  0.19186133181E-01 -0.13354188919E-01  0.25350769369E-01  0.00000000000E+00 0.  1.
     999901    1    3    3    0    0  0.11067570345E+00  0.14856137682E-01  0.43981899126E-01  0.88814651022E+00  0.88000000000E+00 0. -1.
        -11    1    4    4    0    0 -0.63584764533E-02 -0.67186639037E-02 -0.40325201298E-02  0.10104108425E-01  0.51100000000E-03 0.  1.
         11    1    4    4    0    0 -0.11412637780E+00 -0.27323606959E-01 -0.26595190077E-01  0.12032861199E+00  0.51100000000E-03 0. -1.
</event>
<event>
 8    1  0.1088021E+005  0.1043930E+01  0.7957747E-01            NaN
         13   -1    0    0    0    0  0.00000000000E+00  0.00000000000E+00  0.74505805969E-08  0.10566000000E+00  0.10566000000E+00 0.  1.
     999900   -1    0    0    0    0 -0.00000000000E+00 -0.00000000000E+00 -0.74505805969E-08  0.93827000000E+00  0.93827000000E+00 0. -1.
     999902    2    1    2    0    0  0.17674093669E-01  0.15624717745E-01  0.16496347681E-02  0.10202820257E+01  0.10200079340E+01 0.  0.
     999903    2    3    3    0    0  0.10488286688E+00  0.80537278387E-01  0.19247921614E-02  0.13359206506E+00  0.18880308456E-01 0.  0.
         14    1    1    2    0    0 -0.17674093669E-01 -0.15624717745E-01 -0.16496347681E-02  0.23647974258E-01  0.00000000000E+00 0.  1.
     999901    1    3    3    0    0 -0.87208773215E-01 -0.64912560642E-01 -0.27515739331E-03  0.88668996068E+00  0.88000000000E+00 0.  1.
        -11    1    4    4    0    0  0.44534524260E-01  0.41140656020E-01 -0.67273480789E-02  0.61003243864E-01  0.51100000000E-03 0.  1.
         11    1    4    4    0    0  0.60348342625E-01  0.39396622367E-01  0.86521402403E-02  0.72588821200E-01  0.51100000000E-03 0. -1.
</event>
<event>
 8    1  0.1088021E+005  0.1043930E+01  0.7957747E-01            NaN
         13   -1    0    0    0    0  0.00000000000E+00  0.00000000000E+00  0.74505805969E-08  0.10566000000E+00  0.10566000000E+00 0.  1.
     999900   -1    0    0    0    0 -0.00000000000E+00 -0.00000000000E+00 -0.74505805969E-08  0.93827000000E+00  0.93827000000E+00 0. -1.
     999902    2    1    2    0    0 -0.36379072531E-02 -0.12970928407E-01 -0.19444133162E-01  0.10202751132E+01  0.10200008593E+01 0.  0.
     999903    2    3    3    0    0  0.81781252469E-01  0.34027886203E-01 -0.95280633298E-01  0.13164892852E+00  0.20173522371E-01 0.  0.
         14    1    1    2    0    0  0.36379072531E-02  0.12970928407E-01  0.19444133162E-01  0.23654886753E-01  0.00000000000E+00 0.  1.
     999901    1    3    3    0    0 -0.85419159722E-01 -0.46998814610E-01  0.75836500136E-01  0.88862618472E+00  0.88000000000E+00 0.  1.
        -11    1    4    4    0    0  0.10081111026E-01  0.35475478244E-02 -0.23024412012E-01  0.25388945716E-01  0.51100000000E-03 0.  1.
         11    1    4    4    0    0  0.71700141444E-01  0.30480338379E-01 -0.72256221286E-01  0.10625998281E+00  0.51100000000E-03 0. -1.
</event>
<event>
 8    1  0.1088021E+005  0.1043930E+01  0.7957747E-01            NaN
         13   -1    0    0    0    0  0.00000000000E+00  0.00000000000E+00  0.74505805969E-08  0.10566000000E+00  0.10566000000E+00 0. -1.
     999900   -1    0    0    0    0 -0.00000000000E+00 -0.00000000000E+00 -0.74505805969E-08  0.93827000000E+00  0.93827000000E+00 0. -1.
     999902    2    1    2    0    0  0.15292785994E-01  0.59706197668E-03 -0.15685953556E-01  0.10220148243E+01  0.10217798325E+01 0.  0.
     999903    2    3    3    0    0  0.10502298014E+00  0.75894234466E-01 -0.28450459298E-01  0.13416117391E+00  0.20000769180E-01 0.  0.
         14    1    1    2    0    0 -0.15292785994E-01 -0.59706197668E-03  0.15685953556E-01  0.21915175688E-01  0.00000000000E+00 0. -1.
     999901    1    3    3    0    0 -0.89730194147E-01 -0.75297172489E-01  0.12764505742E-01  0.88785365040E+00  0.88000000000E+00 0. -1.
        -11    1    4    4    0    0  0.60860271061E-01  0.53001769471E-01 -0.24089845724E-01  0.84224354843E-01  0.51100000000E-03 0.  1.
         11    1    4    4    0    0  0.44162709080E-01  0.22892464994E-01 -0.43606135745E-02  0.49936819067E-01  0.51100000000E-03 0. -1.
</event>
<event>
 8    1  0.1088021E+005  0.1043930E+01  0.7957747E-01            NaN
         13   -1    0    0    0    0  0.00000000000E+00  0.00000000000E+00  0.74505805969E-08  0.10566000000E+00  0.10566000000E+00 0. -1.
     999900   -1    0    0    0    0 -0.00000000000E+00 -0.00000000000E+00 -0.74505805969E-08  0.93827000000E+00  0.93827000000E+00 0.  1.
     999902    2    1    2    0    0 -0.20625095415E-01 -0.90070907306E-02 -0.40786437524E-02  0.10210573618E+01  0.10208011454E+01 0.  0.
     999903    2    3    3    0    0 -0.11454661444E+00  0.34651922032E-01  0.54536087408E-01  0.13304663671E+00  0.20138026945E-01 0.  0.
         14    1    1    2    0    0  0.20625095415E-01  0.90070907306E-02  0.40786437524E-02  0.22872638220E-01  0.00000000000E+00 0. -1.
     999901    1    3    3    0    0  0.93921519027E-01 -0.43659012763E-01 -0.58614731161E-01  0.88801072507E+00  0.88000000000E+00 0. -1.
        -11    1    4    4    0    0 -0.77969065759E-01  0.28623142984E-01  0.28779510804E-01  0.87903247339E-01  0.51100000000E-03 0. -1.
         11    1    4    4    0    0 -0.36577548683E-01  0.60287790480E-02  0.25756576605E-01  0.45143389370E-01  0.51100000000E-03 0.  1.
</event>
<event>
 8    1  0.1088021E+005  0.1043930E+01  0.7957747E-01            NaN
         13   -1    0    0    0    0  0.00000000000E+00  0.00000000000E+00  0.74505805969E-08  0.10566000000E+00  0.10566000000E+00 0.  1.
     999900   -1    0    0    0    0 -0.00000000000E+00 -0.00000000000E+00 -0.74505805969E-08  0.93827000000E+00  0.93827000000E+00 0. -1.
     999902    2    1    2    0    0 -0.60052884513E-03  0.23033644070E-01 -0.18894653496E-02  0.10208111879E+01  0.10205493628E+01 0.  0.
     999903    2    3    3    0    0 -0.11521909903E-01 -0.47168019973E-01 -0.11916346814E+00  0.13019300824E+00  0.19816930615E-01 0.  0.
         14    1    1    2    0    0  0.60052884513E-03 -0.23033644070E-01  0.18894653496E-02  0.23118812109E-01  0.00000000000E+00 0. -1.
     999901    1    3    3    0    0  0.10921381057E-01  0.70201664042E-01  0.11727400279E+00  0.89061817965E+00  0.88000000000E+00 0.  1.
        -11    1    4    4    0    0 -0.92597200106E-02 -0.11442957264E-01 -0.52473057350E-01  0.54501069295E-01  0.51100000000E-03 0. -1.
         11    1    4    4    0    0 -0.22621898920E-02 -0.35725062709E-01 -0.66690410789E-01  0.75691938942E-01  0.51100000000E-03 0.  1.
</event>
<event>
 8    1  0.1088021E+005  0.1043930E+01  0.7957747E-01            NaN
         13   -1    0    0    0    0  0.00000000000E+00  0.00000000000E+00  0.74505805969E-08  0.10566000000E+00  0.10566000000E+00 0. -1.
     999900   -1    0    0    0    0 -0.00000000000E+00 -0.00000000000E+00 -0.74505805969E-08  0.93827000000E+00  0.93827000000E+00 0.  1.
     999902    2    1    2    0    0 -0.22960822312E-01  0.22018052834E-02  0.28943550548E-02  0.10206829658E+01  0.10204181947E+01 0.  0.
     999903    2    3    3    0    0  0.38816305199E-01 -0.11837123665E+00 -0.29784201869E-01  0.12971598549E+00  0.20510558126E-01 0.  0.
         14    1    1    2    0    0  0.22960822312E-01 -0.22018052834E-02 -0.28943550548E-02  0.23247034196E-01  0.00000000000E+00 0.  1.
     999901    1    3    3    0    0 -0.61777127510E-01  0.12057304194E+00  0.32678556924E-01  0.89096698031E+00  0.88000000000E+00 0. -1.
        -11    1    4    4    0    0  0.16837145782E-01 -0.35248324486E-01 -0.11197781307E-02  0.39082590513E-01  0.51100000000E-03 0. -1.
         11    1    4    4    0    0  0.21979159416E-01 -0.83122912168E-01 -0.28664423738E-01  0.90633394977E-01  0.51100000000E-03 0.  1.
</event>
<event>
 8    1  0.1088021E+005  0.1043930E+01  0.7957747E-01            NaN
         13   -1    0    0    0    0  0.00000000000E+00  0.00000000000E+00  0.74505805969E-08  0.10566000000E+00  0.10566000000E+00 0. -1.
     999900   -1    0    0    0    0 -0.00000000000E+00 -0.00000000000E+00 -0.74505805969E-08  0.93827000000E+00  0.93827000000E+00 0. -1.
     999902    2    1    2    0    0 -0.17907342770E-01 -0.16249089346E-01 -0.52783539839E-03  0.10197435484E+01  0.10194566789E+01 0.  0.
     999903    2    3    3    0    0 -0.72777846881E-01  0.44124603574E-01 -0.97409154999E-01  0.13067564038E+00  0.18546802285E-01 0.  0.
         14    1    1    2    0    0  0.17907342770E-01  0.16249089346E-01  0.52783539839E-03  0.24186451577E-01  0.00000000000E+00 0. -1.
     999901    1    3    3    0    0  0.54870504110E-01 -0.60373692920E-01  0.96881319601E-01  0.88906790804E+00  0.88000000000E+00 0.  1.
        -11    1    4    4    0    0 -0.59493995941E-01  0.26859390583E-01 -0.74693481754E-01  0.99198486647E-01  0.51100000000E-03 0.  1.
         11    1    4    4    0    0 -0.13283850940E-01  0.17265212991E-01 -0.22715673245E-01  0.31477153737E-01  0.51100000000E-03 0. -1.
</event>
<event>
 8    1  0.1088021E+005  0.1043930E+01  0.7957747E-01            NaN
         13   -1    0    0    0    0  0.00000000000E+00  0.00000000000E+00  0.74505805969E-08  0.10566000000E+00  0.10566000000E+00 0.  1.
     999900   -1    0    0    0    0 -0.00000000000E+00 -0.00000000000E+00 -0.74505805969E-08  0.93827000000E+00  0.93827000000E+00 0. -1.
     999902    2    1    2    0    0 -0.89313397769E-02  0.81822084808E-02  0.22255073234E-01  0.10185921696E+01  0.10182769772E+01 0.  0.
     999903    2    3    3    0    0  0.49755827166E-01 -0.98571472341E-02 -0.11367204838E+00  0.12604201171E+00  0.19810311603E-01 0.  0.
         14    1    1    2    0    0  0.89313397769E-02 -0.81822084808E-02 -0.22255073234E-01  0.25337830422E-01  0.00000000000E+00 0. -1.
     999901    1    3    3    0    0 -0.58687166943E-01  0.18039355715E-01  0.13592712161E+00  0.89255015787E+00  0.88000000000E+00 0.  1.
        -11    1    4    4    0    0  0.13048783890E-01 -0.93919980180E-02 -0.50230651762E-01  0.52743339724E-01  0.51100000000E-03 0.  1.
         11    1    4    4    0    0  0.36707043277E-01 -0.46514921610E-03 -0.63441396613E-01  0.73298671988E-01  0.51100000000E-03 0. -1.
</event>
<event>
 8    1  0.1088021E+005  0.1043930E+01  0.7957747E-01            NaN
         13   -1    0    0    0    0  0.00000000000E+00  0.00000000000E+00  0.74505805969E-08  0.10566000000E+00  0.10566000000E+00 0. -1.
     999900   -1    0    0    0    0 -0.00000000000E+00 -0.00000000000E+00 -0.74505805969E-08  0.93827000000E+00  0.93827000000E+00 0.  1.
     999902    2    1    2    0    0 -0.20109754266E-01 -0.82430749477E-02  0.96511793775E-02  0.10201498452E+01  0.10198726444E+01 0.  0.
     999903    2    3    3    0    0  0.46141313906E-01  0.64737445683E-01  0.10086274449E+00  0.12996171333E+00  0.19919738538E-01 0.  0.
         14    1    1    2    0    0  0.20109754266E-01  0.82430749477E-02 -0.96511793775E-02  0.23780154849E-01  0.00000000000E+00 0.  1.
     999901    1    3    3    0    0 -0.66251068173E-01 -0.72980520631E-01 -0.91211565111E-01  0.89018813182E+00  0.88000000000E+00 0.  1.
        -11    1    4    4    0    0 -0.10351088829E-02  0.30510146016E-02  0.95431039909E-02  0.10085241459E-01  0.51100000000E-03 0. -1.
         11    1    4    4    0    0  0.47176422789E-01  0.61686431082E-01  0.91319640497E-01  0.11987647187E+00  0.51100000000E-03 0.  1.
</event>
<event>
 8    1  0.1088021E+005  0.1043930E+01  0.7957747E-01            NaN
         13   -1    0    0    0    0  0.00000000000E+00  0.00000000000E+00  0.74505805969E-08  0.10566000000E+00  0.10566000000E+00 0. -1.
     999900   -1    0    0    0    0 -0.00000000000E+00 -0.00000000000E+00 -0.74505805969E-08  0.93827000000E+00  0.93827000000E+00 0.  1.
     999902    2    1    2    0    0  0.69020093627E-02  0.21725118054E-01  0.62134987416E-02  0.10203031920E+01  0.10200295965E+01 0.  0.
     999903    2    3    3    0    0  0.46822876109E-01 -0.11273315341E+00 -0.33744813914E-01  0.12830018245E+00  0.20520203389E-01 0.  0.
         14    1    1    2    0    0 -0.69020093627E-02 -0.21725118054E-01 -0.62134987416E-02  0.23626807959E-01  0.00000000000E+00 0.  1.
     999901    1    3    3    0    0 -0.39920866747E-01  0.13445827146E+00  0.39958312656E-01  0.89200300959E+00  0.88000000000E+00 0. -1.
        -11    1    4    4    0    0  0.28716238438E-02 -0.27659579068E-01 -0.10768423018E-01  0.29824798290E-01  0.51100000000E-03 0. -1.
         11    1    4    4    0    0  0.43951252266E-01 -0.85073574337E-01 -0.22976390896E-01  0.98475384162E-01  0.51100000000E-03 0.  1.
</event>
<event>
 8    1  0.1088021E+005  0.1043930E+01  0.7957747E-01            NaN
         13   -1    0    0    0    0  0.00000000000E+00  0.00000000000E+00  0.74505805969E-08  0.10566000000E+00  0.10566000000E+00 0.  1.
     999900   -1    0    0    0    0 -0.00000000000E+00 -0.00000000000E+00 -0.74505805969E-08  0.93827000000E+00  0.93827000000E+00 0.  1.
     999902    2    1    2    0    0 -0.13980914145E-01  0.53034578267E-02 -0.18713017073E-01  0.10199765110E+01  0.10196952062E+01 0.  0.
     999903    2    3    3    0    0  0.24946282817E-01 -0.79166886193E-01 -0.99896587989E-01  0.13135885543E+00  0.19649623706E-01 0.  0.
         14    1    1    2    0    0  0.13980914145E-01 -0.53034578267E-02  0.18713017073E-01  0.23953488957E-01  0.00000000000E+00 0.  1.
     999901    1    3    3    0    0 -0.38927196962E-01  0.84470344020E-01  0.81183570916E-01  0.88861765561E+00  0.88000000000E+00 0. -1.
        -11    1    4    4    0    0  0.86108290600E-02 -0.54139028866E-01 -0.71790474278E-01  0.90328921956E-01  0.51100000000E-03 0.  1.
         11    1    4    4    0    0  0.16335453757E-01 -0.25027857328E-01 -0.28106113711E-01  0.41029933473E-01  0.51100000000E-03 0. -1.
</event>
<event>
 8    1  0.1088021E+005  0.1043930E+01  0.7957747E-01            NaN
         13   -1    0    0    0    0  0.00000000000E+00  0.00000000000E+00  0.74505805969E-08  0.10566000000E+00  0.10566000000E+00 0. -1.
     999900   -1    0    0    0    0 -0.00000000000E+00 -0.00000000000E+00 -0.74505805969E-08  0.93827000000E+00  0.93827000000E+00 0. -1.
     999902    2    1    2    0    0 -0.10609410157E-01  0.14274896330E-01  0.15681651850E-01  0.10202182634E+01  0.10199426741E+01 0.  0.
     999903    2    3    3    0    0 -0.28436332327E-01  0.58350912516E-01  0.11473736682E+00  0.13338539917E+00  0.20335864380E-01 0.  0.
         14    1    1    2    0    0  0.10609410157E-01 -0.14274896330E-01 -0.15681651850E-01  0.23711736626E-01  0.00000000000E+00 0.  1.
     999901    1    3    3    0    0  0.17826922169E-01 -0.44076016186E-01 -0.99055714971E-01  0.88683286420E+00  0.88000000000E+00 0. -1.
        -11    1    4    4    0    0 -0.15729145273E-01  0.11947883432E-01  0.29498403077E-01  0.35504574841E-01  0.51100000000E-03 0. -1.
         11    1    4    4    0    0 -0.12707187054E-01  0.46403029084E-01  0.85238963744E-01  0.97880824333E-01  0.51100000000E-03 0.  1.
</event>
<event>
 8    1  0.1088021E+005  0.1043930E+01  0.7957747E-01            NaN
         13   -1    0    0    0    0  0.00000000000E+00  0.00000000000E+00  0.74505805969E-08  0.10566000000E+00  0.10566000000E+00 0. -1.
     999900   -1    0    0    0    0 -0.00000000000E+00 -0.00000000000E+00 -0.74505805969E-08  0.93827000000E+00  0.93827000000E+00 0.  1.
     999902    2    1    2    0    0  0.19223763055E-01 -0.12912618919E-01 -0.26770098992E-02  0.10206178749E+01  0.10203516019E+01 0.  0.
     999903    2    3    3    0    0 -0.68210375882E-01  0.80491918790E-01 -0.71093997960E-01  0.12873782662E+00  0.19684183712E-01 0.  0.
         14    1    1    2    0    0 -0.19223763055E-01  0.12912618919E-01  0.26770098992E-02  0.23312125071E-01  0.00000000000E+00 0. -1.
     999901    1    3    3    0    0  0.87434138938E-01 -0.93404537709E-01  0.68416988060E-01  0.89188004831E+00  0.88000000000E+00 0. -1.
        -11    1    4    4    0    0 -0.55526730448E-01  0.58394017034E-01 -0.45136907110E-01  0.92361683203E-01  0.51100000000E-03 0. -1.
         11    1    4    4    0    0 -0.12683645435E-01  0.22097901756E-01 -0.25957090850E-01  0.36376143417E-01  0.51100000000E-03 0.  1.
</event>
<event>
 8    1  0.1088021E+005  0.1043930E+01  0.7957747E-01            NaN
         13   -1    0    0    0    0  0.00000000000E+00  0.00000000000E+00  0.74505805969E-08  0.10566000000E+00  0.10566000000E+00 0.  1.
     999900   -1    0    0    0    0 -0.00000000000E+00 -0.00000000000E+00 -0.74505805969E-08  0.93827000000E+00  0.93827000000E+00 0. -1.
     999902    2    1    2    0    0  0.11166452954E-01 -0.12385714882E-01  0.17050682733E-01  0.10200800233E+01  0.10198011731E+01 0.  0.
     999903    2    3    3    0    0  0.20603132782E-01 -0.12431325124E+00 -0.31971205828E-01  0.13158693396E+00  0.20363930694E-01 0.  0.
         14    1    1    2    0    0 -0.11166452954E-01  0.12385714882E-01 -0.17050682733E-01  0.23849976654E-01  0.00000000000E+00 0. -1.
     999901    1    3    3    0    0 -0.94366798279E-02  0.11192753636E+00  0.49021888561E-01  0.88849308938E+00  0.88000000000E+00 0.  1.
        -11    1    4    4    0    0 -0.13028217180E-02 -0.52558941687E-01 -0.11535609120E-01  0.53828162651E-01  0.51100000000E-03 0. -1.
         11    1    4    4    0    0  0.21905954500E-01 -0.71754309555E-01 -0.20435596707E-01  0.77758771313E-01  0.51100000000E-03 0.  1.
</event>
<event>
 8    1  0.1088021E+005  0.1043930E+01  0.7957747E-01            NaN
         13   -1    0    0    0    0  0.00000000000E+00  0.00000000000E+00  0.74505805969E-08  0.10566000000E+00  0.10566000000E+00 0. -1.
     999900   -1    0    0    0    0 -0.00000000000E+00 -0.00000000000E+00 -0.74505805969E-08  0.93827000000E+00  0.93827000000E+00 0.  1.
     999902    2    1    2    0    0  0.92234485821E-02 -0.21921599765E-01  0.11972008625E-02  0.10201169399E+01  0.10198389624E+01 0.  0.
     999903    2    3    3    0    0 -0.11101298289E+00 -0.61444256215E-01  0.23902538222E-01  0.13077202812E+00  0.20753626499E-01 0.  0.
         14    1    1    2    0    0 -0.92234485821E-02  0.21921599765E-01 -0.11972008625E-02  0.23813060070E-01  0.00000000000E+00 0.  1.
     999901    1    3    3    0    0  0.12023643147E+00  0.39522656451E-01 -0.22705337360E-01  0.88934491181E+00  0.88000000000E+00 0.  1.
        -11    1    4    4    0    0 -0.44958605120E-01 -0.36668969068E-01  0.10556319391E-01  0.58971064658E-01  0.51100000000E-03 0.  1.
         11    1    4    4    0    0 -0.66054377767E-01 -0.24775287147E-01  0.13346218831E-01  0.71800963458E-01  0.51100000000E-03 0. -1.
</event>
<event>
 8    1  0.1088021E+005  0.1043930E+01  0.7957747E-01            NaN
         13   -1    0    0    0    0  0.00000000000E+00  0.00000000000E+00  0.74505805969E-08  0.10566000000E+00  0.10566000000E+00 0.  1.
     999900   -1    0    0    0    0 -0.00000000000E+00 -0.00000000000E+00 -0.74505805969E-08  0.93827000000E+00  0.93827000000E+00 0. -1.
     999902    2    1    2    0    0  0.23175441853E-01 -0.46379506446E-02 -0.20432607490E-02  0.10202068761E+01  0.10199310190E+01 0.  0.
     999903    2    3    3    0    0 -0.51132539104E-01  0.17026365003E-01 -0.11605260300E+00  0.12948292972E+00  0.19828987989E-01 0.  0.
         14    1    1    2    0    0 -0.23175441853E-01  0.46379506446E-02  0.20432607490E-02  0.23723123861E-01  0.00000000000E+00 0.  1.
     999901    1    3    3    0    0  0.74307980956E-01 -0.21664315648E-01  0.11400934225E+00  0.89072394642E+00  0.88000000000E+00 0.  1.
        -11    1    4    4    0    0 -0.42826862126E-01  0.20938544008E-01 -0.89862899568E-01  0.10172592877E+00  0.51100000000E-03 0. -1.
         11    1    4    4    0    0 -0.83056769773E-02 -0.39121790049E-02 -0.26189703433E-01  0.27757000946E-01  0.51100000000E-03 0.  1.
</event>
<event>
 8    1  0.1088021E+005  0.1043930E+01  0.7957747E-01            NaN
         13   -1    0    0    0    0  0.00000000000E+00  0.00000000000E+00  0.74505805969E-08  0.10566000000E+00  0.10566000000E+00 0.  1.
     999900   -1    0    0    0    0 -0.00000000000E+00 -0.00000000000E+00 -0.74505805969E-08  0.93827000000E+00  0.93827000000E+00 0.  1.
     999902    2    1    2    0    0  0.89044838203E-02  0.11498329962E-01 -0.16064720983E-01  0.10222602819E+01  0.10220305804E+01 0.  0.
     999903    2    3    3    0    0  0.57957982106E-01 -0.73654969046E-01  0.88851405853E-01  0.13059626235E+00  0.19406938490E-01 0.  0.
         14    1    1    2    0    0 -0.89044838203E-02 -0.11498329962E-01  0.16064720983E-01  0.21669718140E-01  0.00000000000E+00 0.  1.
     999901    1    3    3    0    0 -0.49053498286E-01  0.85153299008E-01 -0.10491612684E+00  0.89166401951E+00  0.88000000000E+00 0.  1.
        -11    1    4    4    0    0  0.16485094887E-02 -0.10180091897E-01  0.14345471449E-01  0.17674997218E-01  0.51100000000E-03 0. -1.
         11    1    4    4    0    0  0.56309472618E-01 -0.63474877149E-01  0.74505934404E-01  0.11292126513E+00  0.51100000000E-03 0.  1.
</event>
<event>
 8    1  0.1088021E+005  0.1043930E+01  0.7957747E-01            NaN
         13   -1    0    0    0    0  0.00000000000E+00  0.00000000000E+00  0.74505805969E-08  0.10566000000E+00  0.10566000000E+00 0.  1.
     999900   -1    0    0    0    0 -0.00000000000E+00 -0.00000000000E+00 -0.74505805969E-08  0.93827000000E+00  0.93827000000E+00 0. -1.
     999902    2    1    2    0    0  0.22577325561E-01 -0.32124948822E-02 -0.84706570938E-02  0.10196029002E+01  0.10193126441E+01 0.  0.
     999903    2    3    3    0    0  0.62474976301E-01 -0.10195076106E+00  0.50267054427E-01  0.13123856813E+00  0.19992615141E-01 0.  0.
         14    1    1    2    0    0 -0.22577325561E-01  0.32124948822E-02  0.84706570938E-02  0.24327099796E-01  0.00000000000E+00 0. -1.
     999901    1    3    3    0    0 -0.39897650740E-01  0.98738266178E-01 -0.58737711521E-01  0.88836433207E+00  0.88000000000E+00 0. -1.
        -11    1    4    4    0    0  0.50300661117E-01 -0.72361856457E-01  0.28839985417E-01  0.92727561483E-01  0.51100000000E-03 0. -1.
         11    1    4    4    0    0  0.12174315184E-01 -0.29588904603E-01  0.21427069010E-01  0.38511006650E-01  0.51100000000E-03 0.  1.
</event>
<event>
 8    1  0.1088021E+005  0.1043930E+01  0.7957747E-01            NaN
         13   -1    0    0    0    0  0.00000000000E+00  0.00000000000E+00  0.74505805969E-08  0.10566000000E+00  0.10566000000E+00 0.  1.
     999900   -1    0    0    0    0 -0.00000000000E+00 -0.00000000000E+00 -0.74505805969E-08  0.93827000000E+00  0.93827000000E+00 0.  1.
     999902    2    1    2    0    0 -0.64085353587E-02  0.22180237255E-01 -0.66736514925E-02  0.10198973165E+01  0.10196141262E+01 0.  0.
     999903    2    3    3    0    0 -0.10107930431E+00 -0.35782354931E-01  0.70131962013E-01  0.12960448895E+00  0.19530201641E-01 0.  0.
         14    1    1    2    0    0  0.64085353587E-02 -0.22180237255E-01  0.66736514925E-02  0.24032683462E-01  0.00000000000E+00 0.  1.
     999901    1    3    3    0    0  0.94670768952E-01  0.57962592186E-01 -0.76805613506E-01  0.89029282759E+00  0.88000000000E+00 0.  1.
        -11    1    4    4    0    0 -0.63769927915E-01 -0.31829307244E-01  0.49584946699E-01  0.86825322148E-01  0.51100000000E-03 0. -1.
         11    1    4    4    0    0 -0.37309376396E-01 -0.39530476864E-02  0.20547015314E-01  0.42779166803E-01  0.51100000000E-03 0.  1.
</event>
<event>
 8    1  0.1088021E+005  0.1043930E+01  0.7957747E-01            NaN
         13   -1    0    0    0    0  0.00000000000E+00  0.00000000000E+00  0.74505805969E-08  0.10566000000E+00  0.10566000000E+00 0.  1.
     999900   -1    0    0    0    0 -0.00000000000E+00 -0.00000000000E+00 -0.74505805969E-08  0.93827000000E+00  0.93827000000E+00 0.  1.
     999902    2    1    2    0    0 -0.11043799588E-01  0.19453257255E-01 -0.67844401287E-02  0.10205542999E+01  0.10202865557E+01 0.  0.
     999903    2    3    3    0    0 -0.62976176315E-01  0.63268733785E-01  0.95219460961E-01  0.13206031367E+00  0.20105950431E-01 0.  0.
         14    1    1    2    0    0  0.11043799588E-01 -0.19453257255E-01  0.67844401287E-02  0.23375700097E-01  0.00000000000E+00 0.  1.
     999901    1    3    3    0    0  0.51932376727E-01 -0.43815476530E-01 -0.10200390109E+00  0.88849398623E+00  0.88000000000E+00 0.  1.
        -11    1    4    4    0    0 -0.23370719323E-01  0.30877176634E-01  0.53469444760E-01  0.66021460166E-01  0.51100000000E-03 0. -1.
         11    1    4    4    0    0 -0.39605456992E-01  0.32391557151E-01  0.41750016202E-01  0.66038853503E-01  0.51100000000E-03 0.  1.
</event>
<event>
 8    1  0.1088021E+005  0.1043930E+01  0.7957747E-01            NaN
         13   -1    0    0    0    0  0.00000000000E+00  0.00000000000E+00  0.74505805969E-08  0.10566000000E+00  0.10566000000E+00 0. -1.
     999900   -1    0    0    0    0 -0.00000000000E+00 -0.00000000000E+00 -0.74505805969E-08  0.93827000000E+00  0.93827000000E+00 0.  1.
     999902    2    1    2    0    0  0.18322857768E-01  0.82141848509E-02  0.13684328901E-01  0.10196306007E+01  0.10193410131E+01 0.  0.
     999903    2    3    3    0    0 -0.10351476601E+00 -0.29936808126E-02 -0.70959296339E-01  0.12714274860E+00  0.20144177302E-01 0.  0.
         14    1    1    2    0    0 -0.18322857768E-01 -0.82141848509E-02 -0.13684328901E-01  0.24299399314E-01  0.00000000000E+00 0.  1.
     999901    1    3    3    0    0  0.12183762378E+00  0.11207865663E-01  0.84643625240E-01  0.89248785208E+00  0.88000000000E+00 0. -1.
        -11    1    4    4    0    0 -0.25394106123E-01  0.79177484319E-02 -0.17012098327E-01  0.31578853313E-01  0.51100000000E-03 0. -1.
         11    1    4    4    0    0 -0.78120659884E-01 -0.10911429244E-01 -0.53947198012E-01  0.95563895291E-01  0.51100000000E-03 0.  1.
</event>
<event>
 8    1  0.1088021E+005  0.1043930E+01  0.7957747E-01            NaN
         13   -1    0    0    0    0  0.00000000000E+00  0.00000000000E+00  0.74505805969E-08  0.10566000000E+00  0.10566000000E+00 0.  1.
     999900   -1    0    0    0    0 -0.00000000000E+00 -0.00000000000E+00 -0.74505805969E-08  0.93827000000E+00  0.93827000000E+00 0.  1.
     999902    2    1    2    0    0 -0.13289225626E-01  0.14926089699E-01  0.10563473740E-01  0.10213251632E+01  0.10210749778E+01 0.  0.
     999903    2    3    3    0    0 -0.59387491679E-02  0.13057048813E+00  0.19565627269E-01  0.13368295192E+00  0.20109618353E-01 0.  0.
         14    1    1    2    0    0  0.13289225626E-01 -0.14926089699E-01 -0.10563473740E-01  0.22604836847E-01  0.00000000000E+00 0. -1.
     999901    1    3    3    0    0 -0.73504764580E-02 -0.11564439844E+00 -0.90021535291E-02  0.88764221123E+00  0.88000000000E+00 0. -1.
        -11    1    4    4    0    0  0.59014049636E-02  0.17611398992E-01  0.44113504539E-02  0.19097358163E-01  0.51100000000E-03 0. -1.
         11    1    4    4    0    0 -0.11840154132E-01  0.11295908914E+00  0.15154276815E-01  0.11458559376E+00  0.51100000000E-03 0.  1.
</event>
<event>
 8    1  0.1088021E+005  0.1043930E+01  0.7957747E-01            NaN
         13   -1    0    0    0    0  0.00000000000E+00  0.00000000000E+00  0.74505805969E-08  0.10566000000E+00  0.10566000000E+00 0. -1.
     999900   -1    0    0    0    0 -0.00000000000E+00 -0.00000000000E+00 -0.74505805969E-08  0.93827000000E+00  0.93827000000E+00 0. -1.
     999902    2    1    2    0    0  0.11840095832E-01  0.18000325351E-01 -0.66714433985E-02  0.10213754497E+01  0.10211263886E+01 0.  0.
     999903    2    3    3    0    0  0.31921483723E-01  0.12617370821E+00  0.23735525736E-01  0.13400330304E+00  0.21324265003E-01 0.  0.
         14    1    1    2    0    0 -0.11840095832E-01 -0.18000325351E-01  0.66714433985E-02  0.22554550296E-01  0.00000000000E+00 0. -1.
     999901    1    3    3    0    0 -0.20081387891E-01 -0.10817338286E+00 -0.30406969134E-01  0.88737214666E+00  0.88000000000E+00 0. -1.
        -11    1    4    4    0    0  0.77244144946E-02  0.57753983209E-01  0.22436068041E-02  0.58313669481E-01  0.51100000000E-03 0. -1.
         11    1    4    4    0    0  0.24197069228E-01  0.68419725000E-01  0.21491918932E-01  0.75689633562E-01  0.51100000000E-03 0.  1.
</event>
<event>
 8    1  0.1088021E+005  0.1043930E+01  0.7957747E-01            NaN
         13   -1    0    0    0    0  0.00000000000E+00  0.00000000000E+00  0.74505805969E-08  0.10566000000E+00  0.10566000000E+00 0. -1.
     999900   -1    0    0    0    0 -0.00000000000E+00 -0.00000000000E+00 -0.74505805969E-08  0.93827000000E+00  0.93827000000E+00 0. -1.
     999902    2    1    2    0    0  0.23148247028E-01  0.81261557277E-03  0.31639963935E-04  0.10207674724E+01  0.10205046448E+01 0.  0.
     999903    2    3    3    0    0  0.39630508135E-01  0.96091960712E-01 -0.78668035355E-01  0.13197983890E+00  0.20634340315E-01 0.  0.
         14    1    1    2    0    0 -0.23148247028E-01 -0.81261557277E-03 -0.31639963935E-04  0.23162527618E-01  0.00000000000E+00 0.  1.
     999901    1    3    3    0    0 -0.16482261106E-01 -0.95279345139E-01  0.78699675318E-01  0.88878763349E+00  0.88000000000E+00 0.  1.
        -11    1    4    4    0    0  0.35755432344E-01  0.73120021609E-01 -0.52105250779E-01  0.96644745237E-01  0.51100000000E-03 0. -1.
         11    1    4    4    0    0  0.38750757903E-02  0.22971939103E-01 -0.26562784576E-01  0.35335093660E-01  0.51100000000E-03 0.  1.
</event>
<event>
 8    1  0.1088021E+005  0.1043930E+01  0.7957747E-01            NaN
         13   -1    0    0    0    0  0.00000000000E+00  0.00000000000E+00  0.74505805969E-08  0.10566000000E+00  0.10566000000E+00 0. -1.
     999900   -1    0    0    0    0 -0.00000000000E+00 -0.00000000000E+00 -0.74505805969E-08  0.93827000000E+00  0.93827000000E+00 0.  1.
     999902    2    1    2    0    0  0.15652563582E-01 -0.78216998870E-02 -0.18896344837E-01  0.10181762899E+01  0.10178505311E+01 0.  0.
     999903    2    3    3    0    0  0.60128705220E-01  0.10892942269E+00 -0.28993931209E-01  0.12929445689E+00  0.19882862368E-01 0.  0.
         14    1    1    2    0    0 -0.15652563582E-01  0.78216998870E-02  0.18896344837E-01  0.25753710102E-01  0.00000000000E+00 0. -1.
     999901    1    3    3    0    0 -0.44476141637E-01 -0.11675112258E+00  0.10097586372E-01  0.88888183301E+00  0.88000000000E+00 0. -1.
        -11    1    4    4    0    0  0.24461871797E-01  0.57150100581E-01 -0.64612363962E-02  0.62502206881E-01  0.51100000000E-03 0.  1.
         11    1    4    4    0    0  0.35666833422E-01  0.51779322114E-01 -0.22532694813E-01  0.66792250010E-01  0.51100000000E-03 0. -1.
</event>
<event>
 8    1  0.1088021E+005  0.1043930E+01  0.7957747E-01            NaN
         13   -1    0    0    0    0  0.00000000000E+00  0.00000000000E+00  0.74505805969E-08  0.10566000000E+00  0.10566000000E+00 0. -1.
     999900   -1    0    0    0    0 -0.00000000000E+00 -0.00000000000E+00 -0.74505805969E-08  0.93827000000E+00  0.93827000000E+00 0.  1.
     999902    2    1    2    0    0 -0.22379767962E-01  0.48344230847E-03  0.79879798366E-02  0.10201624685E+01  0.10198855655E+01 0.  0.
     999903    2    3    3    0    0  0.33425708982E-01 -0.77170506513E-01 -0.95644319267E-01  0.12893632414E+00  0.20104098523E-01 0.  0.
         14    1    1    2    0    0  0.22379767962E-01 -0.48344230847E-03 -0.79879798366E-02  0.23767531474E-01  0.00000000000E+00 0. -1.
     999901    1    3    3    0    0 -0.55805476944E-01  0.77653948822E-01  0.10363229910E+00  0.89122614439E+00  0.88000000000E+00 0. -1.
        -11    1    4    4    0    0  0.33614670280E-01 -0.56492931542E-01 -0.70970819146E-01  0.96739421455E-01  0.51100000000E-03 0.  1.
         11    1    4    4    0    0 -0.18896129823E-03 -0.20677574972E-01 -0.24673500121E-01  0.32196902682E-01  0.51100000000E-03 0. -1.
</event>
<event>
 8    1  0.1088021E+005  0.1043930E+01  0.7957747E-01            NaN
         13   -1    0    0    0    0  0.00000000000E+00  0.00000000000E+00  0.74505805969E-08  0.10566000000E+00  0.10566000000E+00 0. -1.
     999900   -1    0    0    0    0 -0.00000000000E+00 -0.00000000000E+00 -0.74505805969E-08  0.93827000000E+00  0.93827000000E+00 0.  1.
     999902    2    1    2    0    0  0.19194061129E-02 -0.14271054661E-02  0.18415368812E-01  0.10253599553E+01  0.10251917828E+01 0.  0.
     999903    2    3    3    0    0 -0.13269126655E-01 -0.95397864962E-01  0.95042237115E-01  0.13691588164E+00  0.20883233640E-01 0.  0.
         14    1    1    2    0    0 -0.19194061129E-02  0.14271054661E-02 -0.18415368812E-01  0.18570044651E-01  0.00000000000E+00 0.  1.
     999901    1    3    3    0    0  0.15188532768E-01  0.93970759496E-01 -0.76626868303E-01  0.88844407371E+00  0.88000000000E+00 0. -1.
        -11    1    4    4    0    0 -0.12278936070E-01 -0.71495993325E-01  0.82643035406E-01  0.10996627553E+00  0.51100000000E-03 0.  1.
         11    1    4    4    0    0 -0.99019058461E-03 -0.23901871638E-01  0.12399201709E-01  0.26949606105E-01  0.51100000000E-03 0. -1.
</event>
<event>
 8    1  0.1088021E+005  0.1043930E+01  0.7957747E-01            NaN
         13   -1    0    0    0    0  0.00000000000E+00  0.00000000000E+00  0.74505805969E-08  0.10566000000E+00  0.10566000000E+00 0.  1.
     999900   -1    0    0    0    0 -0.00000000000E+00 -0.00000000000E+00 -0.74505805969E-08  0.93827000000E+00  0.93827000000E+00 0.  1.
     999902    2    1    2    0    0 -0.23634818294E-01  0.51491682449E-02 -0.22697483108E-02  0.10196345204E+01  0.10193450274E+01 0.  0.
     999903    2    3    3    0    0 -0.33202251475E-01  0.10282214962E+00 -0.72161598068E-01  0.13142485053E+00  0.19758824519E-01 0.  0.
         14    1    1    2    0    0  0.23634818294E-01 -0.51491682449E-02  0.22697483108E-02  0.24295479555E-01  0.00000000000E+00 0.  1.
     999901    1    3    3    0    0  0.95674331810E-02 -0.97672981372E-01  0.69891849757E-01  0.88820966991E+00  0.88000000000E+00 0. -1.
        -11    1    4    4    0    0 -0.17562974528E-01  0.81624040483E-01 -0.54767539746E-01  0.99853325382E-01  0.51100000000E-03 0.  1.
         11    1    4    4    0    0 -0.15639276948E-01  0.21198109134E-01 -0.17394058321E-01  0.31571525148E-01  0.51100000000E-03 0. -1.
</event>
<event>
 8    1  0.1088021E+005  0.1043930E+01  0.7957747E-01            NaN
         13   -1    0    0    0    0  0.00000000000E+00  0.00000000000E+00  0.74505805969E-08  0.10566000000E+00  0.10566000000E+00 0.  1.
     999900   -1    0    0    0    0 -0.00000000000E+00 -0.00000000000E+00 -0.74505805969E-08  0.93827000000E+00  0.93827000000E+00 0. -1.
     999902    2    1    2    0    0 -0.12061672786E-01 -0.14560723459E-01  0.12573771859E-01  0.10212232090E+01  0.10209707362E+01 0.  0.
     999903    2    3    3    0    0  0.75203713646E-01 -0.10060392073E+00  0.37010881975E-01  0.13239484999E+00  0.19540816402E-01 0.  0.
         14    1    1    2    0    0  0.12061672786E-01  0.14560723459E-01 -0.12573771859E-01  0.22706790984E-01  0.00000000000E+00 0. -1.
     999901    1    3    3    0    0 -0.87265386432E-01  0.86043197271E-01 -0.24437110116E-01  0.88882835903E+00  0.88000000000E+00 0. -1.
        -11    1    4    4    0    0  0.54986417787E-01 -0.80664347894E-01  0.35757162545E-01  0.10396672043E+00  0.51100000000E-03 0. -1.
         11    1    4    4    0    0  0.20217295860E-01 -0.19939572837E-01  0.12537194299E-02  0.28428129558E-01  0.51100000000E-03 0.  1.
</event>
<event>
 8    1  0.1088021E+005  0.1043930E+01  0.7957747E-01            NaN
         13   -1    0    0    0    0  0.00000000000E+00  0.00000000000E+00  0.74505805969E-08  0.10566000000E+00  0.10566000000E+00 0.  1.
     999900   -1    0    0    0    0 -0.00000000000E+00 -0.00000000000E+00 -0.74505805969E-08  0.93827000000E+00  0.93827000000E+00 0.  1.
     999902    2    1    2    0    0  0.19915030552E-01 -0.94132117260E-02 -0.98457144915E-02  0.10198021097E+01  0.10195166442E+01 0.  0.
     999903    2    3    3    0    0  0.31086829788E-01 -0.92811609866E-01  0.84397553092E-01  0.13077910920E+00  0.19996062712E-01 0.  0.
         14    1    1    2    0    0 -0.19915030552E-01  0.94132117260E-02  0.98457144915E-02  0.24127890309E-01  0.00000000000E+00 0.  1.
     999901    1    3    3    0    0 -0.11171799236E-01  0.83398398140E-01 -0.94243267584E-01  0.88902300049E+00  0.88000000000E+00 0.  1.
        -11    1    4    4    0    0  0.15126478831E-01 -0.43921477339E-01  0.53184053721E-01  0.70616649770E-01  0.51100000000E-03 0.  1.
         11    1    4    4    0    0  0.15960350957E-01 -0.48890132527E-01  0.31213499371E-01  0.60162459434E-01  0.51100000000E-03 0. -1.
</event>
<event>
 8    1  0.1088021E+005  0.1043930E+01  0.7957747E-01            NaN
         13   -1    0    0    0    0  0.00000000000E+00  0.00000000000E+00  0.74505805969E-08  0.10566000000E+00  0.10566000000E+00 0.  1.
     999900   -1    0    0    0    0 -0.00000000000E+00 -0.00000000000E+00 -0.74505805969E-08  0.93827000000E+00  0.93827000000E+00 0. -1.
     999902    2    1    2    0    0 -0.19148349079E-01 -0.49550218474E-02 -0.13904442833E-01  0.10197526336E+01  0.10194659821E+01 0.  0.
     999903    2    3    3    0    0 -0.16448079994E-01 -0.18594031811E-01 -0.12752404369E+00  0.13233912926E+00  0.25198929743E-01 0.  0.
         14    1    1    2    0    0  0.19148349079E-01  0.49550218474E-02  0.13904442833E-01  0.24177366367E-01  0.00000000000E+00 0.  1.
     999901    1    3    3    0    0 -0.27002690849E-02  0.13639009964E-01  0.11361960085E+00  0.88741350437E+00  0.88000000000E+00 0.  1.
        -11    1    4    4    0    0 -0.11040019188E-02 -0.19212143531E-01 -0.57077519125E-01  0.60236447353E-01  0.51100000000E-03 0. -1.
         11    1    4    4    0    0 -0.15344078075E-01  0.61811171993E-03 -0.70446524563E-01  0.72102681906E-01  0.51100000000E-03 0.  1.
</event>
<event>
 8    1  0.1088021E+005  0.1043930E+01  0.7957747E-01            NaN
         13   -1    0    0    0    0  0.00000000000E+00  0.00000000000E+00  0.74505805969E-08  0.10566000000E+00  0.10566000000E+00 0. -1.
     999900   -1    0    0    0    0 -0.00000000000E+00 -0.00000000000E+00 -0.74505805969E-08  0.93827000000E+00  0.93827000000E+00 0. -1.
     999902    2    1    2    0    0  0.86478194923E-02  0.20794088605E-01  0.92342828072E-02  0.10195896861E+01  0.10192991107E+01 0.  0.
     999903    2    3    3    0    0  0.11530491191E+00  0.19052384226E-01  0.57689025478E-01  0.13182472226E+00  0.19786805755E-01 0.  0.
         14    1    1    2    0    0 -0.86478194923E-02 -0.20794088605E-01 -0.92342828072E-02  0.24340313922E-01  0.00000000000E+00 0. -1.
     999901    1    3    3    0    0 -0.10665709242E+00  0.17417043786E-02 -0.48454742670E-01  0.88776496382E+00  0.88000000000E+00 0. -1.
        -11    1    4    4    0    0  0.10478608651E+00  0.14320803669E-01  0.45800091606E-01  0.11525241367E+00  0.51100000000E-03 0.  1.
         11    1    4    4    0    0  0.10518825398E-01  0.47315805570E-02  0.11888933871E-01  0.16572308587E-01  0.51100000000E-03 0. -1.
</event>
<event>
 8    1  0.1088021E+005  0.1043930E+01  0.7957747E-01            NaN
         13   -1    0    0    0    0  0.00000000000E+00  0.00000000000E+00  0.74505805969E-08  0.10566000000E+00  0.10566000000E+00 0.  1.
     999900   -1    0    0    0    0 -0.00000000000E+00 -0.00000000000E+00 -0.74505805969E-08  0.93827000000E+00  0.93827000000E+00 0.  1.
     999902    2    1    2    0    0  0.27501282883E-03 -0.19032059194E-01  0.15375490923E-01  0.10194616402E+01  0.10191679622E+01 0.  0.
     999903    2    3    3    0    0 -0.28508334629E-01 -0.99046104243E-01  0.80725045045E-01  0.13295089989E+00  0.23163613169E-01 0.  0.
         14    1    1    2    0    0 -0.27501282883E-03  0.19032059194E-01 -0.15375490923E-01  0.24468359781E-01  0.00000000000E+00 0. -1.
     999901    1    3    3    0    0  0.28783347458E-01  0.80014045049E-01 -0.65349554122E-01  0.88651074033E+00  0.88000000000E+00 0.  1.
        -11    1    4    4    0    0 -0.32194305334E-01 -0.84873343330E-01  0.66490007679E-01  0.11252173100E+00  0.51100000000E-03 0.  1.
         11    1    4    4    0    0  0.36859707047E-02 -0.14172760912E-01  0.14235037366E-01  0.20429168895E-01  0.51100000000E-03 0. -1.
</event>
<event>
 7    1  0.1088021E+005  0.1043930E+01  0.7957747E-01            NaN
         13   -1    0    0    0    0  0.00000000000E+00  0.00000000000E+00  0.74505805969E-08  0.10566000000E+00  0.10566000000E+00 0.  1.
     999900   -1    0    0    0    0 -0.00000000000E+00 -0.00000000000E+00 -0.74505805969E-08  0.93827000000E+00  0.93827000000E+00 0. -1.
     999902    2    1    2    0    0  0.18768398943E-01  0.90275378328E-02  0.16429811193E-02  0.10230386471E+01  0.10228253149E+01 0.  0.
         14    1    1    2    0    0 -0.18768398943E-01 -0.90275378328E-02 -0.16429811193E-02  0.20891352880E-01  0.00000000000E+00 0.  1.
     999901    1    3    3    0    0  0.25894226819E-01  0.12122908415E+00  0.61072348507E-01  0.89078439231E+00  0.88000000000E+00 0.  1.
        -11    1    3    3    0    0 -0.20693498389E-01 -0.47932444495E-01 -0.30611881156E-01  0.60523454130E-01  0.51100000000E-03 0.  1.
         11    1    3    3    0    0  0.13567670513E-01 -0.64269101827E-01 -0.28817486231E-01  0.71730800682E-01  0.51100000000E-03 0. -1.
</event>
<event>
 8    1  0.1088021E+005  0.1043930E+01  0.7957747E-01            NaN
         13   -1    0    0    0    0  0.00000000000E+00  0.00000000000E+00  0.74505805969E-08  0.10566000000E+00  0.10566000000E+00 0.  1.
     999900   -1    0    0    0    0 -0.00000000000E+00 -0.00000000000E+00 -0.74505805969E-08  0.93827000000E+00  0.93827000000E+00 0.  1.
     999902    2    1    2    0    0 -0.34899086577E-02 -0.57844207984E-02 -0.23786900566E-01  0.10192023712E+01  0.10189023593E+01 0.  0.
     999903    2    3    3    0    0 -0.12304343017E+00 -0.34350890968E-01 -0.19134648173E-01  0.13064695304E+00  0.19565841642E-01 0.  0.
         14    1    1    2    0    0  0.34899086577E-02  0.57844207984E-02  0.23786900566E-01  0.24727628777E-01  0.00000000000E+00 0.  1.
     999901    1    3    3    0    0  0.11955352152E+00  0.28566470169E-01 -0.46522523934E-02  0.88855541818E+00  0.88000000000E+00 0.  1.
        -11    1    4    4    0    0 -0.69154567042E-02 -0.20443352876E-03  0.30626313982E-02  0.75832820451E-02  0.51100000000E-03 0. -1.
         11    1    4    4    0    0 -0.11612797347E+00 -0.34146457439E-01 -0.22197279571E-01  0.12306367100E+00  0.51100000000E-03 0.  1.
</event>
<event>
 8    1  0.1088021E+005  0.1043930E+01  0.7957747E-01            NaN
         13   -1    0    0    0    0  0.00000000000E+00  0.00000000000E+00  0.74505805969E-08  0.10566000000E+00  0.10566000000E+00 0. -1.
     999900   -1    0    0    0    0 -0.00000000000E+00 -0.00000000000E+00 -0.74505805969E-08  0.93827000000E+00  0.93827000000E+00 0.  1.
     999902    2    1    2    0    0 -0.25064678947E-02  0.21621853730E-01  0.89568715147E-02  0.10203925301E+01  0.10201210237E+01 0.  0.
     999903    2    3    3    0    0  0.40071508227E-01 -0.10462056704E+00 -0.58414150943E-01  0.12781822650E+00  0.19341591885E-01 0.  0.
         14    1    1    2    0    0  0.25064678947E-02 -0.21621853730E-01 -0.89568715147E-02  0.23537469859E-01  0.00000000000E+00 0. -1.
     999901    1    3    3    0    0 -0.42577976121E-01  0.12624242077E+00  0.67371022458E-01  0.89257430364E+00  0.88000000000E+00 0. -1.
        -11    1    4    4    0    0  0.41219266170E-01 -0.96323805001E-01 -0.50602615861E-01  0.11635372433E+00  0.51100000000E-03 0. -1.
         11    1    4    4    0    0 -0.11477579438E-02 -0.82967620359E-02 -0.78115350821E-02  0.11464502166E-01  0.51100000000E-03 0.  1.
</event>
<event>
 8    1  0.1088021E+005  0.1043930E+01  0.7957747E-01            NaN
         13   -1    0    0    0    0  0.00000000000E+00  0.00000000000E+00  0.74505805969E-08  0.10566000000E+00  0.10566000000E+00 0. -1.
     999900   -1    0    0    0    0 -0.00000000000E+00 -0.00000000000E+00 -0.74505805969E-08  0.93827000000E+00  0.93827000000E+00 0.  1.
     999902    2    1    2    0    0  0.22833533183E-01 -0.17791757354E-01 -0.70363511053E-04  0.10149831207E+01  0.10145702605E+01 0.  0.
     999903    2    3    3    0    0 -0.84422634220E-01  0.78360970374E-01  0.36739055583E-01  0.12251230003E+00  0.19796025050E-01 0.  0.
         14    1    1    2    0    0 -0.22833533183E-01  0.17791757354E-01  0.70363511053E-04  0.28946879251E-01  0.00000000000E+00 0.  1.
     999901    1    3    3    0    0  0.10725616740E+00 -0.96152727728E-01 -0.36809419094E-01  0.89247082072E+00  0.88000000000E+00 0. -1.
        -11    1    4    4    0    0 -0.17256959797E-01  0.15671666661E-01  0.16129568357E-01  0.28351858736E-01  0.51100000000E-03 0. -1.
         11    1    4    4    0    0 -0.67165674423E-01  0.62689303713E-01  0.20609487226E-01  0.94160441298E-01  0.51100000000E-03 0.  1.
</event>
<event>
 8    1  0.1088021E+005  0.1043930E+01  0.7957747E-01            NaN
         13   -1    0    0    0    0  0.00000000000E+00  0.00000000000E+00  0.74505805969E-08  0.10566000000E+00  0.10566000000E+00 0. -1.
     999900   -1    0    0    0    0 -0.00000000000E+00 -0.00000000000E+00 -0.74505805969E-08  0.93827000000E+00  0.93827000000E+00 0. -1.
     999902    2    1    2    0    0 -0.15706750937E-01  0.23806348605E-02 -0.18932168177E-01  0.10192157037E+01  0.10189160193E+01 0.  0.
     999903    2    3    3    0    0 -0.72598076734E-01  0.80055304694E-01 -0.73612724281E-01  0.13227718248E+00  0.19977168839E-01 0.  0.
         14    1    1    2    0    0  0.15706750937E-01 -0.23806348605E-02  0.18932168177E-01  0.24714296252E-01  0.00000000000E+00 0. -1.
     999901    1    3    3    0    0  0.56891325797E-01 -0.77674669834E-01  0.54680556105E-01  0.88693852126E+00  0.88000000000E+00 0.  1.
        -11    1    4    4    0    0 -0.48949980941E-01  0.60245291781E-01 -0.61864983870E-01  0.99262949615E-01  0.51100000000E-03 0.  1.
         11    1    4    4    0    0 -0.23648095793E-01  0.19810012913E-01 -0.11747740411E-01  0.33014232870E-01  0.51100000000E-03 0. -1.
</event>
<event>
 8    1  0.1088021E+005  0.1043930E+01  0.7957747E-01            NaN
         13   -1    0    0    0    0  0.00000000000E+00  0.00000000000E+00  0.74505805969E-08  0.10566000000E+00  0.10566000000E+00 0. -1.
     999900   -1    0    0    0    0 -0.00000000000E+00 -0.00000000000E+00 -0.74505805969E-08  0.93827000000E+00  0.93827000000E+00 0. -1.
     999902    2    1    2    0    0  0.95598979686E-02 -0.19917477406E-01 -0.10468759972E-01  0.10194822498E+01  0.10191890723E+01 0.  0.
     999903    2    3    3    0    0 -0.22965032363E-01  0.91914787360E-01 -0.84831325864E-01  0.12869938188E+00  0.19785252141E-01 0.  0.
         14    1    1    2    0    0 -0.95598979686E-02  0.19917477406E-01  0.10468759972E-01  0.24447750219E-01  0.00000000000E+00 0. -1.
     999901    1    3    3    0    0  0.32524930332E-01 -0.11183226477E+00  0.74362565892E-01  0.89078286790E+00  0.88000000000E+00 0. -1.
        -11    1    4    4    0    0 -0.22271218478E-01  0.59945714031E-01 -0.64346105861E-01  0.90720329936E-01  0.51100000000E-03 0.  1.
         11    1    4    4    0    0 -0.69381388550E-03  0.31969073329E-01 -0.20485220003E-01  0.37979051947E-01  0.51100000000E-03 0. -1.
</event>
<event>
 8    1  0.1088021E+005  0.1043930E+01  0.7957747E-01            NaN
         13   -1    0    0    0    0  0.00000000000E+00  0.00000000000E+00  0.74505805969E-08  0.10566000000E+00  0.10566000000E+00 0. -1.
     999900   -1    0    0    0    0 -0.00000000000E+00 -0.00000000000E+00 -0.74505805969E-08  0.93827000000E+00  0.93827000000E+00 0.  1.
     999902    2    1    2    0    0 -0.16071795624E-01  0.22365675937E-02  0.18338457155E-01  0.10194431901E+01  0.10191490637E+01 0.  0.
     999903    2    3    3    0    0 -0.10328346406E+00  0.41410859933E-01  0.69581435847E-01  0.13278297153E+00  0.20184351487E-01 0.  0.
         14    1    1    2    0    0  0.16071795624E-01 -0.22365675937E-02 -0.18338457155E-01  0.24486809919E-01  0.00000000000E+00 0.  1.
     999901    1    3    3    0    0  0.87211668439E-01 -0.39174292339E-01 -0.51242978692E-01  0.88666021855E+00  0.88000000000E+00 0.  1.
        -11    1    4    4    0    0 -0.31803097946E-01  0.30926401104E-02  0.21046288194E-01  0.38264981766E-01  0.51100000000E-03 0.  1.
         11    1    4    4    0    0 -0.71480366118E-01  0.38318219822E-01  0.48535147653E-01  0.94517989766E-01  0.51100000000E-03 0. -1.
</event>
<event>
 8    1  0.1088021E+005  0.1043930E+01  0.7957747E-01            NaN
         13   -1    0    0    0    0  0.00000000000E+00  0.00000000000E+00  0.74505805969E-08  0.10566000000E+00  0.10566000000E+00 0.  1.
     999900   -1    0    0    0    0 -0.00000000000E+00 -0.00000000000E+00 -0.74505805969E-08  0.93827000000E+00  0.93827000000E+00 0.  1.
     999902    2    1    2    0    0 -0.17019578343E-01 -0.66218625245E-02  0.14470058529E-01  0.10206298347E+01  0.10203638379E+01 0.  0.
     999903    2    3    3    0    0 -0.11103428777E+00  0.48656781825E-01 -0.47431271779E-01  0.13173936403E+00  0.20234599459E-01 0.  0.
         14    1    1    2    0    0  0.17019578343E-01  0.66218625245E-02 -0.14470058529E-01  0.23300165323E-01  0.00000000000E+00 0.  1.
     999901    1    3    3    0    0  0.94014709424E-01 -0.55278644350E-01  0.61901330308E-01  0.88889047064E+00  0.88000000000E+00 0. -1.
        -11    1    4    4    0    0 -0.80223751954E-01  0.35007977102E-01 -0.43693725885E-01  0.97830525098E-01  0.51100000000E-03 0. -1.
         11    1    4    4    0    0 -0.30810535814E-01  0.13648804723E-01 -0.37375458947E-02  0.33908838934E-01  0.51100000000E-03 0.  1.
</event>
<event>
 8    1  0.1088021E+005  0.1043930E+01  0.7957747E-01            NaN
         13   -1    0    0    0    0  0.00000000000E+00  0.00000000000E+00  0.74505805969E-08  0.10566000000E+00  0.10566000000E+00 0.  1.
     999900   -1    0    0    0    0 -0.00000000000E+00 -0.00000000000E+00 -0.74505805969E-08  0.93827000000E+00  0.93827000000E+00 0.  1.
     999902    2    1    2    0    0 -0.10641840157E-01  0.32723373717E-02  0.20386276333E-01  0.10207016291E+01  0.10204372878E+01 0.  0.
     999903    2    3    3    0    0 -0.92801598887E-03  0.12611614461E+00 -0.28787987376E-01  0.13075608715E+00  0.19033206900E-01 0.  0.
         14    1    1    2    0    0  0.10641840157E-01 -0.32723373717E-02 -0.20386276333E-01  0.23228370940E-01  0.00000000000E+00 0. -1.
     999901    1    3    3    0    0 -0.97138241680E-02 -0.12284380724E+00  0.49174263709E-01  0.88994554191E+00  0.88000000000E+00 0. -1.
        -11    1    4    4    0    0 -0.43740839798E-02  0.70111176213E-01 -0.71377001587E-02  0.70611029770E-01  0.51100000000E-03 0.  1.
         11    1    4    4    0    0  0.34460679909E-02  0.56004968395E-01 -0.21650287218E-01  0.60145057379E-01  0.51100000000E-03 0. -1.
</event>
<event>
 8    1  0.1088021E+005  0.1043930E+01  0.7957747E-01            NaN
         13   -1    0    0    0    0  0.00000000000E+00  0.00000000000E+00  0.74505805969E-08  0.10566000000E+00  0.10566000000E+00 0. -1.
     999900   -1    0    0    0    0 -0.00000000000E+00 -0.00000000000E+00 -0.74505805969E-08  0.93827000000E+00  0.93827000000E+00 0.  1.
     999902    2    1    2    0    0  0.12016144336E-01  0.11534503021E-02  0.20717379160E-01  0.10199523443E+01  0.10196704648E+01 0.  0.
     999903    2    3    3    0    0 -0.10750438922E+00 -0.22994766910E-01  0.67163521288E-01  0.13033133600E+00  0.19732347697E-01 0.  0.
         14    1    1    2    0    0 -0.12016144336E-01 -0.11534503021E-02 -0.20717379160E-01  0.23977655673E-01  0.00000000000E+00 0.  1.
     999901    1    3    3    0    0  0.11952053355E+00  0.24148217213E-01 -0.46446142128E-01  0.88962100833E+00  0.88000000000E+00 0.  1.
        -11    1    4    4    0    0 -0.76654854835E-01 -0.25295187176E-01  0.47163186119E-01  0.93490323082E-01  0.51100000000E-03 0. -1.
         11    1    4    4    0    0 -0.30849534383E-01  0.23004202658E-02  0.20000335169E-01  0.36841012919E-01  0.51100000000E-03 0.  1.
</event>
<event>
 8    1  0.1088021E+005  0.1043930E+01  0.7957747E-01            NaN
         13   -1    0    0    0    0  0.00000000000E+00  0.00000000000E+00  0.74505805969E-08  0.10566000000E+00  0.10566000000E+00 0. -1.
     999900   -1    0    0    0    0 -0.00000000000E+00 -0.00000000000E+00 -0.74505805969E-08  0.93827000000E+00  0.93827000000E+00 0.  1.
     999902    2    1    2    0    0  0.10340406667E-01  0.19198958154E-01  0.74046279792E-02  0.10209006162E+01  0.10206408357E+01 0.  0.
     999903    2    3    3    0    0  0.25729661258E-01 -0.16970242706E-01 -0.12582616529E+00  0.13000472745E+00  0.10908743426E-01 0.  0.
         14    1    1    2    0    0 -0.10340406667E-01 -0.19198958154E-01 -0.74046279792E-02  0.23029383834E-01  0.00000000000E+00 0.  1.
     999901    1    3    3    0    0 -0.15389254591E-01  0.36169200860E-01  0.13323079327E+00  0.89089588871E+00  0.88000000000E+00 0. -1.
        -11    1    4    4    0    0  0.13225954969E-01 -0.14994696413E-01 -0.74491907407E-01  0.77130228805E-01  0.51100000000E-03 0. -1.
         11    1    4    4    0    0  0.12503706289E-01 -0.19755462930E-02 -0.51334257882E-01  0.52874498650E-01  0.51100000000E-03 0.  1.
</event>
<event>
 8    1  0.1088021E+005  0.1043930E+01  0.7957747E-01            NaN
         13   -1    0    0    0    0  0.00000000000E+00  0.00000000000E+00  0.74505805969E-08  0.10566000000E+00  0.10566000000E+00 0. -1.
     999900   -1    0    0    0    0 -0.00000000000E+00 -0.00000000000E+00 -0.74505805969E-08  0.93827000000E+00  0.93827000000E+00 0. -1.
     999902    2    1    2    0    0 -0.19509817048E-01 -0.12613381830E-01 -0.48067692103E-02  0.10202058479E+01  0.10199299666E+01 0.  0.
     999903    2    3    3    0    0 -0.12442016204E+00 -0.31242174292E-01 -0.18627282884E-01  0.13367089710E+00  0.32626413953E-01 0.  0.
         14    1    1    2    0    0  0.19509817048E-01  0.12613381830E-01  0.48067692103E-02  0.23724152096E-01  0.00000000000E+00 0. -1.
     999901    1    3    3    0    0  0.10491034499E+00  0.18628792462E-01  0.13820513674E-01  0.88653495080E+00  0.88000000000E+00 0.  1.
        -11    1    4    4    0    0 -0.10143087565E-01  0.10592732357E-02  0.67416565553E-02  0.12235821969E-01  0.51100000000E-03 0. -1.
         11    1    4    4    0    0 -0.11427707448E+00 -0.32301447528E-01 -0.25368939439E-01  0.12143507513E+00  0.51100000000E-03 0.  1.
</event>
<event>
 8    1  0.1088021E+005  0.1043930E+01  0.7957747E-01            NaN
         13   -1    0    0    0    0  0.00000000000E+00  0.00000000000E+00  0.74505805969E-08  0.10566000000E+00  0.10566000000E+00 0. -1.
     999900   -1    0    0    0    0 -0.00000000000E+00 -0.00000000000E+00 -0.74505805969E-08  0.93827000000E+00  0.93827000000E+00 0.  1.
     999902    2    1    2    0    0  0.22627250236E-01  0.68368991237E-02 -0.62741015660E-02  0.10194739170E+01  0.10191805373E+01 0.  0.
     999903    2    3    3    0    0 -0.83824750355E-01 -0.91500593344E-01 -0.19753103248E-01  0.12751877561E+00  0.21723390393E-01 0.  0.
         14    1    1    2    0    0 -0.22627250236E-01 -0.68368991237E-02  0.62741015660E-02  0.24456082952E-01  0.00000000000E+00 0. -1.
     999901    1    3    3    0    0  0.10645200059E+00  0.98337492468E-01  0.13479001682E-01  0.89195514144E+00  0.88000000000E+00 0. -1.
        -11    1    4    4    0    0 -0.24658130819E-01 -0.22343396348E-01  0.38284524767E-02  0.33498790206E-01  0.51100000000E-03 0. -1.
         11    1    4    4    0    0 -0.59166619536E-01 -0.69157196996E-01 -0.23581555725E-01  0.94019985402E-01  0.51100000000E-03 0.  1.
</event>
<event>
 8    1  0.1088021E+005  0.1043930E+01  0.7957747E-01            NaN
         13   -1    0    0    0    0  0.00000000000E+00  0.00000000000E+00  0.74505805969E-08  0.10566000000E+00  0.10566000000E+00 0. -1.
     999900   -1    0    0    0    0 -0.00000000000E+00 -0.00000000000E+00 -0.74505805969E-08  0.93827000000E+00  0.93827000000E+00 0. -1.
     999902    2    1    2    0    0 -0.11231458754E-01 -0.81484244172E-02  0.17631378683E-01  0.10214932444E+01  0.10212468068E+01 0.  0.
     999903    2    3    3    0    0 -0.60868093227E-01 -0.78648285980E-01 -0.83698101142E-01  0.13149229531E+00  0.19858850147E-01 0.  0.
         14    1    1    2    0    0  0.11231458754E-01  0.81484244172E-02 -0.17631378683E-01  0.22436755570E-01  0.00000000000E+00 0.  1.
     999901    1    3    3    0    0  0.49636634473E-01  0.70499861563E-01  0.10132947983E+00  0.89000094913E+00  0.88000000000E+00 0.  1.
        -11    1    4    4    0    0 -0.54680570355E-01 -0.72618655326E-01 -0.67847075267E-01  0.11343244959E+00  0.51100000000E-03 0.  1.
         11    1    4    4    0    0 -0.61875228717E-02 -0.60296306537E-02 -0.15851025876E-01  0.18059845720E-01  0.51100000000E-03 0. -1.
</event>
<event>
 8    1  0.1088271E+005  0.1043930E+01  0.7957747E-01            NaN
         13   -1    0    0    0    0  0.00000000000E+00  0.00000000000E+00  0.74505805969E-08  0.10566000000E+00  0.10566000000E+00 0.  1.
     999900   -1    0    0    0    0 -0.00000000000E+00 -0.00000000000E+00 -0.74505805969E-08  0.93827000000E+00  0.93827000000E+00 0.  1.
     999902    2    1    2    0    0 -0.12663296605E-03  0.33791057270E-02 -0.20499861372E-01  0.10231531208E+01  0.10229421440E+01 0.  0.
     999903    2    3    3    0    0  0.41804366871E-01 -0.11995154850E+00  0.30162026653E-01  0.13212265788E+00  0.20264989462E-01 0.  0.
         14    1    1    2    0    0  0.12663296605E-03 -0.33791057270E-02  0.20499861372E-01  0.20776879161E-01  0.00000000000E+00 0.  1.
     999901    1    3    3    0    0 -0.41930999837E-01  0.12333065422E+00 -0.50661888025E-01  0.89103046296E+00  0.88000000000E+00 0.  1.
        -11    1    4    4    0    0  0.27212911633E-01 -0.59635076719E-01  0.23798161223E-01  0.69738787869E-01  0.51100000000E-03 0.  1.
         11    1    4    4    0    0  0.14591455238E-01 -0.60316471777E-01  0.63638654295E-02  0.62383870013E-01  0.51100000000E-03 0. -1.
</event>
<event>
 8    1  0.1088021E+005  0.1043930E+01  0.7957747E-01            NaN
         13   -1    0    0    0    0  0.00000000000E+00  0.00000000000E+00  0.74505805969E-08  0.10566000000E+00  0.10566000000E+00 0.  1.
     999900   -1    0    0    0    0 -0.00000000000E+00 -0.00000000000E+00 -0.74505805969E-08  0.93827000000E+00  0.93827000000E+00 0. -1.
     999902    2    1    2    0    0  0.17650601661E-01  0.77019585127E-02 -0.17569091273E-01  0.10178620720E+01  0.10175282112E+01 0.  0.
     999903    2    3    3    0    0  0.12385970075E+00 -0.23486671520E-01 -0.27647594512E-01  0.13087014438E+00  0.21673855170E-01 0.  0.
         14    1    1    2    0    0 -0.17650601661E-01 -0.77019585127E-02  0.17569091273E-01  0.26067928036E-01  0.00000000000E+00 0.  1.
     999901    1    3    3    0    0 -0.10620909909E+00  0.31188630033E-01  0.10078503239E-01  0.88699192758E+00  0.88000000000E+00 0.  1.
        -11    1    4    4    0    0  0.86436832145E-01 -0.65492505973E-02 -0.15788876038E-01  0.88112248651E-01  0.51100000000E-03 0.  1.
         11    1    4    4    0    0  0.37422868607E-01 -0.16937420923E-01 -0.11858718474E-01  0.42757895729E-01  0.51100000000E-03 0. -1.
</event>
<event>
 8    1  0.1088021E+005  0.1043930E+01  0.7957747E-01            NaN
         13   -1    0    0    0    0  0.00000000000E+00  0.00000000000E+00  0.74505805969E-08  0.10566000000E+00  0.10566000000E+00 0. -1.
     999900   -1    0    0    0    0 -0.00000000000E+00 -0.00000000000E+00 -0.74505805969E-08  0.93827000000E+00  0.93827000000E+00 0. -1.
     999902    2    1    2    0    0 -0.29120797152E-02 -0.12614776391E-01 -0.29810222260E-01  0.10114298132E+01  0.10109075155E+01 0.  0.
     999903    2    3    3    0    0  0.29733209382E-01 -0.36580932684E-02  0.11302105771E+00  0.11927135663E+00  0.23546796808E-01 0.  0.
         14    1    1    2    0    0  0.29120797152E-02  0.12614776391E-01  0.29810222260E-01  0.32500186813E-01  0.00000000000E+00 0. -1.
     999901    1    3    3    0    0 -0.32645289097E-01 -0.89566831228E-02 -0.14283127997E+00  0.89215845656E+00  0.88000000000E+00 0. -1.
        -11    1    4    4    0    0  0.10955158447E-01 -0.13089460916E-01  0.49488964843E-01  0.52352347091E-01  0.51100000000E-03 0. -1.
         11    1    4    4    0    0  0.18778050935E-01  0.94313676480E-02  0.63532092865E-01  0.66919009537E-01  0.51100000000E-03 0.  1.
</event>
<event>
 8    1  0.1088021E+005  0.1043930E+01  0.7957747E-01            NaN
         13   -1    0    0    0    0  0.00000000000E+00  0.00000000000E+00  0.74505805969E-08  0.10566000000E+00  0.10566000000E+00 0. -1.
     999900   -1    0    0    0    0 -0.00000000000E+00 -0.00000000000E+00 -0.74505805969E-08  0.93827000000E+00  0.93827000000E+00 0. -1.
     999902    2    1    2    0    0  0.14305536558E-02  0.19783627426E-01 -0.13063240216E-01  0.10201794917E+01  0.10199029899E+01 0.  0.
     999903    2    3    3    0    0 -0.67237070016E-01  0.67368423294E-01  0.86585278185E-01  0.13062376973E+00  0.22499572833E-01 0.  0.
         14    1    1    2    0    0 -0.14305536558E-02 -0.19783627426E-01  0.13063240216E-01  0.23750508265E-01  0.00000000000E+00 0.  1.
     999901    1    3    3    0    0  0.68667623672E-01 -0.47584795868E-01 -0.99648518401E-01  0.88955572201E+00  0.88000000000E+00 0. -1.
        -11    1    4    4    0    0 -0.11446249800E-01  0.25547384566E-01  0.22485729477E-01  0.35910369585E-01  0.51100000000E-03 0. -1.
         11    1    4    4    0    0 -0.55790820216E-01  0.41821038728E-01  0.64099548708E-01  0.94713400141E-01  0.51100000000E-03 0.  1.
</event>
<event>
 8    1  0.1088021E+005  0.1043930E+01  0.7957747E-01            NaN
         13   -1    0    0    0    0  0.00000000000E+00  0.00000000000E+00  0.74505805969E-08  0.10566000000E+00  0.10566000000E+00 0. -1.
     999900   -1    0    0    0    0 -0.00000000000E+00 -0.00000000000E+00 -0.74505805969E-08  0.93827000000E+00  0.93827000000E+00 0. -1.
     999902    2    1    2    0    0  0.17250847890E-01 -0.62242021010E-02  0.15473659156E-01  0.10199348636E+01  0.10196525680E+01 0.  0.
     999903    2    3    3    0    0 -0.95275500147E-01 -0.71910581063E-01 -0.42853919254E-01  0.12843108579E+00  0.20236916896E-01 0.  0.
         14    1    1    2    0    0 -0.17250847890E-01  0.62242021010E-02 -0.15473659156E-01  0.23995136432E-01  0.00000000000E+00 0.  1.
     999901    1    3    3    0    0  0.11252634804E+00  0.65686378962E-01  0.58327578410E-01  0.89150377777E+00  0.88000000000E+00 0.  1.
        -11    1    4    4    0    0 -0.64636098549E-01 -0.51587764944E-01 -0.19821454209E-01  0.85042776857E-01  0.51100000000E-03 0. -1.
         11    1    4    4    0    0 -0.30639401597E-01 -0.20322816119E-01 -0.23032465045E-01  0.43388308935E-01  0.51100000000E-03 0.  1.
</event>
<event>
 8    1  0.1088021E+005  0.1043930E+01  0.7957747E-01            NaN
         13   -1    0    0    0    0  0.00000000000E+00  0.00000000000E+00  0.74505805969E-08  0.10566000000E+00  0.10566000000E+00 0.  1.
     999900   -1    0    0    0    0 -0.00000000000E+00 -0.00000000000E+00 -0.74505805969E-08  0.93827000000E+00  0.93827000000E+00 0. -1.
     999902    2    1    2    0    0  0.50085611133E-02  0.21493862815E-01 -0.82067278776E-02  0.10203838282E+01  0.10201121187E+01 0.  0.
     999903    2    3    3    0    0 -0.28771330085E-01 -0.21676220498E-01 -0.12436914681E+00  0.13105911546E+00  0.20277058435E-01 0.  0.
         14    1    1    2    0    0 -0.50085611133E-02 -0.21493862815E-01  0.82067278776E-02  0.23546171782E-01  0.00000000000E+00 0. -1.
     999901    1    3    3    0    0  0.33779891198E-01  0.43170083313E-01  0.11616241893E+00  0.88932471275E+00  0.88000000000E+00 0.  1.
        -11    1    4    4    0    0 -0.72535817283E-02 -0.18116369696E-01 -0.58492877351E-01  0.61664374810E-01  0.51100000000E-03 0.  1.
         11    1    4    4    0    0 -0.21517748357E-01 -0.35598508020E-02 -0.65876269456E-01  0.69394740655E-01  0.51100000000E-03 0. -1.
</event>
<event>
 8    1  0.1088021E+005  0.1043930E+01  0.7957747E-01            NaN
         13   -1    0    0    0    0  0.00000000000E+00  0.00000000000E+00  0.74505805969E-08  0.10566000000E+00  0.10566000000E+00 0. -1.
     999900   -1    0    0    0    0 -0.00000000000E+00 -0.00000000000E+00 -0.74505805969E-08  0.93827000000E+00  0.93827000000E+00 0.  1.
     999902    2    1    2    0    0  0.16057358390E-01 -0.17353159815E-01  0.30956989197E-02  0.10200856240E+01  0.10198069063E+01 0.  0.
     999903    2    3    3    0    0  0.55810357074E-01 -0.15538000765E-01  0.11695938248E+00  0.13185787499E+00  0.18729031566E-01 0.  0.
         14    1    1    2    0    0 -0.16057358390E-01  0.17353159815E-01 -0.30956989197E-02  0.23844375979E-01  0.00000000000E+00 0.  1.
     999901    1    3    3    0    0 -0.39752998684E-01 -0.18151590496E-02 -0.11386368356E+00  0.88822774903E+00  0.88000000000E+00 0. -1.
        -11    1    4    4    0    0  0.48319591261E-01 -0.12714105453E-01  0.11141533821E+00  0.12210679787E+00  0.51100000000E-03 0.  1.
         11    1    4    4    0    0  0.74907658136E-02 -0.28238953126E-02  0.55440442742E-02  0.97510771264E-02  0.51100000000E-03 0. -1.
</event>
<event>
 8    1  0.1088021E+005  0.1043930E+01  0.7957747E-01            NaN
         13   -1    0    0    0    0  0.00000000000E+00  0.00000000000E+00  0.74505805969E-08  0.10566000000E+00  0.10566000000E+00 0. -1.
     999900   -1    0    0    0    0 -0.00000000000E+00 -0.00000000000E+00 -0.74505805969E-08  0.93827000000E+00  0.93827000000E+00 0. -1.
     999902    2    1    2    0    0  0.15988231224E-01 -0.17193382705E-01  0.23059770528E-03  0.10204504531E+01  0.10201802969E+01 0.  0.
     999903    2    3    3    0    0 -0.30198196567E-01 -0.28724750035E-01 -0.12225633851E+00  0.13069250396E+00  0.19921745498E-01 0.  0.
         14    1    1    2    0    0 -0.15988231224E-01  0.17193382705E-01 -0.23059770528E-03  0.23479546883E-01  0.00000000000E+00 0. -1.
     999901    1    3    3    0    0  0.46186427792E-01  0.11531367330E-01  0.12248693622E+00  0.88975794916E+00  0.88000000000E+00 0.  1.
        -11    1    4    4    0    0 -0.10600551813E-01 -0.21810881024E-01 -0.80056882315E-01  0.83650772602E-01  0.51100000000E-03 0.  1.
         11    1    4    4    0    0 -0.19597644755E-01 -0.69138690111E-02 -0.42199456199E-01  0.47041731358E-01  0.51100000000E-03 0. -1.
</event>
<event>
 8    1  0.1088021E+005  0.1043930E+01  0.7957747E-01            NaN
         13   -1    0    0    0    0  0.00000000000E+00  0.00000000000E+00  0.74505805969E-08  0.10566000000E+00  0.10566000000E+00 0. -1.
     999900   -1    0    0    0    0 -0.00000000000E+00 -0.00000000000E+00 -0.74505805969E-08  0.93827000000E+00  0.93827000000E+00 0.  1.
     999902    2    1    2    0    0  0.12600276187E-01 -0.16104282920E-01 -0.12464090451E-01  0.10199827989E+01  0.10197016435E+01 0.  0.
     999903    2    3    3    0    0  0.48060799204E-01  0.24991086850E-01  0.11541634651E+00  0.12908455319E+00  0.20186480328E-01 0.  0.
         14    1    1    2    0    0 -0.12600276187E-01  0.16104282920E-01  0.12464090451E-01  0.23947201070E-01  0.00000000000E+00 0.  1.
     999901    1    3    3    0    0 -0.35460523017E-01 -0.41095369769E-01 -0.12788043696E+00  0.89089824574E+00  0.88000000000E+00 0.  1.
        -11    1    4    4    0    0  0.26454055682E-01  0.55524505237E-02  0.40187000625E-01  0.48434521873E-01  0.51100000000E-03 0. -1.
         11    1    4    4    0    0  0.21606743522E-01  0.19438636326E-01  0.75229345885E-01  0.80650031315E-01  0.51100000000E-03 0.  1.
</event>
<event>
 8    1  0.1088021E+005  0.1043930E+01  0.7957747E-01            NaN
         13   -1    0    0    0    0  0.00000000000E+00  0.00000000000E+00  0.74505805969E-08  0.10566000000E+00  0.10566000000E+00 0. -1.
     999900   -1    0    0    0    0 -0.00000000000E+00 -0.00000000000E+00 -0.74505805969E-08  0.93827000000E+00  0.93827000000E+00 0.  1.
     999902    2    1    2    0    0  0.29376056393E-02  0.16786089044E-01 -0.17484484847E-02  0.10267993437E+01  0.10266564337E+01 0.  0.
     999903    2    3    3    0    0 -0.10284962268E+00  0.88890627472E-01  0.63142427234E-02  0.13749905185E+00  0.19660393180E-01 0.  0.
         14    1    1    2    0    0 -0.29376056393E-02 -0.16786089044E-01  0.17484484847E-02  0.17130656275E-01  0.00000000000E+00 0. -1.
     999901    1    3    3    0    0  0.10578722832E+00 -0.72104538428E-01 -0.80626912080E-02  0.88930029187E+00  0.88000000000E+00 0.  1.
        -11    1    4    4    0    0 -0.26847065517E-01  0.14154875958E-01  0.58067670283E-02  0.30904774786E-01  0.51100000000E-03 0.  1.
         11    1    4    4    0    0 -0.76002557168E-01  0.74735751514E-01  0.50747569506E-03  0.10659427707E+00  0.51100000000E-03 0. -1.
</event>
<event>
 8    1  0.1088021E+005  0.1043930E+01  0.7957747E-01            NaN
         13   -1    0    0    0    0  0.00000000000E+00  0.00000000000E+00  0.74505805969E-08  0.10566000000E+00  0.10566000000E+00 0.  1.
     999900   -1    0    0    0    0 -0.00000000000E+00 -0.00000000000E+00 -0.74505805969E-08  0.93827000000E+00  0.93827000000E+00 0.  1.
     999902    2    1    2    0    0 -0.80376828982E-04  0.37438012625E-02 -0.23334596881E-01  0.10202968470E+01  0.10200231027E+01 0.  0.
     999903    2    3    3    0    0  0.91872098877E-01  0.88300973676E-01 -0.25957306559E-01  0.13147062564E+00  0.19318362743E-01 0.  0.
         14    1    1    2    0    0  0.80376828982E-04 -0.37438012625E-02  0.23334596881E-01  0.23633152983E-01  0.00000000000E+00 0.  1.
     999901    1    3    3    0    0 -0.91952475706E-01 -0.84557172414E-01  0.26227096786E-02  0.88882622137E+00  0.88000000000E+00 0. -1.
        -11    1    4    4    0    0  0.55693640819E-01  0.61170218136E-01 -0.24273896786E-01  0.86215198200E-01  0.51100000000E-03 0.  1.
         11    1    4    4    0    0  0.36178458058E-01  0.27130755540E-01 -0.16834097731E-02  0.45255427443E-01  0.51100000000E-03 0. -1.
</event>
<event>
 8    1  0.1088021E+005  0.1043930E+01  0.7957747E-01            NaN
         13   -1    0    0    0    0  0.00000000000E+00  0.00000000000E+00  0.74505805969E-08  0.10566000000E+00  0.10566000000E+00 0.  1.
     999900   -1    0    0    0    0 -0.00000000000E+00 -0.00000000000E+00 -0.74505805969E-08  0.93827000000E+00  0.93827000000E+00 0. -1.
     999902    2    1    2    0    0  0.23313296919E-01 -0.12437016248E-02  0.28326995837E-02  0.10204123302E+01  0.10201412857E+01 0.  0.
     999903    2    3    3    0    0 -0.90319065817E-01 -0.80623532594E-01 -0.38784441378E-01  0.12859090307E+00  0.19331316595E-01 0.  0.
         14    1    1    2    0    0 -0.23313296919E-01  0.12437016248E-02 -0.28326995837E-02  0.23517669823E-01  0.00000000000E+00 0.  1.
     999901    1    3    3    0    0  0.11363236274E+00  0.79379830970E-01  0.41617140961E-01  0.89182142711E+00  0.88000000000E+00 0.  1.
        -11    1    4    4    0    0 -0.80757587619E-01 -0.65720847369E-01 -0.27878271180E-01  0.10778903869E+00  0.51100000000E-03 0. -1.
         11    1    4    4    0    0 -0.95614781974E-02 -0.14902685225E-01 -0.10906170197E-01  0.20801864378E-01  0.51100000000E-03 0.  1.
</event>
<event>
 8    1  0.1088021E+005  0.1043930E+01  0.7957747E-01            NaN
         13   -1    0    0    0    0  0.00000000000E+00  0.00000000000E+00  0.74505805969E-08  0.10566000000E+00  0.10566000000E+00 0. -1.
     999900   -1    0    0    0    0 -0.00000000000E+00 -0.00000000000E+00 -0.74505805969E-08  0.93827000000E+00  0.93827000000E+00 0.  1.
     999902    2    1    2    0    0  0.16904066891E-02 -0.27540596336E-01 -0.23955429223E-02  0.10162337810E+01  0.10158562975E+01 0.  0.
     999903    2    3    3    0    0 -0.88602414206E-01  0.74647241848E-01  0.41033089421E-01  0.12467268164E+00  0.20903698261E-01 0.  0.
         14    1    1    2    0    0 -0.16904066891E-02  0.27540596336E-01  0.23955429223E-02  0.27696219006E-01  0.00000000000E+00 0. -1.
     999901    1    3    3    0    0  0.90292820895E-01 -0.10218783818E+00 -0.43428632343E-01  0.89156109936E+00  0.88000000000E+00 0.  1.
        -11    1    4    4    0    0 -0.79688118172E-01  0.72994019510E-01  0.34341523150E-01  0.11339278811E+00  0.51100000000E-03 0.  1.
         11    1    4    4    0    0 -0.89142960334E-02  0.16532223382E-02  0.66915662704E-02  0.11279893529E-01  0.51100000000E-03 0. -1.
</event>
<event>
 8    1  0.1088021E+005  0.1043930E+01  0.7957747E-01            NaN
         13   -1    0    0    0    0  0.00000000000E+00  0.00000000000E+00  0.74505805969E-08  0.10566000000E+00  0.10566000000E+00 0.  1.
     999900   -1    0    0    0    0 -0.00000000000E+00 -0.00000000000E+00 -0.74505805969E-08  0.93827000000E+00  0.93827000000E+00 0. -1.
     999902    2    1    2    0    0  0.10115950280E-01 -0.21215183993E-01 -0.62525547450E-02  0.10196090024E+01  0.10193188936E+01 0.  0.
     999903    2    3    3    0    0 -0.31522439231E-02  0.95692655098E-02  0.12475696039E+00  0.12927916447E+00  0.32361948605E-01 0.  0.
         14    1    1    2    0    0 -0.10115950280E-01  0.21215183993E-01  0.62525547450E-02  0.24320997569E-01  0.00000000000E+00 0.  1.
     999901    1    3    3    0    0  0.13268194203E-01 -0.30784449502E-01 -0.13100951513E+00  0.89032983796E+00  0.88000000000E+00 0. -1.
        -11    1    4    4    0    0  0.42543733648E-02  0.13125064248E-01  0.20609241039E-01  0.24806630998E-01  0.51100000000E-03 0. -1.
         11    1    4    4    0    0 -0.74066172879E-02 -0.35557987378E-02  0.10414771935E+00  0.10447253347E+00  0.51100000000E-03 0.  1.
</event>
<event>
 8    1  0.1088021E+005  0.1043930E+01  0.7957747E-01            NaN
         13   -1    0    0    0    0  0.00000000000E+00  0.00000000000E+00  0.74505805969E-08  0.10566000000E+00  0.10566000000E+00 0. -1.
     999900   -1    0    0    0    0 -0.00000000000E+00 -0.00000000000E+00 -0.74505805969E-08  0.93827000000E+00  0.93827000000E+00 0. -1.
     999902    2    1    2    0    0  0.87259162239E-02  0.99011770165E-02 -0.22480690642E-01  0.10178616979E+01  0.10175278275E+01 0.  0.
     999903    2    3    3    0    0 -0.57796810260E-01 -0.81237127299E-01  0.73582135755E-01  0.12547191188E+00  0.19721253545E-01 0.  0.
         14    1    1    2    0    0 -0.87259162239E-02 -0.99011770165E-02  0.22480690642E-01  0.26068302055E-01  0.00000000000E+00 0. -1.
     999901    1    3    3    0    0  0.66522726484E-01  0.91138304315E-01 -0.96062826397E-01  0.89238978606E+00  0.88000000000E+00 0. -1.
        -11    1    4    4    0    0 -0.11670007070E-02 -0.10169046266E-01  0.39304402839E-02  0.10976378020E-01  0.51100000000E-03 0.  1.
         11    1    4    4    0    0 -0.56629809553E-01 -0.71068081033E-01  0.69651695471E-01  0.11449553386E+00  0.51100000000E-03 0. -1.
</event>
<event>
 8    1  0.1088021E+005  0.1043930E+01  0.7957747E-01            NaN
         13   -1    0    0    0    0  0.00000000000E+00  0.00000000000E+00  0.74505805969E-08  0.10566000000E+00  0.10566000000E+00 0.  1.
     999900   -1    0    0    0    0 -0.00000000000E+00 -0.00000000000E+00 -0.74505805969E-08  0.93827000000E+00  0.93827000000E+00 0.  1.
     999902    2    1    2    0    0  0.13616902327E-01  0.18898809138E-01  0.40706182280E-02  0.10202835426E+01  0.10200094864E+01 0.  0.
     999903    2    3    3    0    0 -0.11692853923E+00  0.42503353971E-01 -0.30532103473E-01  0.12966766848E+00  0.20066801462E-01 0.  0.
         14    1    1    2    0    0 -0.13616902327E-01 -0.18898809138E-01 -0.40706182280E-02  0.23646457421E-01  0.00000000000E+00 0. -1.
     999901    1    3    3    0    0  0.13054544156E+00 -0.23604544833E-01  0.34602721701E-01  0.89061587410E+00  0.88000000000E+00 0.  1.
        -11    1    4    4    0    0 -0.59585569600E-01  0.11832724236E-01 -0.10763707828E-01  0.61697422917E-01  0.51100000000E-03 0. -1.
         11    1    4    4    0    0 -0.57342969632E-01  0.30670629735E-01 -0.19768395644E-01  0.67970245563E-01  0.51100000000E-03 0.  1.
</event>
<event>
 8    1  0.1088021E+005  0.1043930E+01  0.7957747E-01            NaN
         13   -1    0    0    0    0  0.00000000000E+00  0.00000000000E+00  0.74505805969E-08  0.10566000000E+00  0.10566000000E+00 0. -1.
     999900   -1    0    0    0    0 -0.00000000000E+00 -0.00000000000E+00 -0.74505805969E-08  0.93827000000E+00  0.93827000000E+00 0. -1.
     999902    2    1    2    0    0  0.27731893391E-02 -0.50748340097E-02 -0.22985829214E-01  0.10202278300E+01  0.10199524657E+01 0.  0.
     999903    2    3    3    0    0 -0.12653401500E+00 -0.43387467064E-02  0.19656001351E-01  0.12975648252E+00  0.20511087038E-01 0.  0.
         14    1    1    2    0    0 -0.27731893391E-02  0.50748340097E-02  0.22985829214E-01  0.23702170028E-01  0.00000000000E+00 0. -1.
     999901    1    3    3    0    0  0.12930720434E+00 -0.73608730326E-03 -0.42641830565E-01  0.89047134745E+00  0.88000000000E+00 0. -1.
        -11    1    4    4    0    0 -0.85564086702E-01  0.10565948536E-02  0.43375738916E-02  0.85681999242E-01  0.51100000000E-03 0.  1.
         11    1    4    4    0    0 -0.40969928300E-01 -0.53953415600E-02  0.15318427459E-01  0.44074483278E-01  0.51100000000E-03 0. -1.
</event>
<event>
 8    1  0.1088021E+005  0.1043930E+01  0.7957747E-01            NaN
         13   -1    0    0    0    0  0.00000000000E+00  0.00000000000E+00  0.74505805969E-08  0.10566000000E+00  0.10566000000E+00 0.  1.
     999900   -1    0    0    0    0 -0.00000000000E+00 -0.00000000000E+00 -0.74505805969E-08  0.93827000000E+00  0.93827000000E+00 0.  1.
     999902    2    1    2    0    0 -0.10079843082E-01 -0.22489152323E-01  0.51902478349E-02  0.10187446098E+01  0.10184332457E+01 0.  0.
     999903    2    3    3    0    0 -0.10747443626E+00 -0.11729122449E-02  0.71546510580E-01  0.13063243077E+00  0.19844359910E-01 0.  0.
         14    1    1    2    0    0  0.10079843082E-01  0.22489152323E-01 -0.51902478349E-02  0.25185390236E-01  0.00000000000E+00 0.  1.
     999901    1    3    3    0    0  0.97394593178E-01 -0.21316240078E-01 -0.66356262745E-01  0.88811217899E+00  0.88000000000E+00 0. -1.
        -11    1    4    4    0    0 -0.90405616067E-01  0.52780291934E-02  0.54739561364E-01  0.10581925018E+00  0.51100000000E-03 0.  1.
         11    1    4    4    0    0 -0.17068820192E-01 -0.64509414384E-02  0.16806949216E-01  0.24813180593E-01  0.51100000000E-03 0. -1.
</event>
<event>
 8    1  0.1088021E+005  0.1043930E+01  0.7957747E-01            NaN
         13   -1    0    0    0    0  0.00000000000E+00  0.00000000000E+00  0.74505805969E-08  0.10566000000E+00  0.10566000000E+00 0. -1.
     999900   -1    0    0    0    0 -0.00000000000E+00 -0.00000000000E+00 -0.74505805969E-08  0.93827000000E+00  0.93827000000E+00 0.  1.
     999902    2    1    2    0    0  0.92340966774E-02 -0.89116629818E-02 -0.20175165682E-01  0.10200192579E+01  0.10197389680E+01 0.  0.
     999903    2    3    3    0    0 -0.12700488160E+00 -0.11058225354E-01 -0.12937049670E-01  0.12950364473E+00  0.18743063952E-01 0.  0.
         14    1    1    2    0    0 -0.92340966774E-02  0.89116629818E-02  0.20175165682E-01  0.23910742123E-01  0.00000000000E+00 0. -1.
     999901    1    3    3    0    0  0.13623897828E+00  0.21465623721E-02 -0.72381160123E-02  0.89051561315E+00  0.88000000000E+00 0.  1.
        -11    1    4    4    0    0 -0.27447186854E-01  0.46983933583E-02 -0.58337325467E-02  0.28455518319E-01  0.51100000000E-03 0. -1.
         11    1    4    4    0    0 -0.99557694746E-01 -0.15756618712E-01 -0.71033171233E-02  0.10104812641E+00  0.51100000000E-03 0.  1.
</event>
<event>
 8    1  0.1088021E+005  0.1043930E+01  0.7957747E-01            NaN
         13   -1    0    0    0    0  0.00000000000E+00  0.00000000000E+00  0.74505805969E-08  0.10566000000E+00  0.10566000000E+00 0. -1.
     999900   -1    0    0    0    0 -0.00000000000E+00 -0.00000000000E+00 -0.74505805969E-08  0.93827000000E+00  0.93827000000E+00 0. -1.
     999902    2    1    2    0    0 -0.24210100666E-02  0.23173992887E-01  0.43094553571E-02  0.10202347127E+01  0.10199595101E+01 0.  0.
     999903    2    3    3    0    0 -0.85366568985E-01 -0.85778648511E-01  0.39556818927E-01  0.12894742989E+00  0.20427190478E-01 0.  0.
         14    1    1    2    0    0  0.24210100666E-02 -0.23173992887E-01 -0.43094553571E-02  0.23695287328E-01  0.00000000000E+00 0. -1.
     999901    1    3    3    0    0  0.82945558918E-01  0.10895264140E+00 -0.35247363570E-01  0.89128728278E+00  0.88000000000E+00 0. -1.
        -11    1    4    4    0    0 -0.42575432108E-01 -0.57036445419E-01  0.23402368230E-01  0.74924999066E-01  0.51100000000E-03 0.  1.
         11    1    4    4    0    0 -0.42791136876E-01 -0.28742203092E-01  0.16154450696E-01  0.54022430824E-01  0.51100000000E-03 0. -1.
</event>
<event>
 8    1  0.1088021E+005  0.1043930E+01  0.7957747E-01            NaN
         13   -1    0    0    0    0  0.00000000000E+00  0.00000000000E+00  0.74505805969E-08  0.10566000000E+00  0.10566000000E+00 0. -1.
     999900   -1    0    0    0    0 -0.00000000000E+00 -0.00000000000E+00 -0.74505805969E-08  0.93827000000E+00  0.93827000000E+00 0.  1.
     999902    2    1    2    0    0  0.62031201735E-04 -0.70791742198E-02 -0.22179915923E-01  0.10206476628E+01  0.10203820776E+01 0.  0.
     999903    2    3    3    0    0  0.90136703949E-01 -0.88132425670E-01 -0.34492404065E-01  0.13225885512E+00  0.20266449246E-01 0.  0.
         14    1    1    2    0    0 -0.62031201735E-04  0.70791742198E-02  0.22179915923E-01  0.23282337208E-01  0.00000000000E+00 0. -1.
     999901    1    3    3    0    0 -0.90074672747E-01  0.81053251450E-01  0.12312488142E-01  0.88838880768E+00  0.88000000000E+00 0. -1.
        -11    1    4    4    0    0  0.25434879037E-01 -0.38396827052E-01 -0.13313158375E-01  0.47945288676E-01  0.51100000000E-03 0. -1.
         11    1    4    4    0    0  0.64701824911E-01 -0.49735598618E-01 -0.21179245690E-01  0.84313566439E-01  0.51100000000E-03 0.  1.
</event>
<event>
 7    1  0.1088021E+005  0.1043930E+01  0.7957747E-01            NaN
         13   -1    0    0    0    0  0.00000000000E+00  0.00000000000E+00  0.74505805969E-08  0.10566000000E+00  0.10566000000E+00 0.  1.
     999900   -1    0    0    0    0 -0.00000000000E+00 -0.00000000000E+00 -0.74505805969E-08  0.93827000000E+00  0.93827000000E+00 0. -1.
     999903    2    1    2    0    0 -0.42753740242E-01  0.42369222419E-01  0.68451098782E-01  0.93390955613E-01  0.20329396273E-01 0.  0.
         14    1    1    2    0    0  0.25828743121E-03 -0.64449900012E-01 -0.21671011212E-01  0.67996242918E-01  0.00000000000E+00 0.  1.
     999901    1    1    2    0    0  0.42495452810E-01  0.22080677593E-01 -0.46780087570E-01  0.88254280147E+00  0.88000000000E+00 0.  1.
        -11    1    3    3    0    0 -0.14128559152E-01  0.14683457465E-01  0.38485706576E-01  0.43550325354E-01  0.51100000000E-03 0.  1.
         11    1    3    3    0    0 -0.28625181090E-01  0.27685764954E-01  0.29965392206E-01  0.49840630259E-01  0.51100000000E-03 0. -1.
</event>
<event>
 8    1  0.1088021E+005  0.1043930E+01  0.7957747E-01            NaN
         13   -1    0    0    0    0  0.00000000000E+00  0.00000000000E+00  0.74505805969E-08  0.10566000000E+00  0.10566000000E+00 0.  1.
     999900   -1    0    0    0    0 -0.00000000000E+00 -0.00000000000E+00 -0.74505805969E-08  0.93827000000E+00  0.93827000000E+00 0. -1.
     999902    2    1    2    0    0 -0.21492769676E-01  0.13769787296E-01  0.37137885528E-02  0.10181358453E+01  0.10178090494E+01 0.  0.
     999903    2    3    3    0    0 -0.12253211917E+00 -0.35477590028E-01  0.19885863301E-01  0.13083894443E+00  0.21227392612E-01 0.  0.
         14    1    1    2    0    0  0.21492769676E-01 -0.13769787296E-01 -0.37137885528E-02  0.25794154685E-01  0.00000000000E+00 0.  1.
     999901    1    3    3    0    0  0.10103934950E+00  0.49247377324E-01 -0.16172074748E-01  0.88729690089E+00  0.88000000000E+00 0. -1.
        -11    1    4    4    0    0 -0.49690170816E-01 -0.25313817215E-01  0.83650201563E-02  0.56392704324E-01  0.51100000000E-03 0.  1.
         11    1    4    4    0    0 -0.72841948356E-01 -0.10163772814E-01  0.11520843145E-01  0.74446240106E-01  0.51100000000E-03 0. -1.
</event>
<event>
 8    1  0.1088021E+005  0.1043930E+01  0.7957747E-01            NaN
         13   -1    0    0    0    0  0.00000000000E+00  0.00000000000E+00  0.74505805969E-08  0.10566000000E+00  0.10566000000E+00 0. -1.
     999900   -1    0    0    0    0 -0.00000000000E+00 -0.00000000000E+00 -0.74505805969E-08  0.93827000000E+00  0.93827000000E+00 0.  1.
     999902    2    1    2    0    0 -0.21169232175E-01 -0.71865709557E-02 -0.70638056207E-02  0.10204847330E+01  0.10202153742E+01 0.  0.
     999903    2    3    3    0    0  0.60785364008E-01 -0.65082479981E-01 -0.92517630108E-01  0.13066966898E+00  0.24175624730E-01 0.  0.
         14    1    1    2    0    0  0.21169232175E-01  0.71865709557E-02  0.70638056207E-02  0.23445266960E-01  0.00000000000E+00 0.  1.
     999901    1    3    3    0    0 -0.81954596183E-01  0.57895909025E-01  0.85453824488E-01  0.88981506406E+00  0.88000000000E+00 0. -1.
        -11    1    4    4    0    0  0.91862530637E-02 -0.22017092809E-01 -0.15525906470E-01  0.28468482816E-01  0.51100000000E-03 0.  1.
         11    1    4    4    0    0  0.51599110945E-01 -0.43065387172E-01 -0.76991723639E-01  0.10220118616E+00  0.51100000000E-03 0. -1.
</event>
<event>
 8    1  0.1088021E+005  0.1043930E+01  0.7957747E-01            NaN
         13   -1    0    0    0    0  0.00000000000E+00  0.00000000000E+00  0.74505805969E-08  0.10566000000E+00  0.10566000000E+00 0.  1.
     999900   -1    0    0    0    0 -0.00000000000E+00 -0.00000000000E+00 -0.74505805969E-08  0.93827000000E+00  0.93827000000E+00 0.  1.
     999902    2    1    2    0    0 -0.10102267936E-01 -0.26912954875E-02 -0.21460713510E-01  0.10200582361E+01  0.10197788701E+01 0.  0.
     999903    2    3    3    0    0  0.56558255092E-01  0.31136147733E-01 -0.11379195857E+00  0.13207570242E+00  0.18085503042E-01 0.  0.
         14    1    1    2    0    0  0.10102267936E-01  0.26912954875E-02  0.21460713510E-01  0.23871763932E-01  0.00000000000E+00 0.  1.
     999901    1    3    3    0    0 -0.66660523028E-01 -0.33827443220E-01  0.92331245060E-01  0.88798253365E+00  0.88000000000E+00 0. -1.
        -11    1    4    4    0    0  0.21349885278E-01  0.31910033577E-02 -0.44773425362E-01  0.49708357884E-01  0.51100000000E-03 0. -1.
         11    1    4    4    0    0  0.35208369814E-01  0.27945144375E-01 -0.69018533208E-01  0.82367344539E-01  0.51100000000E-03 0.  1.
</event>
<event>
 8    1  0.1088021E+005  0.1043930E+01  0.7957747E-01            NaN
         13   -1    0    0    0    0  0.00000000000E+00  0.00000000000E+00  0.74505805969E-08  0.10566000000E+00  0.10566000000E+00 0. -1.
     999900   -1    0    0    0    0 -0.00000000000E+00 -0.00000000000E+00 -0.74505805969E-08  0.93827000000E+00  0.93827000000E+00 0.  1.
     999902    2    1    2    0    0  0.40497908594E-02 -0.19906379868E-01  0.11241903882E-01  0.10207126537E+01  0.10204485662E+01 0.  0.
     999903    2    3    3    0    0 -0.18165915145E-01  0.11071299819E+00 -0.58705422184E-01  0.12804945411E+00  0.19051710214E-01 0.  0.
         14    1    1    2    0    0 -0.40497908594E-02  0.19906379868E-01 -0.11241903882E-01  0.23217346282E-01  0.00000000000E+00 0.  1.
     999901    1    3    3    0    0  0.22215706004E-01 -0.13061937806E+00  0.69947326066E-01  0.89266319961E+00  0.88000000000E+00 0.  1.
        -11    1    4    4    0    0 -0.18136110712E-01  0.10710499009E+00 -0.52039237923E-01  0.12045223459E+00  0.51100000000E-03 0.  1.
         11    1    4    4    0    0 -0.29804433292E-04  0.36080081024E-02 -0.66661842614E-02  0.75972195162E-02  0.51100000000E-03 0. -1.
</event>
<event>
 8    1  0.1088021E+005  0.1043930E+01  0.7957747E-01            NaN
         13   -1    0    0    0    0  0.00000000000E+00  0.00000000000E+00  0.74505805969E-08  0.10566000000E+00  0.10566000000E+00 0.  1.
     999900   -1    0    0    0    0 -0.00000000000E+00 -0.00000000000E+00 -0.74505805969E-08  0.93827000000E+00  0.93827000000E+00 0.  1.
     999902    2    1    2    0    0 -0.99380576473E-02 -0.12842224978E-01 -0.18458982268E-01  0.10193450095E+01  0.10190484908E+01 0.  0.
     999903    2    3    3    0    0 -0.10826322075E+00  0.60637202011E-01 -0.35936006443E-01  0.13065354994E+00  0.19523276322E-01 0.  0.
         14    1    1    2    0    0  0.99380576473E-02  0.12842224978E-01  0.18458982268E-01  0.24584990514E-01  0.00000000000E+00 0.  1.
     999901    1    3    3    0    0  0.98325163105E-01 -0.73479426989E-01  0.17477024175E-01  0.88869145954E+00  0.88000000000E+00 0. -1.
        -11    1    4    4    0    0 -0.58961366313E-01  0.22886302119E-01 -0.13870099112E-01  0.64752346000E-01  0.51100000000E-03 0.  1.
         11    1    4    4    0    0 -0.49301854439E-01  0.37750899892E-01 -0.22065907331E-01  0.65901203943E-01  0.51100000000E-03 0. -1.
</event>
<event>
 7    1  0.1088021E+005  0.1043930E+01  0.7957747E-01            NaN
         13   -1    0    0    0    0  0.00000000000E+00  0.00000000000E+00  0.74505805969E-08  0.10566000000E+00  0.10566000000E+00 0.  1.
     999900   -1    0    0    0    0 -0.00000000000E+00 -0.00000000000E+00 -0.74505805969E-08  0.93827000000E+00  0.93827000000E+00 0. -1.
     999903    2    1    2    0    0 -0.10395912317E+00 -0.33136860144E-01  0.25687645431E-01  0.11359760104E+00  0.18412198240E-01 0.  0.
         14    1    1    2    0    0 -0.82777442736E-02  0.35194236241E-01  0.21291985936E-01  0.41958360072E-01  0.00000000000E+00 0. -1.
     999901    1    1    2    0    0  0.11223686744E+00 -0.20573760965E-02 -0.46979631368E-01  0.88837403889E+00  0.88000000000E+00 0. -1.
        -11    1    3    3    0    0 -0.56684697886E-01 -0.17655558942E-01  0.23337337926E-01  0.63794719205E-01  0.51100000000E-03 0.  1.
         11    1    3    3    0    0 -0.47274425281E-01 -0.15481301202E-01  0.23503075057E-02  0.49802881833E-01  0.51100000000E-03 0. -1.
</event>
<event>
 8    1  0.1088021E+005  0.1043930E+01  0.7957747E-01            NaN
         13   -1    0    0    0    0  0.00000000000E+00  0.00000000000E+00  0.74505805969E-08  0.10566000000E+00  0.10566000000E+00 0. -1.
     999900   -1    0    0    0    0 -0.00000000000E+00 -0.00000000000E+00 -0.74505805969E-08  0.93827000000E+00  0.93827000000E+00 0.  1.
     999902    2    1    2    0    0 -0.63465350824E-02 -0.10606768643E-01  0.19958192402E-01  0.10204542361E+01  0.10201841679E+01 0.  0.
     999903    2    3    3    0    0  0.78773307266E-01 -0.10318537990E+00  0.26588915901E-03  0.13129509753E+00  0.19643710841E-01 0.  0.
         14    1    1    2    0    0  0.63465350824E-02  0.10606768643E-01 -0.19958192402E-01  0.23475763940E-01  0.00000000000E+00 0. -1.
     999901    1    3    3    0    0 -0.85119842349E-01  0.92578611257E-01  0.19692303243E-01  0.88915913853E+00  0.88000000000E+00 0. -1.
        -11    1    4    4    0    0  0.36541438916E-01 -0.32350751490E-01 -0.94474747657E-03  0.48815996853E-01  0.51100000000E-03 0.  1.
         11    1    4    4    0    0  0.42231868351E-01 -0.70834628411E-01  0.12106366356E-02  0.82479100677E-01  0.51100000000E-03 0. -1.
</event>
<event>
 8    1  0.1088021E+005  0.1043930E+01  0.7957747E-01            NaN
         13   -1    0    0    0    0  0.00000000000E+00  0.00000000000E+00  0.74505805969E-08  0.10566000000E+00  0.10566000000E+00 0. -1.
     999900   -1    0    0    0    0 -0.00000000000E+00 -0.00000000000E+00 -0.74505805969E-08  0.93827000000E+00  0.93827000000E+00 0.  1.
     999902    2    1    2    0    0 -0.18848125778E-01  0.89923671617E-02  0.11058818517E-01  0.10202992577E+01  0.10200255700E+01 0.  0.
     999903    2    3    3    0    0 -0.34887752869E-01  0.11077920212E+00 -0.58258900499E-01  0.13157951813E+00  0.20733624453E-01 0.  0.
         14    1    1    2    0    0  0.18848125778E-01 -0.89923671617E-02 -0.11058818517E-01  0.23630742254E-01  0.00000000000E+00 0. -1.
     999901    1    3    3    0    0  0.16039627092E-01 -0.10178683495E+00  0.69317719016E-01  0.88871973961E+00  0.88000000000E+00 0. -1.
        -11    1    4    4    0    0 -0.14747533785E-01  0.61489612690E-01 -0.41969024142E-01  0.75895469758E-01  0.51100000000E-03 0.  1.
         11    1    4    4    0    0 -0.20140219085E-01  0.49289589427E-01 -0.16289876357E-01  0.55684048375E-01  0.51100000000E-03 0. -1.
</event>
<event>
 8    1  0.1088021E+005  0.1043930E+01  0.7957747E-01            NaN
         13   -1    0    0    0    0  0.00000000000E+00  0.00000000000E+00  0.74505805969E-08  0.10566000000E+00  0.10566000000E+00 0. -1.
     999900   -1    0    0    0    0 -0.00000000000E+00 -0.00000000000E+00 -0.74505805969E-08  0.93827000000E+00  0.93827000000E+00 0. -1.
     999902    2    1    2    0    0 -0.25080705153E-02  0.81492232091E-02 -0.24628189987E-01  0.10178676133E+01  0.10175338964E+01 0.  0.
     999903    2    3    3    0    0  0.67526461633E-01  0.93705986225E-01 -0.55878351427E-01  0.13039853332E+00  0.23254084783E-01 0.  0.
         14    1    1    2    0    0  0.25080705153E-02 -0.81492232091E-02  0.24628189987E-01  0.26062386664E-01  0.00000000000E+00 0. -1.
     999901    1    3    3    0    0 -0.70034532149E-01 -0.85556763016E-01  0.31250161441E-01  0.88746908001E+00  0.88000000000E+00 0.  1.
        -11    1    4    4    0    0  0.44470257014E-01  0.53048415233E-01 -0.44490517709E-01  0.82288549657E-01  0.51100000000E-03 0. -1.
         11    1    4    4    0    0  0.23056204619E-01  0.40657570992E-01 -0.11387833718E-01  0.48109983664E-01  0.51100000000E-03 0.  1.
</event>
<event>
 8    1  0.1088021E+005  0.1043930E+01  0.7957747E-01            NaN
         13   -1    0    0    0    0  0.00000000000E+00  0.00000000000E+00  0.74505805969E-08  0.10566000000E+00  0.10566000000E+00 0. -1.
     999900   -1    0    0    0    0 -0.00000000000E+00 -0.00000000000E+00 -0.74505805969E-08  0.93827000000E+00  0.93827000000E+00 0. -1.
     999902    2    1    2    0    0 -0.22869935457E-01  0.41684914660E-02 -0.18522237204E-02  0.10206096012E+01  0.10203431369E+01 0.  0.
     999903    2    3    3    0    0 -0.11649077881E+00 -0.56469704792E-01 -0.24755612192E-01  0.13327290162E+00  0.19745806283E-01 0.  0.
         14    1    1    2    0    0  0.22869935457E-01 -0.41684914660E-02  0.18522237204E-02  0.23320398830E-01  0.00000000000E+00 0.  1.
     999901    1    3    3    0    0  0.93620843352E-01  0.60638196258E-01  0.22903388472E-01  0.88733669954E+00  0.88000000000E+00 0.  1.
        -11    1    4    4    0    0 -0.89115898285E-01 -0.49166403619E-01 -0.13050601477E-01  0.10261363404E+00  0.51100000000E-03 0. -1.
         11    1    4    4    0    0 -0.27374880524E-01 -0.73033011735E-02 -0.11705010715E-01  0.30659267580E-01  0.51100000000E-03 0.  1.
</event>
