<event>
 8    1  0.1177602E+005  0.1043930E+01  0.7957747E-01            NaN
         13   -1    0    0    0    0  0.00000000000E+00  0.00000000000E+00  0.74505805969E-08  0.10566000000E+00  0.10566000000E+00 0.  1.
     999900   -1    0    0    0    0 -0.00000000000E+00 -0.00000000000E+00 -0.74505805969E-08  0.93827000000E+00  0.93827000000E+00 0. -1.
     999902    2    1    2    0    0  0.14346546826E-01  0.15868636061E-01 -0.11324464538E-01  0.10197250312E+01  0.10194377170E+01 0.  0.
     999903    2    3    3    0    0  0.94435050929E-01 -0.69411589210E-01 -0.54893498202E-01  0.13091394556E+00  0.19728594384E-01 0.  0.
         14    1    1    2    0    0 -0.14346546826E-01 -0.15868636061E-01  0.11324464538E-01  0.24204968773E-01  0.00000000000E+00 0.  1.
     999901    1    3    3    0    0 -0.80088504103E-01  0.85280225270E-01  0.43569033665E-01  0.88881108567E+00  0.88000000000E+00 0.  1.
        -11    1    4    4    0    0  0.59649938060E-01 -0.32371340303E-01 -0.27978141866E-01  0.73410192254E-01  0.51100000000E-03 0.  1.
         11    1    4    4    0    0  0.34785112869E-01 -0.37040248907E-01 -0.26915356336E-01  0.57503753304E-01  0.51100000000E-03 0. -1.
</event>
<event>
 8    1  0.1177602E+005  0.1043930E+01  0.7957747E-01            NaN
         13   -1    0    0    0    0  0.00000000000E+00  0.00000000000E+00  0.74505805969E-08  0.10566000000E+00  0.10566000000E+00 0. -1.
     999900   -1    0    0    0    0 -0.00000000000E+00 -0.00000000000E+00 -0.74505805969E-08  0.93827000000E+00  0.93827000000E+00 0.  1.
     999902    2    1    2    0    0 -0.56389648629E-02 -0.17750297884E-01 -0.14821712381E-01  0.10201276019E+01  0.10198498762E+01 0.  0.
     999903    2    3    3    0    0  0.84207581558E-02  0.91576313756E-01 -0.89885166705E-01  0.13008012784E+00  0.19605255815E-01 0.  0.
         14    1    1    2    0    0  0.56389648629E-02  0.17750297884E-01  0.14821712381E-01  0.23802398148E-01  0.00000000000E+00 0. -1.
     999901    1    3    3    0    0 -0.14059723019E-01 -0.10932661164E+00  0.75063454324E-01  0.89004747401E+00  0.88000000000E+00 0. -1.
        -11    1    4    4    0    0  0.66997445272E-02  0.41027468022E-01 -0.53586101637E-01  0.67822349699E-01  0.51100000000E-03 0. -1.
         11    1    4    4    0    0  0.17210136286E-02  0.50548845734E-01 -0.36299065068E-01  0.62257778139E-01  0.51100000000E-03 0.  1.
</event>
<event>
 8    1  0.1177602E+005  0.1043930E+01  0.7957747E-01            NaN
         13   -1    0    0    0    0  0.00000000000E+00  0.00000000000E+00  0.74505805969E-08  0.10566000000E+00  0.10566000000E+00 0.  1.
     999900   -1    0    0    0    0 -0.00000000000E+00 -0.00000000000E+00 -0.74505805969E-08  0.93827000000E+00  0.93827000000E+00 0. -1.
     999902    2    1    2    0    0  0.97110672816E-03  0.17243547849E-02  0.23771635365E-01  0.10200761304E+01  0.10197971880E+01 0.  0.
     999903    2    3    3    0    0  0.52579827081E-01  0.11062958678E+00  0.43350891829E-01  0.13164652887E+00  0.21165184942E-01 0.  0.
         14    1    1    2    0    0 -0.97110672816E-03 -0.17243547849E-02 -0.23771635365E-01  0.23853869616E-01  0.00000000000E+00 0. -1.
     999901    1    3    3    0    0 -0.51608720353E-01 -0.10890523199E+00 -0.19579256463E-01  0.88842960152E+00  0.88000000000E+00 0.  1.
        -11    1    4    4    0    0  0.24544325971E-01  0.42738064532E-01  0.27720527193E-01  0.56547810268E-01  0.51100000000E-03 0. -1.
         11    1    4    4    0    0  0.28035501110E-01  0.67891522245E-01  0.15630364636E-01  0.75098718597E-01  0.51100000000E-03 0.  1.
</event>
<event>
 8    1  0.1177602E+005  0.1043930E+01  0.7957747E-01            NaN
         13   -1    0    0    0    0  0.00000000000E+00  0.00000000000E+00  0.74505805969E-08  0.10566000000E+00  0.10566000000E+00 0. -1.
     999900   -1    0    0    0    0 -0.00000000000E+00 -0.00000000000E+00 -0.74505805969E-08  0.93827000000E+00  0.93827000000E+00 0. -1.
     999902    2    1    2    0    0  0.63501371933E-02  0.11572210105E-01  0.20210371226E-01  0.10197908328E+01  0.10195050972E+01 0.  0.
     999903    2    3    3    0    0 -0.68634849014E-01 -0.10376972289E+00 -0.22723569489E-01  0.12806787528E+00  0.20152473290E-01 0.  0.
         14    1    1    2    0    0 -0.63501371933E-02 -0.11572210105E-01 -0.20210371226E-01  0.24139167222E-01  0.00000000000E+00 0. -1.
     999901    1    3    3    0    0  0.74984986207E-01  0.11534193300E+00  0.42933940716E-01  0.89172295750E+00  0.88000000000E+00 0.  1.
        -11    1    4    4    0    0 -0.12389457542E-01 -0.83295833487E-02  0.19930950226E-03  0.14939259092E-01  0.51100000000E-03 0.  1.
         11    1    4    4    0    0 -0.56245391472E-01 -0.95440139545E-01 -0.22922878992E-01  0.11312861619E+00  0.51100000000E-03 0. -1.
</event>
<event>
 8    1  0.1177602E+005  0.1043930E+01  0.7957747E-01            NaN
         13   -1    0    0    0    0  0.00000000000E+00  0.00000000000E+00  0.74505805969E-08  0.10566000000E+00  0.10566000000E+00 0.  1.
     999900   -1    0    0    0    0 -0.00000000000E+00 -0.00000000000E+00 -0.74505805969E-08  0.93827000000E+00  0.93827000000E+00 0. -1.
     999902    2    1    2    0    0  0.14912471176E-01  0.10774562598E-01 -0.14940251769E-01  0.10202301241E+01  0.10199548137E+01 0.  0.
     999903    2    3    3    0    0  0.66906077768E-01 -0.10291760257E-01  0.10883011366E+00  0.12979976271E+00  0.20533903388E-01 0.  0.
         14    1    1    2    0    0 -0.14912471176E-01 -0.10774562598E-01  0.14940251769E-01  0.23699875922E-01  0.00000000000E+00 0.  1.
     999901    1    3    3    0    0 -0.51993606591E-01  0.21066322855E-01 -0.12377036543E+00  0.89043036137E+00  0.88000000000E+00 0. -1.
        -11    1    4    4    0    0  0.47627210517E-01 -0.66875274959E-02  0.92564528463E-01  0.10431455918E+00  0.51100000000E-03 0.  1.
         11    1    4    4    0    0  0.19278867251E-01 -0.36042327611E-02  0.16265585201E-01  0.25485203534E-01  0.51100000000E-03 0. -1.
</event>
<event>
 8    1  0.1177602E+005  0.1043930E+01  0.7957747E-01            NaN
         13   -1    0    0    0    0  0.00000000000E+00  0.00000000000E+00  0.74505805969E-08  0.10566000000E+00  0.10566000000E+00 0.  1.
     999900   -1    0    0    0    0 -0.00000000000E+00 -0.00000000000E+00 -0.74505805969E-08  0.93827000000E+00  0.93827000000E+00 0. -1.
     999902    2    1    2    0    0  0.20970135766E-02 -0.22980099292E-01 -0.39278524758E-02  0.10205225129E+01  0.10202540315E+01 0.  0.
     999903    2    3    3    0    0  0.12350203782E-01  0.98063452430E-01 -0.80074639732E-01  0.12892002153E+00  0.20963200798E-01 0.  0.
         14    1    1    2    0    0 -0.20970135766E-02  0.22980099292E-01  0.39278524758E-02  0.23407487146E-01  0.00000000000E+00 0.  1.
     999901    1    3    3    0    0 -0.10253190205E-01 -0.12104355172E+00  0.76146787256E-01  0.89160249132E+00  0.88000000000E+00 0.  1.
        -11    1    4    4    0    0  0.13082441714E-01  0.34298861067E-01 -0.22883797571E-01  0.43260738135E-01  0.51100000000E-03 0. -1.
         11    1    4    4    0    0 -0.73223793182E-03  0.63764591362E-01 -0.57190842161E-01  0.85659283397E-01  0.51100000000E-03 0.  1.
</event>
<event>
 8    1  0.1177602E+005  0.1043930E+01  0.7957747E-01            NaN
         13   -1    0    0    0    0  0.00000000000E+00  0.00000000000E+00  0.74505805969E-08  0.10566000000E+00  0.10566000000E+00 0.  1.
     999900   -1    0    0    0    0 -0.00000000000E+00 -0.00000000000E+00 -0.74505805969E-08  0.93827000000E+00  0.93827000000E+00 0.  1.
     999902    2    1    2    0    0  0.12840353461E-01  0.15956889331E-01  0.12180002620E-01  0.10201004079E+01  0.10198220398E+01 0.  0.
     999903    2    3    3    0    0 -0.73590804573E-01  0.74321116113E-01  0.77408973869E-01  0.13154453083E+00  0.19302319505E-01 0.  0.
         14    1    1    2    0    0 -0.12840353461E-01 -0.15956889331E-01 -0.12180002620E-01  0.23829592064E-01  0.00000000000E+00 0. -1.
     999901    1    3    3    0    0  0.86431158033E-01 -0.58364226782E-01 -0.65228971249E-01  0.88855587710E+00  0.88000000000E+00 0.  1.
        -11    1    4    4    0    0 -0.27245056376E-01  0.15369723870E-01  0.20460919384E-01  0.37382239792E-01  0.51100000000E-03 0.  1.
         11    1    4    4    0    0 -0.46345748196E-01  0.58951392243E-01  0.56948054485E-01  0.94162291040E-01  0.51100000000E-03 0. -1.
</event>
<event>
 8    1  0.1177602E+005  0.1043930E+01  0.7957747E-01            NaN
         13   -1    0    0    0    0  0.00000000000E+00  0.00000000000E+00  0.74505805969E-08  0.10566000000E+00  0.10566000000E+00 0.  1.
     999900   -1    0    0    0    0 -0.00000000000E+00 -0.00000000000E+00 -0.74505805969E-08  0.93827000000E+00  0.93827000000E+00 0.  1.
     999902    2    1    2    0    0 -0.89462554558E-02  0.19440444207E-01 -0.12911046331E-01  0.10189367714E+01  0.10186301992E+01 0.  0.
     999903    2    3    3    0    0 -0.76637422409E-02  0.13049419641E+00 -0.22692169246E-02  0.13189233665E+00  0.17406058691E-01 0.  0.
         14    1    1    2    0    0  0.89462554558E-02 -0.19440444207E-01  0.12911046331E-01  0.24993228583E-01  0.00000000000E+00 0. -1.
     999901    1    3    3    0    0 -0.12825132150E-02 -0.11105375220E+00 -0.10641829407E-01  0.88704443477E+00  0.88000000000E+00 0. -1.
        -11    1    4    4    0    0  0.59222434123E-04  0.10425883418E+00  0.15638958265E-02  0.10427183179E+00  0.51100000000E-03 0.  1.
         11    1    4    4    0    0 -0.77229646750E-02  0.26235362226E-01 -0.38331127510E-02  0.27620504863E-01  0.51100000000E-03 0. -1.
</event>
<event>
 8    1  0.1177602E+005  0.1043930E+01  0.7957747E-01            NaN
         13   -1    0    0    0    0  0.00000000000E+00  0.00000000000E+00  0.74505805969E-08  0.10566000000E+00  0.10566000000E+00 0. -1.
     999900   -1    0    0    0    0 -0.00000000000E+00 -0.00000000000E+00 -0.74505805969E-08  0.93827000000E+00  0.93827000000E+00 0. -1.
     999902    2    1    2    0    0 -0.34047501315E-02 -0.36056968676E-02  0.24396034861E-01  0.10190350228E+01  0.10187308858E+01 0.  0.
     999903    2    3    3    0    0  0.11376990702E+00  0.12892433989E-01  0.59356956843E-01  0.13042692319E+00  0.19445497441E-01 0.  0.
         14    1    1    2    0    0  0.34047501315E-02  0.36056968676E-02 -0.24396034861E-01  0.24894977210E-01  0.00000000000E+00 0.  1.
     999901    1    3    3    0    0 -0.11717465715E+00 -0.16498130856E-01 -0.34960921982E-01  0.88860809960E+00  0.88000000000E+00 0.  1.
        -11    1    4    4    0    0  0.10330515357E+00  0.17250334629E-01  0.52357314904E-01  0.11709431388E+00  0.51100000000E-03 0.  1.
         11    1    4    4    0    0  0.10464753455E-01 -0.43579006405E-02  0.69996419394E-02  0.13332609315E-01  0.51100000000E-03 0. -1.
</event>
<event>
 8    1  0.1177602E+005  0.1043930E+01  0.7957747E-01            NaN
         13   -1    0    0    0    0  0.00000000000E+00  0.00000000000E+00  0.74505805969E-08  0.10566000000E+00  0.10566000000E+00 0. -1.
     999900   -1    0    0    0    0 -0.00000000000E+00 -0.00000000000E+00 -0.74505805969E-08  0.93827000000E+00  0.93827000000E+00 0. -1.
     999902    2    1    2    0    0  0.17870322596E-01  0.14495398157E-01 -0.18937380479E-02  0.10208420975E+01  0.10205809800E+01 0.  0.
     999903    2    3    3    0    0 -0.81584163805E-01 -0.80644296387E-01  0.53399871006E-01  0.12842955864E+00  0.21980149786E-01 0.  0.
         14    1    1    2    0    0 -0.17870322596E-01 -0.14495398157E-01  0.18937380479E-02  0.23087902486E-01  0.00000000000E+00 0.  1.
     999901    1    3    3    0    0  0.99454486401E-01  0.95139694544E-01 -0.55293609054E-01  0.89241253888E+00  0.88000000000E+00 0. -1.
        -11    1    4    4    0    0 -0.27938247859E-01 -0.28773285299E-01  0.74546325134E-02  0.40795591763E-01  0.51100000000E-03 0. -1.
         11    1    4    4    0    0 -0.53645915946E-01 -0.51871011088E-01  0.45945238492E-01  0.87633966874E-01  0.51100000000E-03 0.  1.
</event>
<event>
 8    1  0.1177602E+005  0.1043930E+01  0.7957747E-01            NaN
         13   -1    0    0    0    0  0.00000000000E+00  0.00000000000E+00  0.74505805969E-08  0.10566000000E+00  0.10566000000E+00 0. -1.
     999900   -1    0    0    0    0 -0.00000000000E+00 -0.00000000000E+00 -0.74505805969E-08  0.93827000000E+00  0.93827000000E+00 0.  1.
     999902    2    1    2    0    0  0.13084305003E-01  0.15892834160E-01  0.11847900413E-01  0.10201780746E+01  0.10199015394E+01 0.  0.
     999903    2    3    3    0    0  0.11807932250E+00 -0.10917159813E-01 -0.52432673187E-01  0.13120410334E+00  0.20085336300E-01 0.  0.
         14    1    1    2    0    0 -0.13084305003E-01 -0.15892834160E-01 -0.11847900413E-01  0.23751925380E-01  0.00000000000E+00 0.  1.
     999901    1    3    3    0    0 -0.10499501750E+00  0.26809993973E-01  0.64280573600E-01  0.88897397128E+00  0.88000000000E+00 0. -1.
        -11    1    4    4    0    0  0.75955661289E-01 -0.10526427368E-01 -0.43418152433E-01  0.88121877174E-01  0.51100000000E-03 0. -1.
         11    1    4    4    0    0  0.42123661212E-01 -0.39073244501E-03 -0.90145207542E-02  0.43082226164E-01  0.51100000000E-03 0.  1.
</event>
<event>
 8    1  0.1177602E+005  0.1043930E+01  0.7957747E-01            NaN
         13   -1    0    0    0    0  0.00000000000E+00  0.00000000000E+00  0.74505805969E-08  0.10566000000E+00  0.10566000000E+00 0. -1.
     999900   -1    0    0    0    0 -0.00000000000E+00 -0.00000000000E+00 -0.74505805969E-08  0.93827000000E+00  0.93827000000E+00 0. -1.
     999902    2    1    2    0    0 -0.13578552472E-01 -0.37293025250E-02  0.19662607498E-01  0.10197452338E+01  0.10194584047E+01 0.  0.
     999903    2    3    3    0    0  0.83583655210E-01  0.17226015862E-01  0.97217758607E-01  0.13076018246E+00  0.19077989605E-01 0.  0.
         14    1    1    2    0    0  0.13578552472E-01  0.37293025250E-02 -0.19662607498E-01  0.24184766241E-01  0.00000000000E+00 0.  1.
     999901    1    3    3    0    0 -0.97162207682E-01 -0.20955318387E-01 -0.77555151109E-01  0.88898505130E+00  0.88000000000E+00 0. -1.
        -11    1    4    4    0    0  0.36749280960E-01  0.17202317924E-01  0.46843611967E-01  0.61975918679E-01  0.51100000000E-03 0.  1.
         11    1    4    4    0    0  0.46834374250E-01  0.23697937755E-04  0.50374146640E-01  0.68784263780E-01  0.51100000000E-03 0. -1.
</event>
<event>
 8    1  0.1177602E+005  0.1043930E+01  0.7957747E-01            NaN
         13   -1    0    0    0    0  0.00000000000E+00  0.00000000000E+00  0.74505805969E-08  0.10566000000E+00  0.10566000000E+00 0.  1.
     999900   -1    0    0    0    0 -0.00000000000E+00 -0.00000000000E+00 -0.74505805969E-08  0.93827000000E+00  0.93827000000E+00 0. -1.
     999902    2    1    2    0    0 -0.13925971962E-01 -0.18110086295E-01  0.85737323218E-02  0.10195288360E+01  0.10192367883E+01 0.  0.
     999903    2    3    3    0    0 -0.46281555486E-01 -0.10990113056E+00 -0.52534050594E-01  0.13205678528E+00  0.21422586007E-01 0.  0.
         14    1    1    2    0    0  0.13925971962E-01  0.18110086295E-01 -0.85737323218E-02  0.24401164043E-01  0.00000000000E+00 0.  1.
     999901    1    3    3    0    0  0.32355583523E-01  0.91791044265E-01  0.61107782915E-01  0.88747205067E+00  0.88000000000E+00 0.  1.
        -11    1    4    4    0    0 -0.36781598332E-02 -0.18236726408E-01 -0.11061495380E-02  0.18643812315E-01  0.51100000000E-03 0.  1.
         11    1    4    4    0    0 -0.42603395652E-01 -0.91664404152E-01 -0.51427901056E-01  0.11341297297E+00  0.51100000000E-03 0. -1.
</event>
<event>
 8    1  0.1177602E+005  0.1043930E+01  0.7957747E-01            NaN
         13   -1    0    0    0    0  0.00000000000E+00  0.00000000000E+00  0.74505805969E-08  0.10566000000E+00  0.10566000000E+00 0. -1.
     999900   -1    0    0    0    0 -0.00000000000E+00 -0.00000000000E+00 -0.74505805969E-08  0.93827000000E+00  0.93827000000E+00 0. -1.
     999902    2    1    2    0    0 -0.86973199431E-03 -0.21439247005E-01  0.12859761510E-01  0.10189145805E+01  0.10186074569E+01 0.  0.
     999903    2    3    3    0    0  0.92399759784E-01 -0.37873483467E-01  0.82776115141E-01  0.13107586840E+00  0.18891312318E-01 0.  0.
         14    1    1    2    0    0  0.86973199431E-03  0.21439247005E-01 -0.12859761510E-01  0.25015419484E-01  0.00000000000E+00 0.  1.
     999901    1    3    3    0    0 -0.93269491779E-01  0.16434236462E-01 -0.69916353631E-01  0.88783871211E+00  0.88000000000E+00 0. -1.
        -11    1    4    4    0    0  0.25070337691E-01 -0.78133374205E-02  0.12028274465E-01  0.28887896794E-01  0.51100000000E-03 0. -1.
         11    1    4    4    0    0  0.67329422093E-01 -0.30060146047E-01  0.70747840676E-01  0.10218797161E+00  0.51100000000E-03 0.  1.
</event>
<event>
 8    1  0.1177602E+005  0.1043930E+01  0.7957747E-01            NaN
         13   -1    0    0    0    0  0.00000000000E+00  0.00000000000E+00  0.74505805969E-08  0.10566000000E+00  0.10566000000E+00 0. -1.
     999900   -1    0    0    0    0 -0.00000000000E+00 -0.00000000000E+00 -0.74505805969E-08  0.93827000000E+00  0.93827000000E+00 0. -1.
     999902    2    1    2    0    0 -0.43532945064E-02  0.18997754504E-01  0.12778972898E-01  0.10206240352E+01  0.10203579044E+01 0.  0.
     999903    2    3    3    0    0 -0.98002264001E-01 -0.39324526856E-02 -0.83316930451E-01  0.13015767052E+00  0.19478202253E-01 0.  0.
         14    1    1    2    0    0  0.43532945064E-02 -0.18997754504E-01 -0.12778972898E-01  0.23305964850E-01  0.00000000000E+00 0.  1.
     999901    1    3    3    0    0  0.93648969495E-01  0.22930207189E-01  0.96095903349E-01  0.89046636463E+00  0.88000000000E+00 0.  1.
        -11    1    4    4    0    0 -0.46228059583E-01 -0.10166633856E-01 -0.46221362058E-01  0.66159423881E-01  0.51100000000E-03 0.  1.
         11    1    4    4    0    0 -0.51774204419E-01  0.62341811701E-02 -0.37095568393E-01  0.63998246644E-01  0.51100000000E-03 0. -1.
</event>
<event>
 8    1  0.1177602E+005  0.1043930E+01  0.7957747E-01            NaN
         13   -1    0    0    0    0  0.00000000000E+00  0.00000000000E+00  0.74505805969E-08  0.10566000000E+00  0.10566000000E+00 0. -1.
     999900   -1    0    0    0    0 -0.00000000000E+00 -0.00000000000E+00 -0.74505805969E-08  0.93827000000E+00  0.93827000000E+00 0. -1.
     999902    2    1    2    0    0  0.34242643773E-02  0.20501770645E-01 -0.75701872502E-02  0.10218086094E+01  0.10215691256E+01 0.  0.
     999903    2    3    3    0    0  0.52944410867E-01  0.10893342810E+00 -0.55459810360E-01  0.13469766994E+00  0.19951674685E-01 0.  0.
         14    1    1    2    0    0 -0.34242643773E-02 -0.20501770645E-01  0.75701872502E-02  0.22121390578E-01  0.00000000000E+00 0.  1.
     999901    1    3    3    0    0 -0.49520146490E-01 -0.88431657452E-01  0.47889623110E-01  0.88711093948E+00  0.88000000000E+00 0.  1.
        -11    1    4    4    0    0  0.24074625224E-01  0.64602058758E-01 -0.23251582816E-01  0.72759266076E-01  0.51100000000E-03 0.  1.
         11    1    4    4    0    0  0.28869785643E-01  0.44331369339E-01 -0.32208227544E-01  0.61938403863E-01  0.51100000000E-03 0. -1.
</event>
<event>
 8    1  0.1177602E+005  0.1043930E+01  0.7957747E-01            NaN
         13   -1    0    0    0    0  0.00000000000E+00  0.00000000000E+00  0.74505805969E-08  0.10566000000E+00  0.10566000000E+00 0. -1.
     999900   -1    0    0    0    0 -0.00000000000E+00 -0.00000000000E+00 -0.74505805969E-08  0.93827000000E+00  0.93827000000E+00 0.  1.
     999902    2    1    2    0    0 -0.90632663332E-02 -0.11649100699E-01 -0.22440176047E-01  0.10170710007E+01  0.10167162901E+01 0.  0.
     999903    2    3    3    0    0  0.42104287050E-01  0.86691660351E-01 -0.81946509979E-01  0.12812216774E+00  0.20293949975E-01 0.  0.
         14    1    1    2    0    0  0.90632663332E-02  0.11649100699E-01  0.22440176047E-01  0.26858999325E-01  0.00000000000E+00 0. -1.
     999901    1    3    3    0    0 -0.51167553383E-01 -0.98340761050E-01  0.59506333931E-01  0.88894883294E+00  0.88000000000E+00 0. -1.
        -11    1    4    4    0    0  0.29888566026E-01  0.76804397130E-01 -0.72581296515E-01  0.10982052414E+00  0.51100000000E-03 0. -1.
         11    1    4    4    0    0  0.12215721023E-01  0.98872632205E-02 -0.93652134634E-02  0.18301643596E-01  0.51100000000E-03 0.  1.
</event>
<event>
 8    1  0.1177602E+005  0.1043930E+01  0.7957747E-01            NaN
         13   -1    0    0    0    0  0.00000000000E+00  0.00000000000E+00  0.74505805969E-08  0.10566000000E+00  0.10566000000E+00 0. -1.
     999900   -1    0    0    0    0 -0.00000000000E+00 -0.00000000000E+00 -0.74505805969E-08  0.93827000000E+00  0.93827000000E+00 0.  1.
     999902    2    1    2    0    0 -0.11931992659E-01  0.47231381689E-02  0.20024577850E-01  0.10201463039E+01  0.10198690196E+01 0.  0.
     999903    2    3    3    0    0 -0.11462386066E+00  0.48459106936E-01 -0.36345078328E-01  0.13130661482E+00  0.20821813060E-01 0.  0.
         14    1    1    2    0    0  0.11931992659E-01 -0.47231381689E-02 -0.20024577850E-01  0.23783696118E-01  0.00000000000E+00 0.  1.
     999901    1    3    3    0    0  0.10269186800E+00 -0.43735968767E-01  0.56369656178E-01  0.88883968906E+00  0.88000000000E+00 0.  1.
        -11    1    4    4    0    0 -0.12435101789E-01  0.89920206904E-02  0.14522421324E-02  0.15422656088E-01  0.51100000000E-03 0. -1.
         11    1    4    4    0    0 -0.10218875887E+00  0.39467086246E-01 -0.37797320461E-01  0.11588395873E+00  0.51100000000E-03 0.  1.
</event>
<event>
 8    1  0.1177602E+005  0.1043930E+01  0.7957747E-01            NaN
         13   -1    0    0    0    0  0.00000000000E+00  0.00000000000E+00  0.74505805969E-08  0.10566000000E+00  0.10566000000E+00 0.  1.
     999900   -1    0    0    0    0 -0.00000000000E+00 -0.00000000000E+00 -0.74505805969E-08  0.93827000000E+00  0.93827000000E+00 0. -1.
     999902    2    1    2    0    0  0.15221878441E-01  0.19587983793E-01  0.45600434132E-03  0.10191186592E+01  0.10188165875E+01 0.  0.
     999903    2    3    3    0    0  0.42542899117E-03  0.12894041890E+00  0.20647233376E-01  0.13199714796E+00  0.19264636174E-01 0.  0.
         14    1    1    2    0    0 -0.15221878441E-01 -0.19587983793E-01 -0.45600434132E-03  0.24811340801E-01  0.00000000000E+00 0.  1.
     999901    1    3    3    0    0  0.14796449450E-01 -0.10935243511E+00 -0.20191229035E-01  0.88712151124E+00  0.88000000000E+00 0.  1.
        -11    1    4    4    0    0  0.34539544276E-02  0.53883653132E-01 -0.35150220613E-03  0.53997801352E-01  0.51100000000E-03 0.  1.
         11    1    4    4    0    0 -0.30285254364E-02  0.75056765767E-01  0.20998735582E-01  0.77999346605E-01  0.51100000000E-03 0. -1.
</event>
<event>
 8    1  0.1177602E+005  0.1043930E+01  0.7957747E-01            NaN
         13   -1    0    0    0    0  0.00000000000E+00  0.00000000000E+00  0.74505805969E-08  0.10566000000E+00  0.10566000000E+00 0.  1.
     999900   -1    0    0    0    0 -0.00000000000E+00 -0.00000000000E+00 -0.74505805969E-08  0.93827000000E+00  0.93827000000E+00 0.  1.
     999902    2    1    2    0    0 -0.17419171223E-01 -0.11733244051E-01  0.83836250861E-02  0.10213162495E+01  0.10210658646E+01 0.  0.
     999903    2    3    3    0    0  0.27044963968E-01  0.11391203611E+00  0.54750938761E-01  0.13007345232E+00  0.14630641054E-01 0.  0.
         14    1    1    2    0    0  0.17419171223E-01  0.11733244051E-01 -0.83836250861E-02  0.22613750499E-01  0.00000000000E+00 0. -1.
     999901    1    3    3    0    0 -0.44464135191E-01 -0.12564528016E+00 -0.46367313675E-01  0.89124279718E+00  0.88000000000E+00 0.  1.
        -11    1    4    4    0    0  0.24143709377E-01  0.89158039175E-01  0.37169513330E-01  0.99568611993E-01  0.51100000000E-03 0.  1.
         11    1    4    4    0    0  0.29012545909E-02  0.24753996932E-01  0.17581425431E-01  0.30504840329E-01  0.51100000000E-03 0. -1.
</event>
<event>
 8    1  0.1177602E+005  0.1043930E+01  0.7957747E-01            NaN
         13   -1    0    0    0    0  0.00000000000E+00  0.00000000000E+00  0.74505805969E-08  0.10566000000E+00  0.10566000000E+00 0. -1.
     999900   -1    0    0    0    0 -0.00000000000E+00 -0.00000000000E+00 -0.74505805969E-08  0.93827000000E+00  0.93827000000E+00 0. -1.
     999902    2    1    2    0    0  0.22364433346E-01 -0.11481508824E-01  0.29880840698E-02  0.10186135711E+01  0.10182989177E+01 0.  0.
     999903    2    3    3    0    0  0.53832727230E-01  0.35902890305E-01 -0.11039750188E+00  0.12951749877E+00  0.20004849747E-01 0.  0.
         14    1    1    2    0    0 -0.22364433346E-01  0.11481508824E-01 -0.29880840698E-02  0.25316428859E-01  0.00000000000E+00 0.  1.
     999901    1    3    3    0    0 -0.31468293883E-01 -0.47384399128E-01  0.11338558595E+00  0.88909607237E+00  0.88000000000E+00 0. -1.
        -11    1    4    4    0    0  0.44395753175E-01  0.22061003302E-01 -0.92815872498E-01  0.10522698359E+00  0.51100000000E-03 0.  1.
         11    1    4    4    0    0  0.94369740544E-02  0.13841887002E-01 -0.17581629383E-01  0.24290515183E-01  0.51100000000E-03 0. -1.
</event>
<event>
 8    1  0.1177602E+005  0.1043930E+01  0.7957747E-01            NaN
         13   -1    0    0    0    0  0.00000000000E+00  0.00000000000E+00  0.74505805969E-08  0.10566000000E+00  0.10566000000E+00 0. -1.
     999900   -1    0    0    0    0 -0.00000000000E+00 -0.00000000000E+00 -0.74505805969E-08  0.93827000000E+00  0.93827000000E+00 0.  1.
     999902    2    1    2    0    0  0.10082294689E-01  0.23187891919E-02 -0.21553028128E-01  0.10200226273E+01  0.10197424173E+01 0.  0.
     999903    2    3    3    0    0  0.12783342139E+00  0.16223491205E-01 -0.20669762123E-01  0.13207023624E+00  0.20266300638E-01 0.  0.
         14    1    1    2    0    0 -0.10082294689E-01 -0.23187891919E-02  0.21553028128E-01  0.23907372733E-01  0.00000000000E+00 0. -1.
     999901    1    3    3    0    0 -0.11775112670E+00 -0.13904702013E-01 -0.88326600477E-03  0.88795239103E+00  0.88000000000E+00 0. -1.
        -11    1    4    4    0    0  0.53071534855E-01 -0.25994483741E-02 -0.47718089109E-02  0.53351440702E-01  0.51100000000E-03 0. -1.
         11    1    4    4    0    0  0.74761886537E-01  0.18822939579E-01 -0.15897953212E-01  0.78718795534E-01  0.51100000000E-03 0.  1.
</event>
<event>
 8    1  0.1177602E+005  0.1043930E+01  0.7957747E-01            NaN
         13   -1    0    0    0    0  0.00000000000E+00  0.00000000000E+00  0.74505805969E-08  0.10566000000E+00  0.10566000000E+00 0.  1.
     999900   -1    0    0    0    0 -0.00000000000E+00 -0.00000000000E+00 -0.74505805969E-08  0.93827000000E+00  0.93827000000E+00 0.  1.
     999902    2    1    2    0    0  0.50640013832E-02  0.87698945867E-02  0.21628524570E-01  0.10200480353E+01  0.10197684277E+01 0.  0.
     999903    2    3    3    0    0  0.62489454324E-01  0.76908730317E-01 -0.81093999211E-01  0.12960292166E+00  0.20019887466E-01 0.  0.
         14    1    1    2    0    0 -0.50640013832E-02 -0.87698945867E-02 -0.21628524570E-01  0.23881964662E-01  0.00000000000E+00 0. -1.
     999901    1    3    3    0    0 -0.57425452941E-01 -0.68138835730E-01  0.10272252378E+00  0.89044511368E+00  0.88000000000E+00 0. -1.
        -11    1    4    4    0    0  0.10277592855E-01  0.20989906982E-01 -0.28013012829E-01  0.36485546711E-01  0.51100000000E-03 0. -1.
         11    1    4    4    0    0  0.52211861469E-01  0.55918823335E-01 -0.53080986381E-01  0.93117374949E-01  0.51100000000E-03 0.  1.
</event>
<event>
 8    1  0.1177602E+005  0.1043930E+01  0.7957747E-01            NaN
         13   -1    0    0    0    0  0.00000000000E+00  0.00000000000E+00  0.74505805969E-08  0.10566000000E+00  0.10566000000E+00 0.  1.
     999900   -1    0    0    0    0 -0.00000000000E+00 -0.00000000000E+00 -0.74505805969E-08  0.93827000000E+00  0.93827000000E+00 0.  1.
     999902    2    1    2    0    0 -0.52172402437E-02 -0.20894095769E-01 -0.11355916576E-01  0.10195837544E+01  0.10192930357E+01 0.  0.
     999903    2    3    3    0    0 -0.10229337146E+00  0.60700182645E-01 -0.47496488660E-01  0.12975930965E+00  0.20811438853E-01 0.  0.
         14    1    1    2    0    0  0.52172402437E-02  0.20894095769E-01  0.11355916576E-01  0.24346245605E-01  0.00000000000E+00 0.  1.
     999901    1    3    3    0    0  0.97076131216E-01 -0.81594278414E-01  0.36140572084E-01  0.88982444475E+00  0.88000000000E+00 0. -1.
        -11    1    4    4    0    0 -0.45998670262E-01  0.24584222849E-01 -0.10095235054E-01  0.53126608877E-01  0.51100000000E-03 0. -1.
         11    1    4    4    0    0 -0.56294701198E-01  0.36115959796E-01 -0.37401253606E-01  0.76632700769E-01  0.51100000000E-03 0.  1.
</event>
<event>
 8    1  0.1177602E+005  0.1043930E+01  0.7957747E-01            NaN
         13   -1    0    0    0    0  0.00000000000E+00  0.00000000000E+00  0.74505805969E-08  0.10566000000E+00  0.10566000000E+00 0.  1.
     999900   -1    0    0    0    0 -0.00000000000E+00 -0.00000000000E+00 -0.74505805969E-08  0.93827000000E+00  0.93827000000E+00 0.  1.
     999902    2    1    2    0    0  0.35388513016E-02  0.48089889422E-02 -0.22656179201E-01  0.10205002689E+01  0.10202312711E+01 0.  0.
     999903    2    3    3    0    0  0.11091793490E+00  0.44810759142E-01  0.47816116148E-01  0.13027740152E+00  0.19365638789E-01 0.  0.
         14    1    1    2    0    0 -0.35388513016E-02 -0.48089889422E-02  0.22656179201E-01  0.23429731094E-01  0.00000000000E+00 0.  1.
     999901    1    3    3    0    0 -0.10737908359E+00 -0.40001770200E-01 -0.70472295349E-01  0.89022286739E+00  0.88000000000E+00 0.  1.
        -11    1    4    4    0    0  0.52237477548E-01  0.29632357141E-01  0.29781189346E-01  0.67037385168E-01  0.51100000000E-03 0.  1.
         11    1    4    4    0    0  0.58680457348E-01  0.15178402001E-01  0.18034926802E-01  0.63240016347E-01  0.51100000000E-03 0. -1.
</event>
<event>
 8    1  0.1177602E+005  0.1043930E+01  0.7957747E-01            NaN
         13   -1    0    0    0    0  0.00000000000E+00  0.00000000000E+00  0.74505805969E-08  0.10566000000E+00  0.10566000000E+00 0. -1.
     999900   -1    0    0    0    0 -0.00000000000E+00 -0.00000000000E+00 -0.74505805969E-08  0.93827000000E+00  0.93827000000E+00 0.  1.
     999902    2    1    2    0    0  0.45959035056E-02 -0.63668471713E-02 -0.23352974031E-01  0.10192922146E+01  0.10189944054E+01 0.  0.
     999903    2    3    3    0    0  0.37741868085E-01 -0.17623955746E-01 -0.12453995873E+00  0.13280240457E+00  0.19779406384E-01 0.  0.
         14    1    1    2    0    0 -0.45959035056E-02  0.63668471713E-02  0.23352974031E-01  0.24637785372E-01  0.00000000000E+00 0. -1.
     999901    1    3    3    0    0 -0.33145964579E-01  0.11257108575E-01  0.10118698470E+00  0.88648981006E+00  0.88000000000E+00 0. -1.
        -11    1    4    4    0    0  0.27539803805E-01 -0.36850176070E-02 -0.62483872341E-01  0.68385053719E-01  0.51100000000E-03 0. -1.
         11    1    4    4    0    0  0.10202064280E-01 -0.13938938139E-01 -0.62056086389E-01  0.64417350853E-01  0.51100000000E-03 0.  1.
</event>
<event>
 8    1  0.1177602E+005  0.1043930E+01  0.7957747E-01            NaN
         13   -1    0    0    0    0  0.00000000000E+00  0.00000000000E+00  0.74505805969E-08  0.10566000000E+00  0.10566000000E+00 0.  1.
     999900   -1    0    0    0    0 -0.00000000000E+00 -0.00000000000E+00 -0.74505805969E-08  0.93827000000E+00  0.93827000000E+00 0.  1.
     999902    2    1    2    0    0 -0.12852417431E-01 -0.61576299867E-02 -0.18196696458E-01  0.10208167829E+01  0.10205550860E+01 0.  0.
     999903    2    3    3    0    0  0.63422667441E-01  0.66313324228E-01 -0.92223423748E-01  0.13146315017E+00  0.18907888512E-01 0.  0.
         14    1    1    2    0    0  0.12852417431E-01  0.61576299867E-02  0.18196696458E-01  0.23113217060E-01  0.00000000000E+00 0.  1.
     999901    1    3    3    0    0 -0.76275084872E-01 -0.72470954215E-01  0.74026727291E-01  0.88935363278E+00  0.88000000000E+00 0. -1.
        -11    1    4    4    0    0  0.24850980428E-01  0.18516267988E-01 -0.21132182015E-01  0.37513379562E-01  0.51100000000E-03 0.  1.
         11    1    4    4    0    0  0.38571687013E-01  0.47797056241E-01 -0.71091241733E-01  0.93949770604E-01  0.51100000000E-03 0. -1.
</event>
<event>
 8    1  0.1177602E+005  0.1043930E+01  0.7957747E-01            NaN
         13   -1    0    0    0    0  0.00000000000E+00  0.00000000000E+00  0.74505805969E-08  0.10566000000E+00  0.10566000000E+00 0.  1.
     999900   -1    0    0    0    0 -0.00000000000E+00 -0.00000000000E+00 -0.74505805969E-08  0.93827000000E+00  0.93827000000E+00 0. -1.
     999902    2    1    2    0    0 -0.13635094965E-01  0.88800903267E-02  0.17522365688E-01  0.10200175531E+01  0.10197372227E+01 0.  0.
     999903    2    3    3    0    0 -0.10772368386E+00 -0.71430693647E-01 -0.84891084389E-02  0.13098488698E+00  0.19448382848E-01 0.  0.
         14    1    1    2    0    0  0.13635094965E-01 -0.88800903267E-02 -0.17522365688E-01  0.23912446931E-01  0.00000000000E+00 0. -1.
     999901    1    3    3    0    0  0.94088588899E-01  0.80310783974E-01  0.26011474127E-01  0.88903266609E+00  0.88000000000E+00 0.  1.
        -11    1    4    4    0    0 -0.66967194888E-01 -0.46512942337E-01 -0.14562698676E-01  0.82827485231E-01  0.51100000000E-03 0. -1.
         11    1    4    4    0    0 -0.40756488976E-01 -0.24917751310E-01  0.60735902366E-02  0.48157401751E-01  0.51100000000E-03 0.  1.
</event>
<event>
 8    1  0.1177602E+005  0.1043930E+01  0.7957747E-01            NaN
         13   -1    0    0    0    0  0.00000000000E+00  0.00000000000E+00  0.74505805969E-08  0.10566000000E+00  0.10566000000E+00 0. -1.
     999900   -1    0    0    0    0 -0.00000000000E+00 -0.00000000000E+00 -0.74505805969E-08  0.93827000000E+00  0.93827000000E+00 0. -1.
     999902    2    1    2    0    0 -0.59452630206E-03  0.15442785192E-01  0.18088227429E-01  0.10201388872E+01  0.10198614279E+01 0.  0.
     999903    2    3    3    0    0 -0.12294895733E+00 -0.24677303209E-01 -0.26121948968E-01  0.12967003993E+00  0.20163026471E-01 0.  0.
         14    1    1    2    0    0  0.59452630206E-03 -0.15442785192E-01 -0.18088227429E-01  0.23791112785E-01  0.00000000000E+00 0. -1.
     999901    1    3    3    0    0  0.12235443103E+00  0.40120088401E-01  0.44210176397E-01  0.89046884728E+00  0.88000000000E+00 0. -1.
        -11    1    4    4    0    0 -0.43323270653E-01 -0.16934181999E-01 -0.41389997277E-02  0.46701870838E-01  0.51100000000E-03 0. -1.
         11    1    4    4    0    0 -0.79625686675E-01 -0.77431212100E-02 -0.21982949240E-01  0.82968169094E-01  0.51100000000E-03 0.  1.
</event>
<event>
 8    1  0.1177602E+005  0.1043930E+01  0.7957747E-01            NaN
         13   -1    0    0    0    0  0.00000000000E+00  0.00000000000E+00  0.74505805969E-08  0.10566000000E+00  0.10566000000E+00 0. -1.
     999900   -1    0    0    0    0 -0.00000000000E+00 -0.00000000000E+00 -0.74505805969E-08  0.93827000000E+00  0.93827000000E+00 0.  1.
     999902    2    1    2    0    0  0.11920976241E-01  0.23562678072E-02 -0.21859399762E-01  0.10189201013E+01  0.10186131149E+01 0.  0.
     999903    2    3    3    0    0  0.22335250875E-01  0.10337118896E+00  0.69842482562E-01  0.12834629383E+00  0.20256668814E-01 0.  0.
         14    1    1    2    0    0 -0.11920976241E-01 -0.23562678072E-02  0.21859399762E-01  0.25009898650E-01  0.00000000000E+00 0. -1.
     999901    1    3    3    0    0 -0.10414274634E-01 -0.10101492115E+00 -0.91701882324E-01  0.89057380752E+00  0.88000000000E+00 0.  1.
        -11    1    4    4    0    0 -0.20219254015E-02  0.27534840224E-01  0.13199479837E-01  0.30606257489E-01  0.51100000000E-03 0.  1.
         11    1    4    4    0    0  0.24357176277E-01  0.75836348738E-01  0.56643002725E-01  0.97740036345E-01  0.51100000000E-03 0. -1.
</event>
<event>
 8    1  0.1177602E+005  0.1043930E+01  0.7957747E-01            NaN
         13   -1    0    0    0    0  0.00000000000E+00  0.00000000000E+00  0.74505805969E-08  0.10566000000E+00  0.10566000000E+00 0.  1.
     999900   -1    0    0    0    0 -0.00000000000E+00 -0.00000000000E+00 -0.74505805969E-08  0.93827000000E+00  0.93827000000E+00 0. -1.
     999902    2    1    2    0    0 -0.22602752818E-01 -0.50495752086E-02 -0.71775433372E-02  0.10196833554E+01  0.10193950390E+01 0.  0.
     999903    2    3    3    0    0  0.87273563754E-01  0.86369701756E-01 -0.28438985607E-01  0.12789731715E+00  0.21738158136E-01 0.  0.
         14    1    1    2    0    0  0.22602752818E-01  0.50495752086E-02  0.71775433372E-02  0.24246644574E-01  0.00000000000E+00 0. -1.
     999901    1    3    3    0    0 -0.10987631657E+00 -0.91419276964E-01  0.21261442270E-01  0.89178603828E+00  0.88000000000E+00 0. -1.
        -11    1    4    4    0    0  0.43896037199E-01  0.42772889867E-01 -0.25320957025E-01  0.66315866692E-01  0.51100000000E-03 0.  1.
         11    1    4    4    0    0  0.43377526555E-01  0.43596811889E-01 -0.31180285816E-02  0.61581450455E-01  0.51100000000E-03 0. -1.
</event>
<event>
 8    1  0.1177602E+005  0.1043930E+01  0.7957747E-01            NaN
         13   -1    0    0    0    0  0.00000000000E+00  0.00000000000E+00  0.74505805969E-08  0.10566000000E+00  0.10566000000E+00 0. -1.
     999900   -1    0    0    0    0 -0.00000000000E+00 -0.00000000000E+00 -0.74505805969E-08  0.93827000000E+00  0.93827000000E+00 0.  1.
     999902    2    1    2    0    0 -0.11236149952E-01 -0.12701739213E-01 -0.17616106921E-01  0.10194777513E+01  0.10191844646E+01 0.  0.
     999903    2    3    3    0    0 -0.48088616907E-01  0.11573997612E+00 -0.25507910289E-01  0.12935547927E+00  0.19337253718E-01 0.  0.
         14    1    1    2    0    0  0.11236149952E-01  0.12701739213E-01  0.17616106921E-01  0.24452248727E-01  0.00000000000E+00 0. -1.
     999901    1    3    3    0    0  0.36852466954E-01 -0.12844171533E+00  0.78918033684E-02  0.89012227200E+00  0.88000000000E+00 0. -1.
        -11    1    4    4    0    0  0.71180525359E-03  0.12701335717E-01 -0.12608454296E-02  0.12793805060E-01  0.51100000000E-03 0. -1.
         11    1    4    4    0    0 -0.48800422160E-01  0.10303864040E+00 -0.24247064859E-01  0.11656167421E+00  0.51100000000E-03 0.  1.
</event>
<event>
 8    1  0.1177602E+005  0.1043930E+01  0.7957747E-01            NaN
         13   -1    0    0    0    0  0.00000000000E+00  0.00000000000E+00  0.74505805969E-08  0.10566000000E+00  0.10566000000E+00 0.  1.
     999900   -1    0    0    0    0 -0.00000000000E+00 -0.00000000000E+00 -0.74505805969E-08  0.93827000000E+00  0.93827000000E+00 0. -1.
     999902    2    1    2    0    0  0.19671326168E-01  0.53354814464E-02 -0.18055574297E-01  0.10167007474E+01  0.10163360554E+01 0.  0.
     999903    2    3    3    0    0 -0.69406352597E-01 -0.96579681869E-01 -0.36580961729E-01  0.12615893289E+00  0.20809441499E-01 0.  0.
         14    1    1    2    0    0 -0.19671326168E-01 -0.53354814464E-02  0.18055574297E-01  0.27229252627E-01  0.00000000000E+00 0.  1.
     999901    1    3    3    0    0  0.89077678765E-01  0.10191516331E+00  0.18525387433E-01  0.89054181449E+00  0.88000000000E+00 0. -1.
        -11    1    4    4    0    0 -0.30453636670E-01 -0.42935636008E-01 -0.54693302994E-02  0.52925112383E-01  0.51100000000E-03 0.  1.
         11    1    4    4    0    0 -0.38952715927E-01 -0.53644045860E-01 -0.31111631430E-01  0.73233820504E-01  0.51100000000E-03 0. -1.
</event>
<event>
 8    1  0.1177602E+005  0.1043930E+01  0.7957747E-01            NaN
         13   -1    0    0    0    0  0.00000000000E+00  0.00000000000E+00  0.74505805969E-08  0.10566000000E+00  0.10566000000E+00 0.  1.
     999900   -1    0    0    0    0 -0.00000000000E+00 -0.00000000000E+00 -0.74505805969E-08  0.93827000000E+00  0.93827000000E+00 0. -1.
     999902    2    1    2    0    0 -0.65105289019E-02  0.70702230143E-02  0.21175245889E-01  0.10206756224E+01  0.10204106820E+01 0.  0.
     999903    2    3    3    0    0  0.29628851894E-01 -0.23846071211E-01 -0.12061774088E+00  0.12805749396E+00  0.20089259946E-01 0.  0.
         14    1    1    2    0    0  0.65105289019E-02 -0.70702230143E-02 -0.21175245889E-01  0.23254377621E-01  0.00000000000E+00 0. -1.
     999901    1    3    3    0    0 -0.36139380795E-01  0.30916294225E-01  0.14179298677E+00  0.89261812842E+00  0.88000000000E+00 0.  1.
        -11    1    4    4    0    0  0.38701839139E-02  0.13517768559E-02 -0.33884615000E-01  0.34135522244E-01  0.51100000000E-03 0. -1.
         11    1    4    4    0    0  0.25758667980E-01 -0.25197848067E-01 -0.86733125885E-01  0.93921971711E-01  0.51100000000E-03 0.  1.
</event>
<event>
 8    1  0.1177602E+005  0.1043930E+01  0.7957747E-01            NaN
         13   -1    0    0    0    0  0.00000000000E+00  0.00000000000E+00  0.74505805969E-08  0.10566000000E+00  0.10566000000E+00 0. -1.
     999900   -1    0    0    0    0 -0.00000000000E+00 -0.00000000000E+00 -0.74505805969E-08  0.93827000000E+00  0.93827000000E+00 0. -1.
     999902    2    1    2    0    0  0.33894114380E-02  0.13721984003E-01  0.19081643071E-01  0.10201836307E+01  0.10199072263E+01 0.  0.
     999903    2    3    3    0    0  0.71703261324E-01 -0.10438934428E+00  0.21985692635E-01  0.12966383780E+00  0.17054244912E-01 0.  0.
         14    1    1    2    0    0 -0.33894114380E-02 -0.13721984003E-01 -0.19081643071E-01  0.23746369347E-01  0.00000000000E+00 0. -1.
     999901    1    3    3    0    0 -0.68313849886E-01  0.11811132828E+00 -0.29040495640E-02  0.89051979285E+00  0.88000000000E+00 0. -1.
        -11    1    4    4    0    0  0.27777069325E-01 -0.32100061868E-01  0.13980757447E-01  0.44695662564E-01  0.51100000000E-03 0. -1.
         11    1    4    4    0    0  0.43926191999E-01 -0.72289282410E-01  0.80049351876E-02  0.84968175238E-01  0.51100000000E-03 0.  1.
</event>
<event>
 8    1  0.1177602E+005  0.1043930E+01  0.7957747E-01            NaN
         13   -1    0    0    0    0  0.00000000000E+00  0.00000000000E+00  0.74505805969E-08  0.10566000000E+00  0.10566000000E+00 0.  1.
     999900   -1    0    0    0    0 -0.00000000000E+00 -0.00000000000E+00 -0.74505805969E-08  0.93827000000E+00  0.93827000000E+00 0. -1.
     999902    2    1    2    0    0  0.73068219573E-02 -0.22181989476E-01  0.56121987686E-02  0.10199106936E+01  0.10196278222E+01 0.  0.
     999903    2    3    3    0    0  0.10537874326E+00 -0.68409147766E-01  0.38436760353E-01  0.13264945601E+00  0.18275738131E-01 0.  0.
         14    1    1    2    0    0 -0.73068219573E-02  0.22181989476E-01 -0.56121987686E-02  0.24019306385E-01  0.00000000000E+00 0. -1.
     999901    1    3    3    0    0 -0.98071921303E-01  0.46227158290E-01 -0.32824561584E-01  0.88726123760E+00  0.88000000000E+00 0.  1.
        -11    1    4    4    0    0  0.40858041800E-01 -0.26639676959E-01  0.57161645846E-02  0.49111990662E-01  0.51100000000E-03 0.  1.
         11    1    4    4    0    0  0.64520701460E-01 -0.41769470807E-01  0.32720595768E-01  0.83537465349E-01  0.51100000000E-03 0. -1.
</event>
<event>
 8    1  0.1177602E+005  0.1043930E+01  0.7957747E-01            NaN
         13   -1    0    0    0    0  0.00000000000E+00  0.00000000000E+00  0.74505805969E-08  0.10566000000E+00  0.10566000000E+00 0. -1.
     999900   -1    0    0    0    0 -0.00000000000E+00 -0.00000000000E+00 -0.74505805969E-08  0.93827000000E+00  0.93827000000E+00 0. -1.
     999902    2    1    2    0    0  0.22303830467E-02 -0.11215128650E-01  0.20535120229E-01  0.10204258539E+01  0.10201551247E+01 0.  0.
     999903    2    3    3    0    0 -0.20977182079E-01  0.11629760593E+00  0.51452660507E-01  0.13039552701E+00  0.19759602189E-01 0.  0.
         14    1    1    2    0    0 -0.22303830467E-02  0.11215128650E-01 -0.20535120229E-01  0.23504146059E-01  0.00000000000E+00 0.  1.
     999901    1    3    3    0    0  0.23207565125E-01 -0.12751273458E+00 -0.30917540278E-01  0.89003032693E+00  0.88000000000E+00 0.  1.
        -11    1    4    4    0    0 -0.22245282425E-01  0.10408488035E+00  0.40332662174E-01  0.11382222835E+00  0.51100000000E-03 0. -1.
         11    1    4    4    0    0  0.12681003463E-02  0.12212725574E-01  0.11119998333E-01  0.16573298657E-01  0.51100000000E-03 0.  1.
</event>
<event>
 8    1  0.1177602E+005  0.1043930E+01  0.7957747E-01            NaN
         13   -1    0    0    0    0  0.00000000000E+00  0.00000000000E+00  0.74505805969E-08  0.10566000000E+00  0.10566000000E+00 0. -1.
     999900   -1    0    0    0    0 -0.00000000000E+00 -0.00000000000E+00 -0.74505805969E-08  0.93827000000E+00  0.93827000000E+00 0. -1.
     999902    2    1    2    0    0  0.12289689197E-01  0.96572004945E-02 -0.17824322846E-01  0.10202233666E+01  0.10199478973E+01 0.  0.
     999903    2    3    3    0    0 -0.44397972791E-01 -0.11914756353E+00  0.41713607130E-02  0.12877063743E+00  0.19928746371E-01 0.  0.
         14    1    1    2    0    0 -0.12289689197E-01 -0.96572004945E-02  0.17824322846E-01  0.23706633393E-01  0.00000000000E+00 0. -1.
     999901    1    3    3    0    0  0.56687661988E-01  0.12880476402E+00 -0.21995683559E-01  0.89145272917E+00  0.88000000000E+00 0. -1.
        -11    1    4    4    0    0 -0.13070642548E-01 -0.45340901408E-01  0.10485137565E-01  0.48340855060E-01  0.51100000000E-03 0. -1.
         11    1    4    4    0    0 -0.31327330243E-01 -0.73806662120E-01 -0.63137768518E-02  0.80429782373E-01  0.51100000000E-03 0.  1.
</event>
<event>
 8    1  0.1177602E+005  0.1043930E+01  0.7957747E-01            NaN
         13   -1    0    0    0    0  0.00000000000E+00  0.00000000000E+00  0.74505805969E-08  0.10566000000E+00  0.10566000000E+00 0.  1.
     999900   -1    0    0    0    0 -0.00000000000E+00 -0.00000000000E+00 -0.74505805969E-08  0.93827000000E+00  0.93827000000E+00 0. -1.
     999902    2    1    2    0    0 -0.11710079191E-01  0.16303891871E-01  0.11509326223E-01  0.10207911272E+01  0.10205288423E+01 0.  0.
     999903    2    3    3    0    0 -0.85214170338E-01  0.98366105602E-01 -0.24543916116E-01  0.13318936141E+00  0.14129989961E-01 0.  0.
         14    1    1    2    0    0  0.11710079191E-01 -0.16303891871E-01 -0.11509326223E-01  0.23138872809E-01  0.00000000000E+00 0. -1.
     999901    1    3    3    0    0  0.73504091147E-01 -0.82062213731E-01  0.36053242339E-01  0.88760176578E+00  0.88000000000E+00 0.  1.
        -11    1    4    4    0    0 -0.29904847812E-01  0.40201311153E-01 -0.15315001070E-01  0.52395187946E-01  0.51100000000E-03 0. -1.
         11    1    4    4    0    0 -0.55309322525E-01  0.58164794449E-01 -0.92289150463E-02  0.80794173462E-01  0.51100000000E-03 0.  1.
</event>
<event>
 8    1  0.1177602E+005  0.1043930E+01  0.7957747E-01            NaN
         13   -1    0    0    0    0  0.00000000000E+00  0.00000000000E+00  0.74505805969E-08  0.10566000000E+00  0.10566000000E+00 0. -1.
     999900   -1    0    0    0    0 -0.00000000000E+00 -0.00000000000E+00 -0.74505805969E-08  0.93827000000E+00  0.93827000000E+00 0.  1.
     999902    2    1    2    0    0 -0.51845516775E-02 -0.22096688538E-01 -0.70770278695E-03  0.10212222026E+01  0.10209697072E+01 0.  0.
     999903    2    3    3    0    0  0.23892030942E-01 -0.13021639178E+00 -0.31335999622E-02  0.13412513751E+00  0.21274285717E-01 0.  0.
         14    1    1    2    0    0  0.51845516775E-02  0.22096688538E-01  0.70770278695E-03  0.22707797420E-01  0.00000000000E+00 0.  1.
     999901    1    3    3    0    0 -0.29076582619E-01  0.10811970324E+00  0.24258971752E-02  0.88709706507E+00  0.88000000000E+00 0.  1.
        -11    1    4    4    0    0  0.10910758444E-01 -0.78077188676E-01 -0.11740289945E-01  0.79706885339E-01  0.51100000000E-03 0. -1.
         11    1    4    4    0    0  0.12981272497E-01 -0.52139203099E-01  0.86066899831E-02  0.54418252167E-01  0.51100000000E-03 0.  1.
</event>
<event>
 7    1  0.1207757E+005  0.1043930E+01  0.7957747E-01            NaN
         13   -1    0    0    0    0  0.00000000000E+00  0.00000000000E+00  0.74505805969E-08  0.10566000000E+00  0.10566000000E+00 0. -1.
     999900   -1    0    0    0    0 -0.00000000000E+00 -0.00000000000E+00 -0.74505805969E-08  0.93827000000E+00  0.93827000000E+00 0.  1.
     999903    2    1    2    0    0 -0.43115199011E-01  0.83083428227E-02  0.92444694547E-01  0.10402232947E+00  0.18619197933E-01 0.  0.
         14    1    1    2    0    0  0.16731840700E-01 -0.97254446051E-02 -0.55454380194E-01  0.58734377061E-01  0.00000000000E+00 0.  1.
     999901    1    1    2    0    0  0.26383358311E-01  0.14171017824E-02 -0.36990314352E-01  0.88117329347E+00  0.88000000000E+00 0.  1.
        -11    1    3    3    0    0 -0.20084043646E-01  0.13216364893E-01  0.49915846657E-01  0.55406623960E-01  0.51100000000E-03 0.  1.
         11    1    3    3    0    0 -0.23031155365E-01 -0.49080220707E-02  0.42528847889E-01  0.48615705506E-01  0.51100000000E-03 0. -1.
</event>
<event>
 8    1  0.1177602E+005  0.1043930E+01  0.7957747E-01            NaN
         13   -1    0    0    0    0  0.00000000000E+00  0.00000000000E+00  0.74505805969E-08  0.10566000000E+00  0.10566000000E+00 0.  1.
     999900   -1    0    0    0    0 -0.00000000000E+00 -0.00000000000E+00 -0.74505805969E-08  0.93827000000E+00  0.93827000000E+00 0.  1.
     999902    2    1    2    0    0  0.15710014520E-01  0.11183366539E-01 -0.15310408622E-01  0.10193072289E+01  0.10190097870E+01 0.  0.
     999903    2    3    3    0    0  0.26665256532E-01  0.11781143829E+00  0.46754918425E-01  0.13063312227E+00  0.16982913167E-01 0.  0.
         14    1    1    2    0    0 -0.15710014520E-01 -0.11183366539E-01  0.15310408622E-01  0.24622771078E-01  0.00000000000E+00 0. -1.
     999901    1    3    3    0    0 -0.10955242012E-01 -0.10662807175E+00 -0.62065327047E-01  0.88867410665E+00  0.88000000000E+00 0. -1.
        -11    1    4    4    0    0  0.15444951385E-01  0.97050097958E-01  0.39786117844E-01  0.10602105607E+00  0.51100000000E-03 0.  1.
         11    1    4    4    0    0  0.11220305147E-01  0.20761340330E-01  0.69688005817E-02  0.24612066196E-01  0.51100000000E-03 0. -1.
</event>
<event>
 8    1  0.1177602E+005  0.1043930E+01  0.7957747E-01            NaN
         13   -1    0    0    0    0  0.00000000000E+00  0.00000000000E+00  0.74505805969E-08  0.10566000000E+00  0.10566000000E+00 0.  1.
     999900   -1    0    0    0    0 -0.00000000000E+00 -0.00000000000E+00 -0.74505805969E-08  0.93827000000E+00  0.93827000000E+00 0. -1.
     999902    2    1    2    0    0 -0.21974813815E-02  0.17784303485E-01  0.15195921191E-01  0.10204347580E+01  0.10201642363E+01 0.  0.
     999903    2    3    3    0    0 -0.84413010115E-01 -0.38349846829E-02 -0.96007363606E-01  0.12937193345E+00  0.19478704099E-01 0.  0.
         14    1    1    2    0    0  0.21974813815E-02 -0.17784303485E-01 -0.15195921191E-01  0.23495241980E-01  0.00000000000E+00 0. -1.
     999901    1    3    3    0    0  0.82215528733E-01  0.21619288168E-01  0.11120328480E+00  0.89106282457E+00  0.88000000000E+00 0.  1.
        -11    1    4    4    0    0 -0.61081750955E-01 -0.11189845532E-01 -0.65404405880E-01  0.90189746492E-01  0.51100000000E-03 0.  1.
         11    1    4    4    0    0 -0.23331259160E-01  0.73548608491E-02 -0.30602957726E-01  0.39182186956E-01  0.51100000000E-03 0. -1.
</event>
<event>
 8    1  0.1177602E+005  0.1043930E+01  0.7957747E-01            NaN
         13   -1    0    0    0    0  0.00000000000E+00  0.00000000000E+00  0.74505805969E-08  0.10566000000E+00  0.10566000000E+00 0.  1.
     999900   -1    0    0    0    0 -0.00000000000E+00 -0.00000000000E+00 -0.74505805969E-08  0.93827000000E+00  0.93827000000E+00 0.  1.
     999902    2    1    2    0    0 -0.25910936418E-01 -0.51219057667E-02  0.26315757912E-02  0.10173869079E+01  0.10170406013E+01 0.  0.
     999903    2    3    3    0    0  0.89982492472E-01 -0.81901022778E-01  0.26653953208E-01  0.12614990563E+00  0.19968449774E-01 0.  0.
         14    1    1    2    0    0  0.25910936418E-01  0.51219057667E-02 -0.26315757912E-02  0.26543092056E-01  0.00000000000E+00 0.  1.
     999901    1    3    3    0    0 -0.11589342889E+00  0.76779117011E-01 -0.24022377417E-01  0.89123700231E+00  0.88000000000E+00 0.  1.
        -11    1    4    4    0    0  0.36328082208E-01 -0.20666425017E-01  0.11286976698E-01  0.43295353606E-01  0.51100000000E-03 0.  1.
         11    1    4    4    0    0  0.53654410265E-01 -0.61234597761E-01  0.15366976510E-01  0.82854552029E-01  0.51100000000E-03 0. -1.
</event>
<event>
 8    1  0.1177602E+005  0.1043930E+01  0.7957747E-01            NaN
         13   -1    0    0    0    0  0.00000000000E+00  0.00000000000E+00  0.74505805969E-08  0.10566000000E+00  0.10566000000E+00 0.  1.
     999900   -1    0    0    0    0 -0.00000000000E+00 -0.00000000000E+00 -0.74505805969E-08  0.93827000000E+00  0.93827000000E+00 0.  1.
     999902    2    1    2    0    0  0.27307105051E-02 -0.53601516558E-02  0.22833600124E-01  0.10203172640E+01  0.10200439981E+01 0.  0.
     999903    2    3    3    0    0  0.71707449420E-01  0.10332008859E+00 -0.24401668701E-01  0.12969930117E+00  0.20235322589E-01 0.  0.
         14    1    1    2    0    0 -0.27307105051E-02  0.53601516558E-02 -0.22833600124E-01  0.23612735976E-01  0.00000000000E+00 0. -1.
     999901    1    3    3    0    0 -0.68976738915E-01 -0.10868024025E+00  0.47235268825E-01  0.89061796285E+00  0.88000000000E+00 0. -1.
        -11    1    4    4    0    0  0.28812714465E-01  0.59210721498E-01 -0.13054175324E-01  0.67132366780E-01  0.51100000000E-03 0. -1.
         11    1    4    4    0    0  0.42894734955E-01  0.44109367095E-01 -0.11347493376E-01  0.62566934393E-01  0.51100000000E-03 0.  1.
</event>
<event>
 8    1  0.1177602E+005  0.1043930E+01  0.7957747E-01            NaN
         13   -1    0    0    0    0  0.00000000000E+00  0.00000000000E+00  0.74505805969E-08  0.10566000000E+00  0.10566000000E+00 0.  1.
     999900   -1    0    0    0    0 -0.00000000000E+00 -0.00000000000E+00 -0.74505805969E-08  0.93827000000E+00  0.93827000000E+00 0.  1.
     999902    2    1    2    0    0  0.23314168672E-01  0.34866958251E-02  0.21396601087E-02  0.10202596461E+01  0.10199850292E+01 0.  0.
     999903    2    3    3    0    0  0.78644230682E-01  0.77346812820E-01  0.70489781492E-01  0.13279783185E+00  0.22338540164E-01 0.  0.
         14    1    1    2    0    0 -0.23314168672E-01 -0.34866958251E-02 -0.21396601087E-02  0.23670353906E-01  0.00000000000E+00 0. -1.
     999901    1    3    3    0    0 -0.55330062010E-01 -0.73860116995E-01 -0.68350121384E-01  0.88746181424E+00  0.88000000000E+00 0.  1.
        -11    1    4    4    0    0  0.19163860108E-01  0.24830517721E-01  0.31243164058E-01  0.44274197518E-01  0.51100000000E-03 0.  1.
         11    1    4    4    0    0  0.59480370574E-01  0.52516295100E-01  0.39246617434E-01  0.88523634334E-01  0.51100000000E-03 0. -1.
</event>
<event>
 8    1  0.1177602E+005  0.1043930E+01  0.7957747E-01            NaN
         13   -1    0    0    0    0  0.00000000000E+00  0.00000000000E+00  0.74505805969E-08  0.10566000000E+00  0.10566000000E+00 0.  1.
     999900   -1    0    0    0    0 -0.00000000000E+00 -0.00000000000E+00 -0.74505805969E-08  0.93827000000E+00  0.93827000000E+00 0.  1.
     999902    2    1    2    0    0 -0.94889371052E-02 -0.21031841524E-01  0.46111935931E-03  0.10208520686E+01  0.10205911792E+01 0.  0.
     999903    2    3    3    0    0  0.12733219081E+00 -0.14189545311E-01  0.12596497106E-01  0.13017024808E+00  0.19255953174E-01 0.  0.
         14    1    1    2    0    0  0.94889371052E-02  0.21031841524E-01 -0.46111935931E-03  0.23077931370E-01  0.00000000000E+00 0. -1.
     999901    1    3    3    0    0 -0.13682112792E+00 -0.68422962125E-02 -0.12135377747E-01  0.89068182055E+00  0.88000000000E+00 0.  1.
        -11    1    4    4    0    0  0.37948196214E-01 -0.63123303721E-02  0.12453119692E-01  0.40438254434E-01  0.51100000000E-03 0.  1.
         11    1    4    4    0    0  0.89383994600E-01 -0.78772149390E-02  0.14337741416E-03  0.89731993647E-01  0.51100000000E-03 0. -1.
</event>
<event>
 8    1  0.1177602E+005  0.1043930E+01  0.7957747E-01            NaN
         13   -1    0    0    0    0  0.00000000000E+00  0.00000000000E+00  0.74505805969E-08  0.10566000000E+00  0.10566000000E+00 0.  1.
     999900   -1    0    0    0    0 -0.00000000000E+00 -0.00000000000E+00 -0.74505805969E-08  0.93827000000E+00  0.93827000000E+00 0. -1.
     999902    2    1    2    0    0  0.19199588440E-01  0.33329802424E-02 -0.25407760179E-01  0.10119098933E+01  0.10114031565E+01 0.  0.
     999903    2    3    3    0    0 -0.54221355101E-01  0.93826881585E-01  0.50850464945E-01  0.12095810001E+00  0.17368163858E-01 0.  0.
         14    1    1    2    0    0 -0.19199588440E-01 -0.33329802424E-02  0.25407760179E-01  0.32020106665E-01  0.00000000000E+00 0. -1.
     999901    1    3    3    0    0  0.73420943541E-01 -0.90493901342E-01 -0.76258225124E-01  0.89095179333E+00  0.88000000000E+00 0. -1.
        -11    1    4    4    0    0 -0.38258131229E-01  0.74023254648E-01  0.31858270590E-01  0.89209513841E-01  0.51100000000E-03 0. -1.
         11    1    4    4    0    0 -0.15963223873E-01  0.19803626937E-01  0.18992194355E-01  0.31748586168E-01  0.51100000000E-03 0.  1.
</event>
<event>
 8    1  0.1177602E+005  0.1043930E+01  0.7957747E-01            NaN
         13   -1    0    0    0    0  0.00000000000E+00  0.00000000000E+00  0.74505805969E-08  0.10566000000E+00  0.10566000000E+00 0.  1.
     999900   -1    0    0    0    0 -0.00000000000E+00 -0.00000000000E+00 -0.74505805969E-08  0.93827000000E+00  0.93827000000E+00 0.  1.
     999902    2    1    2    0    0 -0.42606857336E-02 -0.75210490918E-02  0.21830173799E-01  0.10204507302E+01  0.10201805804E+01 0.  0.
     999903    2    3    3    0    0  0.24240510751E-01 -0.11813875300E+00  0.50908070918E-01  0.13259144026E+00  0.21082955789E-01 0.  0.
         14    1    1    2    0    0  0.42606857336E-02  0.75210490918E-02 -0.21830173799E-01  0.23479269802E-01  0.00000000000E+00 0. -1.
     999901    1    3    3    0    0 -0.28501196484E-01  0.11061770391E+00 -0.29077897119E-01  0.88785928993E+00  0.88000000000E+00 0. -1.
        -11    1    4    4    0    0  0.84407451749E-02 -0.85486305328E-01  0.39604059486E-01  0.94593325486E-01  0.51100000000E-03 0. -1.
         11    1    4    4    0    0  0.15799765576E-01 -0.32652447673E-01  0.11304011432E-01  0.37998114779E-01  0.51100000000E-03 0.  1.
</event>
<event>
 8    1  0.1177602E+005  0.1043930E+01  0.7957747E-01            NaN
         13   -1    0    0    0    0  0.00000000000E+00  0.00000000000E+00  0.74505805969E-08  0.10566000000E+00  0.10566000000E+00 0.  1.
     999900   -1    0    0    0    0 -0.00000000000E+00 -0.00000000000E+00 -0.74505805969E-08  0.93827000000E+00  0.93827000000E+00 0. -1.
     999902    2    1    2    0    0  0.56005362411E-02  0.21968095421E-01 -0.71217114968E-02  0.10201669615E+01  0.10198901644E+01 0.  0.
     999903    2    3    3    0    0 -0.69290025783E-01  0.10129991112E+00 -0.45741690221E-01  0.13258956433E+00  0.20613361694E-01 0.  0.
         14    1    1    2    0    0 -0.56005362411E-02 -0.21968095421E-01  0.71217114968E-02  0.23763038469E-01  0.00000000000E+00 0.  1.
     999901    1    3    3    0    0  0.74890562024E-01 -0.79331815696E-01  0.38619978725E-01  0.88757739720E+00  0.88000000000E+00 0. -1.
        -11    1    4    4    0    0 -0.48015705688E-01  0.60418377152E-01 -0.19692569878E-01  0.79648896538E-01  0.51100000000E-03 0. -1.
         11    1    4    4    0    0 -0.21274320095E-01  0.40881533965E-01 -0.26049120343E-01  0.52940667794E-01  0.51100000000E-03 0.  1.
</event>
<event>
 8    1  0.1177602E+005  0.1043930E+01  0.7957747E-01            NaN
         13   -1    0    0    0    0  0.00000000000E+00  0.00000000000E+00  0.74505805969E-08  0.10566000000E+00  0.10566000000E+00 0. -1.
     999900   -1    0    0    0    0 -0.00000000000E+00 -0.00000000000E+00 -0.74505805969E-08  0.93827000000E+00  0.93827000000E+00 0. -1.
     999902    2    1    2    0    0  0.11127502527E-01 -0.13462748424E-01  0.16028788710E-01  0.10202236933E+01  0.10199482318E+01 0.  0.
     999903    2    3    3    0    0 -0.36175024852E-01  0.89399841694E-01 -0.81201073043E-01  0.12765891275E+00  0.20055413825E-01 0.  0.
         14    1    1    2    0    0 -0.11127502527E-01  0.13462748424E-01 -0.16028788710E-01  0.23706306653E-01  0.00000000000E+00 0.  1.
     999901    1    3    3    0    0  0.47302527379E-01 -0.10286259012E+00  0.97229861753E-01  0.89256478060E+00  0.88000000000E+00 0. -1.
        -11    1    4    4    0    0 -0.62082216698E-02  0.39785700268E-01 -0.37975994444E-01  0.55352337233E-01  0.51100000000E-03 0.  1.
         11    1    4    4    0    0 -0.29966803182E-01  0.49614141426E-01 -0.43225078599E-01  0.72306575519E-01  0.51100000000E-03 0. -1.
</event>
<event>
 8    1  0.1177602E+005  0.1043930E+01  0.7957747E-01            NaN
         13   -1    0    0    0    0  0.00000000000E+00  0.00000000000E+00  0.74505805969E-08  0.10566000000E+00  0.10566000000E+00 0. -1.
     999900   -1    0    0    0    0 -0.00000000000E+00 -0.00000000000E+00 -0.74505805969E-08  0.93827000000E+00  0.93827000000E+00 0.  1.
     999902    2    1    2    0    0 -0.15207626626E-01 -0.13355745006E-01 -0.13745264686E-01  0.10194641026E+01  0.10191704845E+01 0.  0.
     999903    2    3    3    0    0  0.51521968092E-01  0.11358070857E+00  0.17061983869E-01  0.12732353714E+00  0.19107099728E-01 0.  0.
         14    1    1    2    0    0  0.15207626626E-01  0.13355745006E-01  0.13745264686E-01  0.24465897358E-01  0.00000000000E+00 0.  1.
     999901    1    3    3    0    0 -0.66729594717E-01 -0.12693645358E+00 -0.30807248555E-01  0.89214056551E+00  0.88000000000E+00 0.  1.
        -11    1    4    4    0    0  0.30817050817E-01  0.46087706928E-01  0.10397000177E-01  0.56410336682E-01  0.51100000000E-03 0. -1.
         11    1    4    4    0    0  0.20704917275E-01  0.67493001642E-01  0.66649836920E-02  0.70913200454E-01  0.51100000000E-03 0.  1.
</event>
<event>
 8    1  0.1177602E+005  0.1043930E+01  0.7957747E-01            NaN
         13   -1    0    0    0    0  0.00000000000E+00  0.00000000000E+00  0.74505805969E-08  0.10566000000E+00  0.10566000000E+00 0.  1.
     999900   -1    0    0    0    0 -0.00000000000E+00 -0.00000000000E+00 -0.74505805969E-08  0.93827000000E+00  0.93827000000E+00 0. -1.
     999902    2    1    2    0    0  0.19912424145E-01  0.22058094443E-02 -0.13748143235E-01  0.10196322291E+01  0.10193426808E+01 0.  0.
     999903    2    3    3    0    0  0.12271967329E+00  0.20834168723E-01 -0.42021417370E-01  0.13300055565E+00  0.20716357976E-01 0.  0.
         14    1    1    2    0    0 -0.19912424145E-01 -0.22058094443E-02  0.13748143235E-01  0.24297770948E-01  0.00000000000E+00 0. -1.
     999901    1    3    3    0    0 -0.10280724914E+00 -0.18628359279E-01  0.28273274136E-01  0.88663167340E+00  0.88000000000E+00 0.  1.
        -11    1    4    4    0    0  0.47257093110E-01  0.50835096443E-02 -0.60005578341E-02  0.47909735282E-01  0.51100000000E-03 0. -1.
         11    1    4    4    0    0  0.75462580178E-01  0.15750659079E-01 -0.36020859536E-01  0.85090820370E-01  0.51100000000E-03 0.  1.
</event>
<event>
 8    1  0.1177602E+005  0.1043930E+01  0.7957747E-01            NaN
         13   -1    0    0    0    0  0.00000000000E+00  0.00000000000E+00  0.74505805969E-08  0.10566000000E+00  0.10566000000E+00 0. -1.
     999900   -1    0    0    0    0 -0.00000000000E+00 -0.00000000000E+00 -0.74505805969E-08  0.93827000000E+00  0.93827000000E+00 0. -1.
     999902    2    1    2    0    0 -0.19995564252E-01 -0.20697189082E-02  0.12332088343E-01  0.10203463886E+01  0.10200738041E+01 0.  0.
     999903    2    3    3    0    0 -0.57547587869E-01  0.11704080708E-01 -0.11451515562E+00  0.13035195299E+00  0.20717152449E-01 0.  0.
         14    1    1    2    0    0  0.19995564252E-01  0.20697189082E-02 -0.12332088343E-01  0.23583611450E-01  0.00000000000E+00 0.  1.
     999901    1    3    3    0    0  0.37552023617E-01 -0.13773799616E-01  0.12684724396E+00  0.88999443556E+00  0.88000000000E+00 0.  1.
        -11    1    4    4    0    0 -0.62907538156E-02  0.72303522346E-03 -0.31767266829E-01  0.32396245558E-01  0.51100000000E-03 0.  1.
         11    1    4    4    0    0 -0.51256834053E-01  0.10981045484E-01 -0.82747888793E-01  0.97955707428E-01  0.51100000000E-03 0. -1.
</event>
<event>
 8    1  0.1177602E+005  0.1043930E+01  0.7957747E-01            NaN
         13   -1    0    0    0    0  0.00000000000E+00  0.00000000000E+00  0.74505805969E-08  0.10566000000E+00  0.10566000000E+00 0. -1.
     999900   -1    0    0    0    0 -0.00000000000E+00 -0.00000000000E+00 -0.74505805969E-08  0.93827000000E+00  0.93827000000E+00 0.  1.
     999902    2    1    2    0    0 -0.19757066774E-01  0.16601857900E-02 -0.12924352427E-01  0.10202627908E+01  0.10199882478E+01 0.  0.
     999903    2    3    3    0    0  0.10192090518E+00 -0.89026157968E-02  0.73706180601E-01  0.12761395120E+00  0.19636496667E-01 0.  0.
         14    1    1    2    0    0  0.19757066774E-01 -0.16601857900E-02  0.12924352427E-01  0.23667209173E-01  0.00000000000E+00 0. -1.
     999901    1    3    3    0    0 -0.12167797195E+00  0.10562801587E-01 -0.86630533028E-01  0.89264883963E+00  0.88000000000E+00 0.  1.
        -11    1    4    4    0    0  0.73128090867E-01 -0.11032321633E-01  0.61802207885E-01  0.96380515744E-01  0.51100000000E-03 0.  1.
         11    1    4    4    0    0  0.28792814312E-01  0.21297058362E-02  0.11903972715E-01  0.31233435455E-01  0.51100000000E-03 0. -1.
</event>
<event>
 8    1  0.1177602E+005  0.1043930E+01  0.7957747E-01            NaN
         13   -1    0    0    0    0  0.00000000000E+00  0.00000000000E+00  0.74505805969E-08  0.10566000000E+00  0.10566000000E+00 0. -1.
     999900   -1    0    0    0    0 -0.00000000000E+00 -0.00000000000E+00 -0.74505805969E-08  0.93827000000E+00  0.93827000000E+00 0. -1.
     999902    2    1    2    0    0 -0.10840105097E-01 -0.15850836912E-01 -0.14703690061E-01  0.10197441485E+01  0.10194572934E+01 0.  0.
     999903    2    3    3    0    0  0.61892513106E-01 -0.40806958566E-01 -0.10703272301E+00  0.13157890936E+00  0.19003014182E-01 0.  0.
         14    1    1    2    0    0  0.10840105097E-01  0.15850836912E-01  0.14703690061E-01  0.24185851458E-01  0.00000000000E+00 0. -1.
     999901    1    3    3    0    0 -0.72732618203E-01  0.24956121654E-01  0.92329032951E-01  0.88816523918E+00  0.88000000000E+00 0.  1.
        -11    1    4    4    0    0  0.41490206625E-01 -0.17182671933E-01 -0.56416547524E-01  0.72109426679E-01  0.51100000000E-03 0. -1.
         11    1    4    4    0    0  0.20402306481E-01 -0.23624286633E-01 -0.50616175489E-01  0.59469482685E-01  0.51100000000E-03 0.  1.
</event>
<event>
 8    1  0.1177602E+005  0.1043930E+01  0.7957747E-01            NaN
         13   -1    0    0    0    0  0.00000000000E+00  0.00000000000E+00  0.74505805969E-08  0.10566000000E+00  0.10566000000E+00 0.  1.
     999900   -1    0    0    0    0 -0.00000000000E+00 -0.00000000000E+00 -0.74505805969E-08  0.93827000000E+00  0.93827000000E+00 0. -1.
     999902    2    1    2    0    0  0.18153037877E-01 -0.14821624716E-01  0.45584603774E-02  0.10200554758E+01  0.10197760445E+01 0.  0.
     999903    2    3    3    0    0  0.67396553107E-01  0.86007070466E-01  0.68307369375E-01  0.13064259479E+00  0.21496030354E-01 0.  0.
         14    1    1    2    0    0 -0.18153037877E-01  0.14821624716E-01 -0.45584603774E-02  0.23874524171E-01  0.00000000000E+00 0. -1.
     999901    1    3    3    0    0 -0.49243515230E-01 -0.10082869518E+00 -0.63748908998E-01  0.88941288104E+00  0.88000000000E+00 0. -1.
        -11    1    4    4    0    0  0.48101396566E-01  0.66810481102E-01  0.60980145946E-01  0.10245108129E+00  0.51100000000E-03 0.  1.
         11    1    4    4    0    0  0.19295156541E-01  0.19196589364E-01  0.73272234295E-02  0.28191513499E-01  0.51100000000E-03 0. -1.
</event>
<event>
 8    1  0.1177602E+005  0.1043930E+01  0.7957747E-01            NaN
         13   -1    0    0    0    0  0.00000000000E+00  0.00000000000E+00  0.74505805969E-08  0.10566000000E+00  0.10566000000E+00 0. -1.
     999900   -1    0    0    0    0 -0.00000000000E+00 -0.00000000000E+00 -0.74505805969E-08  0.93827000000E+00  0.93827000000E+00 0. -1.
     999902    2    1    2    0    0  0.17798910004E-01  0.55573345653E-02 -0.14287367305E-01  0.10204392778E+01  0.10201688613E+01 0.  0.
     999903    2    3    3    0    0 -0.87631579485E-01  0.72279685594E-01 -0.58855780694E-01  0.13052141434E+00  0.25849371507E-01 0.  0.
         14    1    1    2    0    0 -0.17798910004E-01 -0.55573345653E-02  0.14287367305E-01  0.23490722197E-01  0.00000000000E+00 0. -1.
     999901    1    3    3    0    0  0.10543048949E+00 -0.66722351029E-01  0.44568413389E-01  0.88991786346E+00  0.88000000000E+00 0.  1.
        -11    1    4    4    0    0 -0.32568370707E-01  0.11923026988E-01 -0.20164930453E-01  0.40121601217E-01  0.51100000000E-03 0. -1.
         11    1    4    4    0    0 -0.55063208778E-01  0.60356658607E-01 -0.38690850241E-01  0.90399813122E-01  0.51100000000E-03 0.  1.
</event>
<event>
 8    1  0.1177602E+005  0.1043930E+01  0.7957747E-01            NaN
         13   -1    0    0    0    0  0.00000000000E+00  0.00000000000E+00  0.74505805969E-08  0.10566000000E+00  0.10566000000E+00 0.  1.
     999900   -1    0    0    0    0 -0.00000000000E+00 -0.00000000000E+00 -0.74505805969E-08  0.93827000000E+00  0.93827000000E+00 0.  1.
     999902    2    1    2    0    0  0.37504813045E-03 -0.23409260687E-01 -0.89159718406E-03  0.10205007641E+01  0.10202317779E+01 0.  0.
     999903    2    3    3    0    0 -0.10052400031E+00  0.60071964130E-04  0.80968075393E-01  0.13065109508E+00  0.20218831924E-01 0.  0.
         14    1    1    2    0    0 -0.37504813045E-03  0.23409260687E-01  0.89159718406E-03  0.23429235850E-01  0.00000000000E+00 0. -1.
     999901    1    3    3    0    0  0.10089904844E+00 -0.23469332651E-01 -0.81859672577E-01  0.88984966907E+00  0.88000000000E+00 0.  1.
        -11    1    4    4    0    0 -0.64483572712E-01  0.55840913249E-03  0.63834602503E-01  0.90738969403E-01  0.51100000000E-03 0.  1.
         11    1    4    4    0    0 -0.36040427602E-01 -0.49833716836E-03  0.17133472890E-01  0.39912125676E-01  0.51100000000E-03 0. -1.
</event>
<event>
 8    1  0.1177602E+005  0.1043930E+01  0.7957747E-01            NaN
         13   -1    0    0    0    0  0.00000000000E+00  0.00000000000E+00  0.74505805969E-08  0.10566000000E+00  0.10566000000E+00 0. -1.
     999900   -1    0    0    0    0 -0.00000000000E+00 -0.00000000000E+00 -0.74505805969E-08  0.93827000000E+00  0.93827000000E+00 0.  1.
     999902    2    1    2    0    0 -0.10706906432E-01 -0.22340610448E-01 -0.44005785226E-03  0.10191523009E+01  0.10188510579E+01 0.  0.
     999903    2    3    3    0    0  0.34470689083E-01  0.12008426820E+00 -0.15976094268E-03  0.12655724169E+00  0.20205198006E-01 0.  0.
         14    1    1    2    0    0  0.10706906432E-01  0.22340610448E-01  0.44005785226E-03  0.24777699075E-01  0.00000000000E+00 0. -1.
     999901    1    3    3    0    0 -0.45177595516E-01 -0.14242487865E+00 -0.28029690958E-03  0.89259505923E+00  0.88000000000E+00 0. -1.
        -11    1    4    4    0    0  0.57730481353E-02  0.75995620882E-02  0.40781508166E-02  0.10391047290E-01  0.51100000000E-03 0.  1.
         11    1    4    4    0    0  0.28697640948E-01  0.11248470611E+00 -0.42379117592E-02  0.11616619440E+00  0.51100000000E-03 0. -1.
</event>
<event>
 8    1  0.1177602E+005  0.1043930E+01  0.7957747E-01            NaN
         13   -1    0    0    0    0  0.00000000000E+00  0.00000000000E+00  0.74505805969E-08  0.10566000000E+00  0.10566000000E+00 0.  1.
     999900   -1    0    0    0    0 -0.00000000000E+00 -0.00000000000E+00 -0.74505805969E-08  0.93827000000E+00  0.93827000000E+00 0.  1.
     999902    2    1    2    0    0 -0.20403690729E-01  0.95558358607E-02 -0.51565277274E-02  0.10208169220E+01  0.10205552283E+01 0.  0.
     999903    2    3    3    0    0 -0.35579469504E-01  0.16982310870E-01  0.12359295387E+00  0.13128789733E+00  0.20174147009E-01 0.  0.
         14    1    1    2    0    0  0.20403690729E-01 -0.95558358607E-02  0.51565277274E-02  0.23113077955E-01  0.00000000000E+00 0.  1.
     999901    1    3    3    0    0  0.15175778775E-01 -0.74264750089E-02 -0.12874948160E+00  0.88952902471E+00  0.88000000000E+00 0.  1.
        -11    1    4    4    0    0 -0.92833440237E-02  0.43991405945E-03  0.10626938244E-01  0.14126816276E-01  0.51100000000E-03 0. -1.
         11    1    4    4    0    0 -0.26296125480E-01  0.16542396810E-01  0.11296601562E+00  0.11716108106E+00  0.51100000000E-03 0.  1.
</event>
<event>
 8    1  0.1177602E+005  0.1043930E+01  0.7957747E-01            NaN
         13   -1    0    0    0    0  0.00000000000E+00  0.00000000000E+00  0.74505805969E-08  0.10566000000E+00  0.10566000000E+00 0.  1.
     999900   -1    0    0    0    0 -0.00000000000E+00 -0.00000000000E+00 -0.74505805969E-08  0.93827000000E+00  0.93827000000E+00 0.  1.
     999902    2    1    2    0    0  0.84247504858E-02  0.93267785307E-02  0.20056334739E-01  0.10202609953E+01  0.10199864101E+01 0.  0.
     999903    2    3    3    0    0  0.11785044187E-01  0.11740845504E+00  0.57539611457E-01  0.13285019058E+00  0.20365010896E-01 0.  0.
         14    1    1    2    0    0 -0.84247504858E-02 -0.93267785307E-02 -0.20056334739E-01  0.23669004662E-01  0.00000000000E+00 0. -1.
     999901    1    3    3    0    0 -0.33602937012E-02 -0.10808167651E+00 -0.37483276717E-01  0.88741080476E+00  0.88000000000E+00 0. -1.
        -11    1    4    4    0    0  0.32470218946E-03  0.38878514504E-01  0.29017198148E-01  0.48517040624E-01  0.51100000000E-03 0. -1.
         11    1    4    4    0    0  0.11460341998E-01  0.78529940536E-01  0.28522413308E-01  0.84333149954E-01  0.51100000000E-03 0.  1.
</event>
<event>
 8    1  0.1177602E+005  0.1043930E+01  0.7957747E-01            NaN
         13   -1    0    0    0    0  0.00000000000E+00  0.00000000000E+00  0.74505805969E-08  0.10566000000E+00  0.10566000000E+00 0.  1.
     999900   -1    0    0    0    0 -0.00000000000E+00 -0.00000000000E+00 -0.74505805969E-08  0.93827000000E+00  0.93827000000E+00 0. -1.
     999902    2    1    2    0    0 -0.83648813172E-02  0.15458605521E-01 -0.15645165352E-01  0.10203989371E+01  0.10201275802E+01 0.  0.
     999903    2    3    3    0    0 -0.36910798486E-01 -0.53552544705E-01 -0.11305886101E+00  0.13187947394E+00  0.19483518814E-01 0.  0.
         14    1    1    2    0    0  0.83648813172E-02 -0.15458605521E-01  0.15645165352E-01  0.23531062938E-01  0.00000000000E+00 0. -1.
     999901    1    3    3    0    0  0.28545917169E-01  0.69011150227E-01  0.97413695655E-01  0.88851946312E+00  0.88000000000E+00 0.  1.
        -11    1    4    4    0    0 -0.17200227663E-01 -0.19311027516E-01 -0.63016446800E-01  0.68118259693E-01  0.51100000000E-03 0.  1.
         11    1    4    4    0    0 -0.19710570823E-01 -0.34241517190E-01 -0.50042414208E-01  0.63761214248E-01  0.51100000000E-03 0. -1.
</event>
<event>
 8    1  0.1177602E+005  0.1043930E+01  0.7957747E-01            NaN
         13   -1    0    0    0    0  0.00000000000E+00  0.00000000000E+00  0.74505805969E-08  0.10566000000E+00  0.10566000000E+00 0.  1.
     999900   -1    0    0    0    0 -0.00000000000E+00 -0.00000000000E+00 -0.74505805969E-08  0.93827000000E+00  0.93827000000E+00 0. -1.
     999902    2    1    2    0    0  0.16436152096E-01 -0.10985614483E-01  0.91052081169E-02  0.10221645311E+01  0.10219327732E+01 0.  0.
     999903    2    3    3    0    0 -0.51242396556E-01  0.24588212963E-01 -0.11527993313E+00  0.13013451675E+00  0.20375623812E-01 0.  0.
         14    1    1    2    0    0 -0.16436152096E-01  0.10985614483E-01 -0.91052081169E-02  0.21765468894E-01  0.00000000000E+00 0. -1.
     999901    1    3    3    0    0  0.67678548652E-01 -0.35573827446E-01  0.12438514125E+00  0.89203001436E+00  0.88000000000E+00 0.  1.
        -11    1    4    4    0    0 -0.19763196260E-01 -0.38640832863E-03 -0.45484771661E-01  0.49596963736E-01  0.51100000000E-03 0.  1.
         11    1    4    4    0    0 -0.31479200297E-01  0.24974621291E-01 -0.69795161471E-01  0.80537553015E-01  0.51100000000E-03 0. -1.
</event>
<event>
 8    1  0.1177602E+005  0.1043930E+01  0.7957747E-01            NaN
         13   -1    0    0    0    0  0.00000000000E+00  0.00000000000E+00  0.74505805969E-08  0.10566000000E+00  0.10566000000E+00 0.  1.
     999900   -1    0    0    0    0 -0.00000000000E+00 -0.00000000000E+00 -0.74505805969E-08  0.93827000000E+00  0.93827000000E+00 0. -1.
     999902    2    1    2    0    0  0.21865238458E-01  0.54827511563E-02 -0.70935354077E-02  0.10202980839E+01  0.10200243686E+01 0.  0.
     999903    2    3    3    0    0  0.35957116669E-01  0.25113709181E-02  0.12387533793E+00  0.13048897185E+00  0.19571693991E-01 0.  0.
         14    1    1    2    0    0 -0.21865238458E-01 -0.54827511563E-02  0.70935354077E-02  0.23631916081E-01  0.00000000000E+00 0.  1.
     999901    1    3    3    0    0 -0.14091878210E-01  0.29713802383E-02 -0.13096887334E+00  0.88980911207E+00  0.88000000000E+00 0. -1.
        -11    1    4    4    0    0  0.12526528079E-01  0.36748180323E-02  0.76648962659E-01  0.77754374739E-01  0.51100000000E-03 0.  1.
         11    1    4    4    0    0  0.23430588590E-01 -0.11634471143E-02  0.47226375268E-01  0.52734597115E-01  0.51100000000E-03 0. -1.
</event>
<event>
 8    1  0.1177602E+005  0.1043930E+01  0.7957747E-01            NaN
         13   -1    0    0    0    0  0.00000000000E+00  0.00000000000E+00  0.74505805969E-08  0.10566000000E+00  0.10566000000E+00 0.  1.
     999900   -1    0    0    0    0 -0.00000000000E+00 -0.00000000000E+00 -0.74505805969E-08  0.93827000000E+00  0.93827000000E+00 0.  1.
     999902    2    1    2    0    0 -0.22377632308E-01  0.30026215058E-02 -0.55003863354E-02  0.10206914886E+01  0.10204269138E+01 0.  0.
     999903    2    3    3    0    0 -0.72548587160E-01 -0.10796891005E+00 -0.13163917851E-01  0.13227124159E+00  0.20045188531E-01 0.  0.
         14    1    1    2    0    0  0.22377632308E-01 -0.30026215058E-02  0.55003863354E-02  0.23238511429E-01  0.00000000000E+00 0.  1.
     999901    1    3    3    0    0  0.50170954852E-01  0.11097153155E+00  0.76635315160E-02  0.88842024698E+00  0.88000000000E+00 0. -1.
        -11    1    4    4    0    0 -0.57114016770E-01 -0.83485272768E-01 -0.18513642936E-01  0.10283393300E+00  0.51100000000E-03 0. -1.
         11    1    4    4    0    0 -0.15434570389E-01 -0.24483637280E-01  0.53497250847E-02  0.29437308591E-01  0.51100000000E-03 0.  1.
</event>
<event>
 8    1  0.1177602E+005  0.1043930E+01  0.7957747E-01            NaN
         13   -1    0    0    0    0  0.00000000000E+00  0.00000000000E+00  0.74505805969E-08  0.10566000000E+00  0.10566000000E+00 0.  1.
     999900   -1    0    0    0    0 -0.00000000000E+00 -0.00000000000E+00 -0.74505805969E-08  0.93827000000E+00  0.93827000000E+00 0. -1.
     999902    2    1    2    0    0  0.80925404945E-03  0.23747731677E-01 -0.22838367128E-02  0.10200589807E+01  0.10197796324E+01 0.  0.
     999903    2    3    3    0    0 -0.31060365103E-01 -0.45315098720E-01  0.11541006466E+00  0.12897132981E+00  0.17202221791E-01 0.  0.
         14    1    1    2    0    0 -0.80925404945E-03 -0.23747731677E-01  0.22838367128E-02  0.23871019292E-01  0.00000000000E+00 0.  1.
     999901    1    3    3    0    0  0.31869619152E-01  0.69062830397E-01 -0.11769390137E+00  0.89108765090E+00  0.88000000000E+00 0. -1.
        -11    1    4    4    0    0 -0.13690509505E-01 -0.33585453102E-01  0.79612008873E-01  0.87485689049E-01  0.51100000000E-03 0.  1.
         11    1    4    4    0    0 -0.17369855598E-01 -0.11729645617E-01  0.35798055789E-01  0.41485640758E-01  0.51100000000E-03 0. -1.
</event>
<event>
 8    1  0.1177602E+005  0.1043930E+01  0.7957747E-01            NaN
         13   -1    0    0    0    0  0.00000000000E+00  0.00000000000E+00  0.74505805969E-08  0.10566000000E+00  0.10566000000E+00 0. -1.
     999900   -1    0    0    0    0 -0.00000000000E+00 -0.00000000000E+00 -0.74505805969E-08  0.93827000000E+00  0.93827000000E+00 0.  1.
     999902    2    1    2    0    0 -0.13805207343E-01 -0.18445949364E-01  0.81789831804E-02  0.10194814302E+01  0.10191882329E+01 0.  0.
     999903    2    3    3    0    0  0.37929147669E-01 -0.46896667965E-01  0.11472869263E+00  0.13109034098E+00  0.19598134530E-01 0.  0.
         14    1    1    2    0    0  0.13805207343E-01  0.18445949364E-01 -0.81789831804E-02  0.24448569766E-01  0.00000000000E+00 0.  1.
     999901    1    3    3    0    0 -0.51734355012E-01  0.28450718601E-01 -0.10654970945E+00  0.88839108925E+00  0.88000000000E+00 0.  1.
        -11    1    4    4    0    0  0.98551776475E-02 -0.26818931075E-01  0.45430775696E-01  0.53671184930E-01  0.51100000000E-03 0. -1.
         11    1    4    4    0    0  0.28073970021E-01 -0.20077736890E-01  0.69297916934E-01  0.77419156052E-01  0.51100000000E-03 0.  1.
</event>
<event>
 8    1  0.1177602E+005  0.1043930E+01  0.7957747E-01            NaN
         13   -1    0    0    0    0  0.00000000000E+00  0.00000000000E+00  0.74505805969E-08  0.10566000000E+00  0.10566000000E+00 0.  1.
     999900   -1    0    0    0    0 -0.00000000000E+00 -0.00000000000E+00 -0.74505805969E-08  0.93827000000E+00  0.93827000000E+00 0.  1.
     999902    2    1    2    0    0 -0.12961750175E-01  0.96891262649E-02  0.19243570467E-01  0.10187863897E+01  0.10184760707E+01 0.  0.
     999903    2    3    3    0    0 -0.63821666257E-01 -0.44915884996E-01 -0.99141374184E-01  0.12772890925E+00  0.19875119481E-01 0.  0.
         14    1    1    2    0    0  0.12961750175E-01 -0.96891262649E-02 -0.19243570467E-01  0.25143610315E-01  0.00000000000E+00 0. -1.
     999901    1    3    3    0    0  0.50859916082E-01  0.54605011261E-01  0.11838494465E+00  0.89105748043E+00  0.88000000000E+00 0. -1.
        -11    1    4    4    0    0 -0.12809511741E-01 -0.19942139198E-01 -0.27706011016E-01  0.36464457685E-01  0.51100000000E-03 0. -1.
         11    1    4    4    0    0 -0.51012154516E-01 -0.24973745797E-01 -0.71435363168E-01  0.91264451565E-01  0.51100000000E-03 0.  1.
</event>
<event>
 8    1  0.1177602E+005  0.1043930E+01  0.7957747E-01            NaN
         13   -1    0    0    0    0  0.00000000000E+00  0.00000000000E+00  0.74505805969E-08  0.10566000000E+00  0.10566000000E+00 0. -1.
     999900   -1    0    0    0    0 -0.00000000000E+00 -0.00000000000E+00 -0.74505805969E-08  0.93827000000E+00  0.93827000000E+00 0.  1.
     999902    2    1    2    0    0 -0.18743231300E-01  0.56797624698E-02 -0.12672520739E-01  0.10206027369E+01  0.10203361139E+01 0.  0.
     999903    2    3    3    0    0 -0.11183370864E+00 -0.68167232179E-01  0.39946202407E-03  0.13252048153E+00  0.20198230688E-01 0.  0.
         14    1    1    2    0    0  0.18743231300E-01 -0.56797624698E-02  0.12672520739E-01  0.23327263088E-01  0.00000000000E+00 0. -1.
     999901    1    3    3    0    0  0.93090477345E-01  0.73846994649E-01 -0.13071982763E-01  0.88808225538E+00  0.88000000000E+00 0.  1.
        -11    1    4    4    0    0 -0.64313468982E-01 -0.27573680868E-01 -0.14670082076E-02  0.69992452473E-01  0.51100000000E-03 0. -1.
         11    1    4    4    0    0 -0.47520239663E-01 -0.40593551312E-01  0.18664702316E-02  0.62528029057E-01  0.51100000000E-03 0.  1.
</event>
<event>
 8    1  0.1177602E+005  0.1043930E+01  0.7957747E-01            NaN
         13   -1    0    0    0    0  0.00000000000E+00  0.00000000000E+00  0.74505805969E-08  0.10566000000E+00  0.10566000000E+00 0.  1.
     999900   -1    0    0    0    0 -0.00000000000E+00 -0.00000000000E+00 -0.74505805969E-08  0.93827000000E+00  0.93827000000E+00 0. -1.
     999902    2    1    2    0    0  0.34054425520E-02 -0.20774320025E-01 -0.10793599295E-01  0.10202726291E+01  0.10199983169E+01 0.  0.
     999903    2    3    3    0    0 -0.15120002102E-01 -0.94662157349E-01 -0.90649763599E-01  0.13337939339E+00  0.19574075763E-01 0.  0.
         14    1    1    2    0    0 -0.34054425520E-02  0.20774320025E-01  0.10793599295E-01  0.23657370885E-01  0.00000000000E+00 0. -1.
     999901    1    3    3    0    0  0.18525444654E-01  0.73887837325E-01  0.79856164303E-01  0.88689323573E+00  0.88000000000E+00 0.  1.
        -11    1    4    4    0    0 -0.17796088261E-01 -0.51127857187E-01 -0.47484477213E-01  0.72012465832E-01  0.51100000000E-03 0. -1.
         11    1    4    4    0    0  0.26760861593E-02 -0.43534300162E-01 -0.43165286385E-01  0.61366927554E-01  0.51100000000E-03 0.  1.
</event>
<event>
 8    1  0.1177602E+005  0.1043930E+01  0.7957747E-01            NaN
         13   -1    0    0    0    0  0.00000000000E+00  0.00000000000E+00  0.74505805969E-08  0.10566000000E+00  0.10566000000E+00 0.  1.
     999900   -1    0    0    0    0 -0.00000000000E+00 -0.00000000000E+00 -0.74505805969E-08  0.93827000000E+00  0.93827000000E+00 0.  1.
     999902    2    1    2    0    0 -0.69565946664E-02 -0.14064641187E-01  0.17271838748E-01  0.10205949458E+01  0.10203281426E+01 0.  0.
     999903    2    3    3    0    0 -0.11815286306E+00  0.15531556139E-01  0.53858072288E-01  0.13234999226E+00  0.20359278328E-01 0.  0.
         14    1    1    2    0    0  0.69565946664E-02  0.14064641187E-01 -0.17271838748E-01  0.23335054207E-01  0.00000000000E+00 0. -1.
     999901    1    3    3    0    0  0.11119626839E+00 -0.29596197326E-01 -0.36586233540E-01  0.88824495354E+00  0.88000000000E+00 0.  1.
        -11    1    4    4    0    0 -0.52681026373E-01  0.17070337911E-01  0.23363296745E-01  0.60106503241E-01  0.51100000000E-03 0. -1.
         11    1    4    4    0    0 -0.65471836687E-01 -0.15387817714E-02  0.30494775543E-01  0.72243489014E-01  0.51100000000E-03 0.  1.
</event>
<event>
 8    1  0.1177602E+005  0.1043930E+01  0.7957747E-01            NaN
         13   -1    0    0    0    0  0.00000000000E+00  0.00000000000E+00  0.74505805969E-08  0.10566000000E+00  0.10566000000E+00 0.  1.
     999900   -1    0    0    0    0 -0.00000000000E+00 -0.00000000000E+00 -0.74505805969E-08  0.93827000000E+00  0.93827000000E+00 0.  1.
     999902    2    1    2    0    0  0.15384988295E-01 -0.10539799418E-01 -0.15137846095E-01  0.10199104325E+01  0.10196275549E+01 0.  0.
     999903    2    3    3    0    0  0.12953730520E+00 -0.16193775347E-01 -0.63173129659E-02  0.13247563454E+00  0.21627147367E-01 0.  0.
         14    1    1    2    0    0 -0.15384988295E-01  0.10539799418E-01  0.15137846095E-01  0.24019567461E-01  0.00000000000E+00 0.  1.
     999901    1    3    3    0    0 -0.11415231691E+00  0.56539759294E-02 -0.88205331291E-02  0.88743479800E+00  0.88000000000E+00 0.  1.
        -11    1    4    4    0    0  0.96519479826E-01 -0.29650717551E-02 -0.77246580128E-02  0.96874832123E-01  0.51100000000E-03 0. -1.
         11    1    4    4    0    0  0.33017825378E-01 -0.13228703592E-01  0.14073450469E-02  0.35600802414E-01  0.51100000000E-03 0.  1.
</event>
<event>
 8    1  0.1177602E+005  0.1043930E+01  0.7957747E-01            NaN
         13   -1    0    0    0    0  0.00000000000E+00  0.00000000000E+00  0.74505805969E-08  0.10566000000E+00  0.10566000000E+00 0.  1.
     999900   -1    0    0    0    0 -0.00000000000E+00 -0.00000000000E+00 -0.74505805969E-08  0.93827000000E+00  0.93827000000E+00 0. -1.
     999902    2    1    2    0    0 -0.25177784452E-03  0.10117299656E-01 -0.21809707987E-01  0.10198865704E+01  0.10196031238E+01 0.  0.
     999903    2    3    3    0    0 -0.34452760201E-01  0.55501247744E-01 -0.11377825082E+00  0.13327074446E+00  0.23414093675E-01 0.  0.
         14    1    1    2    0    0  0.25177784452E-03 -0.10117299656E-01  0.21809707987E-01  0.24043429599E-01  0.00000000000E+00 0.  1.
     999901    1    3    3    0    0  0.34200982356E-01 -0.45383948088E-01  0.91968542833E-01  0.88661582594E+00  0.88000000000E+00 0.  1.
        -11    1    4    4    0    0 -0.13489053558E-01  0.29953670402E-01 -0.35875689518E-01  0.48646717832E-01  0.51100000000E-03 0.  1.
         11    1    4    4    0    0 -0.20963706643E-01  0.25547577341E-01 -0.77902561303E-01  0.84624026628E-01  0.51100000000E-03 0. -1.
</event>
<event>
 8    1  0.1177602E+005  0.1043930E+01  0.7957747E-01            NaN
         13   -1    0    0    0    0  0.00000000000E+00  0.00000000000E+00  0.74505805969E-08  0.10566000000E+00  0.10566000000E+00 0. -1.
     999900   -1    0    0    0    0 -0.00000000000E+00 -0.00000000000E+00 -0.74505805969E-08  0.93827000000E+00  0.93827000000E+00 0. -1.
     999902    2    1    2    0    0 -0.28546124211E-01  0.36165101044E-02 -0.85980832698E-02  0.10138985600E+01  0.10134537003E+01 0.  0.
     999903    2    3    3    0    0  0.92782158341E-01 -0.32739879157E-01 -0.70650877873E-01  0.12266745164E+00  0.19373398086E-01 0.  0.
         14    1    1    2    0    0  0.28546124211E-01 -0.36165101044E-02  0.85980832698E-02  0.30031440004E-01  0.00000000000E+00 0. -1.
     999901    1    3    3    0    0 -0.12132828255E+00  0.36356389261E-01  0.62052794603E-01  0.89123110836E+00  0.88000000000E+00 0.  1.
        -11    1    4    4    0    0  0.13587715457E-01 -0.72942341631E-02 -0.20058448479E-01  0.25306804219E-01  0.51100000000E-03 0.  1.
         11    1    4    4    0    0  0.79194442884E-01 -0.25445644994E-01 -0.50592429394E-01  0.97360647419E-01  0.51100000000E-03 0. -1.
</event>
<event>
 8    1  0.1177602E+005  0.1043930E+01  0.7957747E-01            NaN
         13   -1    0    0    0    0  0.00000000000E+00  0.00000000000E+00  0.74505805969E-08  0.10566000000E+00  0.10566000000E+00 0.  1.
     999900   -1    0    0    0    0 -0.00000000000E+00 -0.00000000000E+00 -0.74505805969E-08  0.93827000000E+00  0.93827000000E+00 0. -1.
     999902    2    1    2    0    0  0.48817486520E-02 -0.84599258083E-02  0.23008126320E-01  0.10189344866E+01  0.10186278576E+01 0.  0.
     999903    2    3    3    0    0  0.49035540896E-01 -0.10530123894E+00  0.58707163359E-01  0.13180303152E+00  0.20800790769E-01 0.  0.
         14    1    1    2    0    0 -0.48817486520E-02  0.84599258083E-02 -0.23008126320E-01  0.24995513424E-01  0.00000000000E+00 0. -1.
     999901    1    3    3    0    0 -0.44153792244E-01  0.96841313128E-01 -0.35699037039E-01  0.88713145505E+00  0.88000000000E+00 0. -1.
        -11    1    4    4    0    0  0.36365944639E-01 -0.55400480347E-01  0.37260223064E-01  0.76028155942E-01  0.51100000000E-03 0.  1.
         11    1    4    4    0    0  0.12669596257E-01 -0.49900758590E-01  0.21446940295E-01  0.55774875582E-01  0.51100000000E-03 0. -1.
</event>
<event>
 8    1  0.1177602E+005  0.1043930E+01  0.7957747E-01            NaN
         13   -1    0    0    0    0  0.00000000000E+00  0.00000000000E+00  0.74505805969E-08  0.10566000000E+00  0.10566000000E+00 0. -1.
     999900   -1    0    0    0    0 -0.00000000000E+00 -0.00000000000E+00 -0.74505805969E-08  0.93827000000E+00  0.93827000000E+00 0. -1.
     999902    2    1    2    0    0 -0.21536622459E-01  0.18197076211E-02 -0.95671891413E-02  0.10202938296E+01  0.10200200146E+01 0.  0.
     999903    2    3    3    0    0 -0.69900080842E-01 -0.11011406411E+00 -0.66335290429E-02  0.13188131297E+00  0.18372495364E-01 0.  0.
         14    1    1    2    0    0  0.21536622459E-01 -0.18197076211E-02  0.95671891413E-02  0.23636170393E-01  0.00000000000E+00 0. -1.
     999901    1    3    3    0    0  0.48363458383E-01  0.11193377173E+00 -0.29336600983E-02  0.88841251664E+00  0.88000000000E+00 0.  1.
        -11    1    4    4    0    0 -0.29816150289E-01 -0.63797794990E-01 -0.50891244478E-02  0.70606811090E-01  0.51100000000E-03 0. -1.
         11    1    4    4    0    0 -0.40083930553E-01 -0.46316269120E-01 -0.15444045951E-02  0.61274501877E-01  0.51100000000E-03 0.  1.
</event>
<event>
 8    1  0.1177602E+005  0.1043930E+01  0.7957747E-01            NaN
         13   -1    0    0    0    0  0.00000000000E+00  0.00000000000E+00  0.74505805969E-08  0.10566000000E+00  0.10566000000E+00 0. -1.
     999900   -1    0    0    0    0 -0.00000000000E+00 -0.00000000000E+00 -0.74505805969E-08  0.93827000000E+00  0.93827000000E+00 0. -1.
     999902    2    1    2    0    0 -0.18927711119E-02  0.13909642903E-01  0.18756387710E-01  0.10205021783E+01  0.10202332249E+01 0.  0.
     999903    2    3    3    0    0  0.88452441238E-01 -0.32130332178E-02  0.96213618962E-01  0.13232704577E+00  0.20475073249E-01 0.  0.
         14    1    1    2    0    0  0.18927711119E-02 -0.13909642903E-01 -0.18756387710E-01  0.23427821667E-01  0.00000000000E+00 0.  1.
     999901    1    3    3    0    0 -0.90345212350E-01  0.17122676121E-01 -0.77457231253E-01  0.88817513256E+00  0.88000000000E+00 0. -1.
        -11    1    4    4    0    0  0.79443461200E-01  0.36014240964E-02  0.83459585339E-01  0.11528225054E+00  0.51100000000E-03 0.  1.
         11    1    4    4    0    0  0.90089800381E-02 -0.68144573142E-02  0.12754033623E-01  0.17044795231E-01  0.51100000000E-03 0. -1.
</event>
<event>
 8    1  0.1177602E+005  0.1043930E+01  0.7957747E-01            NaN
         13   -1    0    0    0    0  0.00000000000E+00  0.00000000000E+00  0.74505805969E-08  0.10566000000E+00  0.10566000000E+00 0.  1.
     999900   -1    0    0    0    0 -0.00000000000E+00 -0.00000000000E+00 -0.74505805969E-08  0.93827000000E+00  0.93827000000E+00 0. -1.
     999902    2    1    2    0    0  0.42440534994E-02 -0.53810170791E-02  0.22172363011E-01  0.10207226517E+01  0.10204587942E+01 0.  0.
     999903    2    3    3    0    0 -0.68991065842E-01  0.62941379526E-01 -0.85969670092E-01  0.12846370276E+00  0.19767506913E-01 0.  0.
         14    1    1    2    0    0 -0.42440534994E-02  0.53810170791E-02 -0.22172363011E-01  0.23207348328E-01  0.00000000000E+00 0. -1.
     999901    1    3    3    0    0  0.73235119341E-01 -0.68322396605E-01  0.10814203310E+00  0.89225894891E+00  0.88000000000E+00 0.  1.
        -11    1    4    4    0    0 -0.39594971432E-01  0.44195142905E-01 -0.63870836789E-01  0.87182092956E-01  0.51100000000E-03 0. -1.
         11    1    4    4    0    0 -0.29396094410E-01  0.18746236621E-01 -0.22098833303E-01  0.41281609808E-01  0.51100000000E-03 0.  1.
</event>
<event>
 8    1  0.1177602E+005  0.1043930E+01  0.7957747E-01            NaN
         13   -1    0    0    0    0  0.00000000000E+00  0.00000000000E+00  0.74505805969E-08  0.10566000000E+00  0.10566000000E+00 0.  1.
     999900   -1    0    0    0    0 -0.00000000000E+00 -0.00000000000E+00 -0.74505805969E-08  0.93827000000E+00  0.93827000000E+00 0. -1.
     999902    2    1    2    0    0  0.44345576593E-02  0.14069082025E-01 -0.17192454597E-01  0.10212764161E+01  0.10210251383E+01 0.  0.
     999903    2    3    3    0    0  0.44850862276E-01  0.85573662474E-01  0.86740234795E-01  0.13136159618E+00  0.19938632409E-01 0.  0.
         14    1    1    2    0    0 -0.44345576593E-02 -0.14069082025E-01  0.17192454597E-01  0.22653583949E-01  0.00000000000E+00 0.  1.
     999901    1    3    3    0    0 -0.40416304617E-01 -0.71504580449E-01 -0.10393268939E+00  0.88991481987E+00  0.88000000000E+00 0. -1.
        -11    1    4    4    0    0  0.17455969117E-01  0.51892469899E-01  0.54758715022E-01  0.77435891432E-01  0.51100000000E-03 0.  1.
         11    1    4    4    0    0  0.27394893159E-01  0.33681192575E-01  0.31981519773E-01  0.53925704747E-01  0.51100000000E-03 0. -1.
</event>
<event>
 8    1  0.1177602E+005  0.1043930E+01  0.7957747E-01            NaN
         13   -1    0    0    0    0  0.00000000000E+00  0.00000000000E+00  0.74505805969E-08  0.10566000000E+00  0.10566000000E+00 0.  1.
     999900   -1    0    0    0    0 -0.00000000000E+00 -0.00000000000E+00 -0.74505805969E-08  0.93827000000E+00  0.93827000000E+00 0.  1.
     999902    2    1    2    0    0 -0.19559436210E-01  0.69162333345E-02 -0.83546454871E-02  0.10215647160E+01  0.10213198632E+01 0.  0.
     999903    2    3    3    0    0  0.35072766413E-02  0.94493260160E-01 -0.91177574415E-01  0.13304828595E+00  0.21147555706E-01 0.  0.
         14    1    1    2    0    0  0.19559436210E-01 -0.69162333345E-02  0.83546454871E-02  0.22365284027E-01  0.00000000000E+00 0.  1.
     999901    1    3    3    0    0 -0.23066712851E-01 -0.87577026825E-01  0.82822928928E-01  0.88851643003E+00  0.88000000000E+00 0. -1.
        -11    1    4    4    0    0 -0.44269351616E-02  0.79584214623E-01 -0.78962165579E-01  0.11219861713E+00  0.51100000000E-03 0.  1.
         11    1    4    4    0    0  0.79342118029E-02  0.14909045537E-01 -0.12215408836E-01  0.20849668817E-01  0.51100000000E-03 0. -1.
</event>
<event>
 8    1  0.1177602E+005  0.1043930E+01  0.7957747E-01            NaN
         13   -1    0    0    0    0  0.00000000000E+00  0.00000000000E+00  0.74505805969E-08  0.10566000000E+00  0.10566000000E+00 0. -1.
     999900   -1    0    0    0    0 -0.00000000000E+00 -0.00000000000E+00 -0.74505805969E-08  0.93827000000E+00  0.93827000000E+00 0.  1.
     999902    2    1    2    0    0  0.83437125052E-03  0.11058783225E-01  0.21295852378E-01  0.10199194567E+01  0.10196367941E+01 0.  0.
     999903    2    3    3    0    0  0.10680251892E+00  0.32231759942E-01  0.67734866167E-01  0.13209395285E+00  0.20374883751E-01 0.  0.
         14    1    1    2    0    0 -0.83437125052E-03 -0.11058783225E-01 -0.21295852378E-01  0.24010543316E-01  0.00000000000E+00 0.  1.
     999901    1    3    3    0    0 -0.10596814767E+00 -0.21172976716E-01 -0.46439013789E-01  0.88782550384E+00  0.88000000000E+00 0.  1.
        -11    1    4    4    0    0  0.21669855164E-01  0.10594311500E-01  0.64069597677E-02  0.24962618321E-01  0.51100000000E-03 0.  1.
         11    1    4    4    0    0  0.85132663753E-01  0.21637448442E-01  0.61327906399E-01  0.10713133453E+00  0.51100000000E-03 0. -1.
</event>
<event>
 8    1  0.1177602E+005  0.1043930E+01  0.7957747E-01            NaN
         13   -1    0    0    0    0  0.00000000000E+00  0.00000000000E+00  0.74505805969E-08  0.10566000000E+00  0.10566000000E+00 0. -1.
     999900   -1    0    0    0    0 -0.00000000000E+00 -0.00000000000E+00 -0.74505805969E-08  0.93827000000E+00  0.93827000000E+00 0. -1.
     999902    2    1    2    0    0  0.19849182339E-01 -0.65895073997E-02 -0.96449262392E-02  0.10208987983E+01  0.10206389764E+01 0.  0.
     999903    2    3    3    0    0  0.69152655305E-01  0.45515597654E-02 -0.11233660608E+00  0.13348652836E+00  0.19908132899E-01 0.  0.
         14    1    1    2    0    0 -0.19849182339E-01  0.65895073997E-02  0.96449262392E-02  0.23031201651E-01  0.00000000000E+00 0.  1.
     999901    1    3    3    0    0 -0.49303472966E-01 -0.11141067165E-01  0.10269167984E+00  0.88741226999E+00  0.88000000000E+00 0.  1.
        -11    1    4    4    0    0  0.28904084237E-01  0.40874107176E-02 -0.30140600492E-01  0.41962720729E-01  0.51100000000E-03 0.  1.
         11    1    4    4    0    0  0.40248571068E-01  0.46414904787E-03 -0.82196005587E-01  0.91523807629E-01  0.51100000000E-03 0. -1.
</event>
<event>
 8    1  0.1177602E+005  0.1043930E+01  0.7957747E-01            NaN
         13   -1    0    0    0    0  0.00000000000E+00  0.00000000000E+00  0.74505805969E-08  0.10566000000E+00  0.10566000000E+00 0. -1.
     999900   -1    0    0    0    0 -0.00000000000E+00 -0.00000000000E+00 -0.74505805969E-08  0.93827000000E+00  0.93827000000E+00 0. -1.
     999902    2    1    2    0    0  0.46267857623E-02 -0.16189128192E-02 -0.23088311362E-01  0.10203270733E+01  0.10200540370E+01 0.  0.
     999903    2    3    3    0    0  0.74075840080E-01  0.97383372770E-01  0.38579126520E-01  0.12991846119E+00  0.20486731802E-01 0.  0.
         14    1    1    2    0    0 -0.46267857623E-02  0.16189128192E-02  0.23088311362E-01  0.23602926656E-01  0.00000000000E+00 0. -1.
     999901    1    3    3    0    0 -0.69449054318E-01 -0.99002285589E-01 -0.61667437882E-01  0.89040861215E+00  0.88000000000E+00 0. -1.
        -11    1    4    4    0    0  0.39331249538E-01  0.61438936444E-01  0.31355551860E-01  0.79404797431E-01  0.51100000000E-03 0. -1.
         11    1    4    4    0    0  0.34744590543E-01  0.35944436327E-01  0.72235746600E-02  0.50513663762E-01  0.51100000000E-03 0.  1.
</event>
<event>
 8    1  0.1177602E+005  0.1043930E+01  0.7957747E-01            NaN
         13   -1    0    0    0    0  0.00000000000E+00  0.00000000000E+00  0.74505805969E-08  0.10566000000E+00  0.10566000000E+00 0.  1.
     999900   -1    0    0    0    0 -0.00000000000E+00 -0.00000000000E+00 -0.74505805969E-08  0.93827000000E+00  0.93827000000E+00 0.  1.
     999902    2    1    2    0    0  0.21126806514E-01 -0.80983534074E-02 -0.76053102659E-02  0.10200602278E+01  0.10197809090E+01 0.  0.
     999903    2    3    3    0    0  0.73865185659E-01  0.53492298231E-01 -0.93490412181E-01  0.13216890801E+00  0.20265030265E-01 0.  0.
         14    1    1    2    0    0 -0.21126806514E-01  0.80983534074E-02  0.76053102659E-02  0.23869772216E-01  0.00000000000E+00 0. -1.
     999901    1    3    3    0    0 -0.52738379145E-01 -0.61590651638E-01  0.85885101915E-01  0.88789131978E+00  0.88000000000E+00 0. -1.
        -11    1    4    4    0    0  0.30545661968E-02 -0.17220790951E-02 -0.25359210526E-02  0.43575162243E-02  0.51100000000E-03 0. -1.
         11    1    4    4    0    0  0.70810619462E-01  0.55214377326E-01 -0.90954491129E-01  0.12781139178E+00  0.51100000000E-03 0.  1.
</event>
<event>
 8    1  0.1177602E+005  0.1043930E+01  0.7957747E-01            NaN
         13   -1    0    0    0    0  0.00000000000E+00  0.00000000000E+00  0.74505805969E-08  0.10566000000E+00  0.10566000000E+00 0. -1.
     999900   -1    0    0    0    0 -0.00000000000E+00 -0.00000000000E+00 -0.74505805969E-08  0.93827000000E+00  0.93827000000E+00 0.  1.
     999902    2    1    2    0    0 -0.11758844433E-01 -0.12243504134E-01  0.13991309666E-01  0.10219315782E+01  0.10216947783E+01 0.  0.
     999903    2    3    3    0    0  0.94901555283E-01 -0.83937885979E-01  0.31499794649E-01  0.13242437063E+00  0.22183394158E-01 0.  0.
         14    1    1    2    0    0  0.11758844433E-01  0.12243504134E-01 -0.13991309666E-01  0.21998421808E-01  0.00000000000E+00 0.  1.
     999901    1    3    3    0    0 -0.10666039972E+00  0.71694381845E-01 -0.17508484982E-01  0.88950720756E+00  0.88000000000E+00 0. -1.
        -11    1    4    4    0    0  0.40519495247E-01 -0.23351138025E-01  0.62583750348E-02  0.47186158153E-01  0.51100000000E-03 0. -1.
         11    1    4    4    0    0  0.54382060036E-01 -0.60586747954E-01  0.25241419614E-01  0.85238212479E-01  0.51100000000E-03 0.  1.
</event>
<event>
 8    1  0.1177602E+005  0.1043930E+01  0.7957747E-01            NaN
         13   -1    0    0    0    0  0.00000000000E+00  0.00000000000E+00  0.74505805969E-08  0.10566000000E+00  0.10566000000E+00 0. -1.
     999900   -1    0    0    0    0 -0.00000000000E+00 -0.00000000000E+00 -0.74505805969E-08  0.93827000000E+00  0.93827000000E+00 0. -1.
     999902    2    1    2    0    0  0.19494835156E-01  0.11761015814E-01 -0.11113362260E-01  0.10185947102E+01  0.10182795818E+01 0.  0.
     999903    2    3    3    0    0  0.80367122474E-01 -0.98297066931E-01 -0.15610391503E-01  0.12964114545E+00  0.21022714565E-01 0.  0.
         14    1    1    2    0    0 -0.19494835156E-01 -0.11761015814E-01  0.11113362260E-01  0.25335289844E-01  0.00000000000E+00 0.  1.
     999901    1    3    3    0    0 -0.60872287317E-01  0.11005808274E+00  0.44970292434E-02  0.88895356471E+00  0.88000000000E+00 0.  1.
        -11    1    4    4    0    0  0.23789710812E-01 -0.21850633861E-01  0.39415542049E-02  0.32545314735E-01  0.51100000000E-03 0.  1.
         11    1    4    4    0    0  0.56577411661E-01 -0.76446433069E-01 -0.19551945708E-01  0.97095830710E-01  0.51100000000E-03 0. -1.
</event>
<event>
 8    1  0.1177602E+005  0.1043930E+01  0.7957747E-01            NaN
         13   -1    0    0    0    0  0.00000000000E+00  0.00000000000E+00  0.74505805969E-08  0.10566000000E+00  0.10566000000E+00 0. -1.
     999900   -1    0    0    0    0 -0.00000000000E+00 -0.00000000000E+00 -0.74505805969E-08  0.93827000000E+00  0.93827000000E+00 0. -1.
     999902    2    1    2    0    0  0.19129702346E-01 -0.36242485682E-02  0.14339710515E-01  0.10197492641E+01  0.10194625318E+01 0.  0.
     999903    2    3    3    0    0 -0.92910168484E-01  0.28035360141E-01  0.82041713461E-01  0.12950276755E+00  0.24936784643E-01 0.  0.
         14    1    1    2    0    0 -0.19129702346E-01  0.36242485682E-02 -0.14339710515E-01  0.24180735869E-01  0.00000000000E+00 0.  1.
     999901    1    3    3    0    0  0.11203987083E+00 -0.31659608709E-01 -0.67702002946E-01  0.89024649659E+00  0.88000000000E+00 0.  1.
        -11    1    4    4    0    0 -0.44181316556E-01  0.16045039210E-01  0.55497857396E-01  0.72730360321E-01  0.51100000000E-03 0.  1.
         11    1    4    4    0    0 -0.48728851928E-01  0.11990320931E-01  0.26543856065E-01  0.56772407225E-01  0.51100000000E-03 0. -1.
</event>
<event>
 8    1  0.1177602E+005  0.1043930E+01  0.7957747E-01            NaN
         13   -1    0    0    0    0  0.00000000000E+00  0.00000000000E+00  0.74505805969E-08  0.10566000000E+00  0.10566000000E+00 0.  1.
     999900   -1    0    0    0    0 -0.00000000000E+00 -0.00000000000E+00 -0.74505805969E-08  0.93827000000E+00  0.93827000000E+00 0. -1.
     999902    2    1    2    0    0 -0.20179051362E-03 -0.24263135220E-01 -0.21588502949E-02  0.10195701748E+01  0.10192791277E+01 0.  0.
     999903    2    3    3    0    0  0.85896214306E-01 -0.33283187686E-01  0.90368766454E-01  0.13049448192E+00  0.19400145507E-01 0.  0.
         14    1    1    2    0    0  0.20179051362E-03  0.24263135220E-01  0.21588502949E-02  0.24359825219E-01  0.00000000000E+00 0. -1.
     999901    1    3    3    0    0 -0.86098004820E-01  0.90200524660E-02 -0.92527616749E-01  0.88907569286E+00  0.88000000000E+00 0.  1.
        -11    1    4    4    0    0  0.22919596953E-01 -0.34255251960E-02  0.32413670172E-01  0.39849081324E-01  0.51100000000E-03 0.  1.
         11    1    4    4    0    0  0.62976617353E-01 -0.29857662490E-01  0.57955096282E-01  0.90645400593E-01  0.51100000000E-03 0. -1.
</event>
<event>
 8    1  0.1177602E+005  0.1043930E+01  0.7957747E-01            NaN
         13   -1    0    0    0    0  0.00000000000E+00  0.00000000000E+00  0.74505805969E-08  0.10566000000E+00  0.10566000000E+00 0.  1.
     999900   -1    0    0    0    0 -0.00000000000E+00 -0.00000000000E+00 -0.74505805969E-08  0.93827000000E+00  0.93827000000E+00 0.  1.
     999902    2    1    2    0    0  0.16816834001E-01 -0.15305458008E-01 -0.67415461919E-02  0.10202126773E+01  0.10199369567E+01 0.  0.
     999903    2    3    3    0    0  0.12005918044E+00  0.22526246801E-01  0.45376856634E-01  0.13183969939E+00  0.20025199438E-01 0.  0.
         14    1    1    2    0    0 -0.16816834001E-01  0.15305458008E-01  0.67415461919E-02  0.23717322693E-01  0.00000000000E+00 0.  1.
     999901    1    3    3    0    0 -0.10324234644E+00 -0.37831704809E-01 -0.52118402826E-01  0.88837297792E+00  0.88000000000E+00 0.  1.
        -11    1    4    4    0    0  0.92717520770E-01  0.20430763703E-01  0.26592316280E-01  0.98596993714E-01  0.51100000000E-03 0.  1.
         11    1    4    4    0    0  0.27341659673E-01  0.20954830981E-02  0.18784540354E-01  0.33242705672E-01  0.51100000000E-03 0. -1.
</event>
<event>
 8    1  0.1177602E+005  0.1043930E+01  0.7957747E-01            NaN
         13   -1    0    0    0    0  0.00000000000E+00  0.00000000000E+00  0.74505805969E-08  0.10566000000E+00  0.10566000000E+00 0. -1.
     999900   -1    0    0    0    0 -0.00000000000E+00 -0.00000000000E+00 -0.74505805969E-08  0.93827000000E+00  0.93827000000E+00 0. -1.
     999902    2    1    2    0    0 -0.21001599232E-01 -0.12025615761E-01  0.20107772741E-02  0.10196457288E+01  0.10193565060E+01 0.  0.
     999903    2    3    3    0    0  0.22172180995E-01 -0.94014092017E-01  0.85922699659E-01  0.13081093181E+00  0.19963327796E-01 0.  0.
         14    1    1    2    0    0  0.21001599232E-01  0.12025615761E-01 -0.20107772741E-02  0.24284271247E-01  0.00000000000E+00 0.  1.
     999901    1    3    3    0    0 -0.43173780227E-01  0.81988476256E-01 -0.83911922385E-01  0.88883479694E+00  0.88000000000E+00 0. -1.
        -11    1    4    4    0    0  0.23565552570E-01 -0.58281929883E-01  0.55311612845E-01  0.83736218301E-01  0.51100000000E-03 0. -1.
         11    1    4    4    0    0 -0.13933715752E-02 -0.35732162134E-01  0.30611086813E-01  0.47074713509E-01  0.51100000000E-03 0.  1.
</event>
<event>
 8    1  0.1177602E+005  0.1043930E+01  0.7957747E-01            NaN
         13   -1    0    0    0    0  0.00000000000E+00  0.00000000000E+00  0.74505805969E-08  0.10566000000E+00  0.10566000000E+00 0.  1.
     999900   -1    0    0    0    0 -0.00000000000E+00 -0.00000000000E+00 -0.74505805969E-08  0.93827000000E+00  0.93827000000E+00 0. -1.
     999902    2    1    2    0    0 -0.59728841358E-02 -0.14547772879E-01 -0.17607197943E-01  0.10203222373E+01  0.10200490878E+01 0.  0.
     999903    2    3    3    0    0 -0.11026779501E+00  0.54281738309E-01  0.36611802958E-01  0.12984223746E+00  0.20324585641E-01 0.  0.
         14    1    1    2    0    0  0.59728841358E-02  0.14547772879E-01  0.17607197943E-01  0.23607762707E-01  0.00000000000E+00 0.  1.
     999901    1    3    3    0    0  0.10429491088E+00 -0.68829511188E-01 -0.54219000901E-01  0.89047999983E+00  0.88000000000E+00 0. -1.
        -11    1    4    4    0    0 -0.31213977102E-01  0.71958826968E-02  0.43285432817E-02  0.32327859537E-01  0.51100000000E-03 0.  1.
         11    1    4    4    0    0 -0.79053817912E-01  0.47085855612E-01  0.32283259677E-01  0.97514377922E-01  0.51100000000E-03 0. -1.
</event>
<event>
 8    1  0.1177602E+005  0.1043930E+01  0.7957747E-01            NaN
         13   -1    0    0    0    0  0.00000000000E+00  0.00000000000E+00  0.74505805969E-08  0.10566000000E+00  0.10566000000E+00 0.  1.
     999900   -1    0    0    0    0 -0.00000000000E+00 -0.00000000000E+00 -0.74505805969E-08  0.93827000000E+00  0.93827000000E+00 0. -1.
     999902    2    1    2    0    0 -0.20785575159E-01  0.32877433009E-03 -0.10917898191E-01  0.10204491838E+01  0.10201789980E+01 0.  0.
     999903    2    3    3    0    0  0.44969987898E-01 -0.88633057052E-01  0.79904526303E-01  0.12888498855E+00  0.18667842263E-01 0.  0.
         14    1    1    2    0    0  0.20785575159E-01 -0.32877433009E-03  0.10917898191E-01  0.23480816173E-01  0.00000000000E+00 0.  1.
     999901    1    3    3    0    0 -0.65755563057E-01  0.88961831382E-01 -0.90822424494E-01  0.89156419528E+00  0.88000000000E+00 0. -1.
        -11    1    4    4    0    0  0.12495364803E-01 -0.23200137244E-01  0.11319499566E-01  0.28684014732E-01  0.51100000000E-03 0.  1.
         11    1    4    4    0    0  0.32474623095E-01 -0.65432919808E-01  0.68585026737E-01  0.10020097381E+00  0.51100000000E-03 0. -1.
</event>
<event>
 8    1  0.1177602E+005  0.1043930E+01  0.7957747E-01            NaN
         13   -1    0    0    0    0  0.00000000000E+00  0.00000000000E+00  0.74505805969E-08  0.10566000000E+00  0.10566000000E+00 0. -1.
     999900   -1    0    0    0    0 -0.00000000000E+00 -0.00000000000E+00 -0.74505805969E-08  0.93827000000E+00  0.93827000000E+00 0.  1.
     999902    2    1    2    0    0 -0.39369527240E-03  0.63892719346E-02 -0.22773768817E-01  0.10202736618E+01  0.10199993738E+01 0.  0.
     999903    2    3    3    0    0 -0.55554823827E-01 -0.31104666010E-03 -0.11935306471E+00  0.13324761663E+00  0.20575181214E-01 0.  0.
         14    1    1    2    0    0  0.39369527240E-03 -0.63892719346E-02  0.22773768817E-01  0.23656338219E-01  0.00000000000E+00 0. -1.
     999901    1    3    3    0    0  0.55161128554E-01  0.67003185947E-02  0.96579295896E-01  0.88702604515E+00  0.88000000000E+00 0. -1.
        -11    1    4    4    0    0 -0.18937460180E-01  0.82976093066E-03 -0.21013603535E-01  0.28304567755E-01  0.51100000000E-03 0. -1.
         11    1    4    4    0    0 -0.36617363647E-01 -0.11408075908E-02 -0.98339461178E-01  0.10494304888E+00  0.51100000000E-03 0.  1.
</event>
<event>
 8    1  0.1177602E+005  0.1043930E+01  0.7957747E-01            NaN
         13   -1    0    0    0    0  0.00000000000E+00  0.00000000000E+00  0.74505805969E-08  0.10566000000E+00  0.10566000000E+00 0. -1.
     999900   -1    0    0    0    0 -0.00000000000E+00 -0.00000000000E+00 -0.74505805969E-08  0.93827000000E+00  0.93827000000E+00 0. -1.
     999902    2    1    2    0    0 -0.12073747653E-01  0.19976673652E-01 -0.10438087574E-02  0.10205648035E+01  0.10202973026E+01 0.  0.
     999903    2    3    3    0    0 -0.73781555548E-01  0.54430456665E-01 -0.94173734010E-01  0.13283280579E+00  0.19221591079E-01 0.  0.
         14    1    1    2    0    0  0.12073747653E-01 -0.19976673652E-01  0.10438087574E-02  0.23365196539E-01  0.00000000000E+00 0.  1.
     999901    1    3    3    0    0  0.61707807895E-01 -0.34453783013E-01  0.93129925252E-01  0.88773199768E+00  0.88000000000E+00 0.  1.
        -11    1    4    4    0    0 -0.40515559209E-01  0.17981626639E-01 -0.44432459543E-01  0.62764273409E-01  0.51100000000E-03 0. -1.
         11    1    4    4    0    0 -0.33265996339E-01  0.36448830026E-01 -0.49741274467E-01  0.70068532376E-01  0.51100000000E-03 0.  1.
</event>
<event>
 8    1  0.1177602E+005  0.1043930E+01  0.7957747E-01            NaN
         13   -1    0    0    0    0  0.00000000000E+00  0.00000000000E+00  0.74505805969E-08  0.10566000000E+00  0.10566000000E+00 0.  1.
     999900   -1    0    0    0    0 -0.00000000000E+00 -0.00000000000E+00 -0.74505805969E-08  0.93827000000E+00  0.93827000000E+00 0. -1.
     999902    2    1    2    0    0 -0.74675652505E-02  0.12265430467E-01  0.18494995098E-01  0.10205148306E+01  0.10202461709E+01 0.  0.
     999903    2    3    3    0    0  0.90501564263E-01  0.61664114967E-01 -0.66443811471E-01  0.12964290868E+00  0.19987683197E-01 0.  0.
         14    1    1    2    0    0  0.74675652505E-02 -0.12265430467E-01 -0.18494995098E-01  0.23415169420E-01  0.00000000000E+00 0. -1.
     999901    1    3    3    0    0 -0.97969129513E-01 -0.49398684500E-01  0.84938806569E-01  0.89087192190E+00  0.88000000000E+00 0.  1.
        -11    1    4    4    0    0  0.85062297540E-01  0.60782347166E-01 -0.66850490723E-01  0.12409406682E+00  0.51100000000E-03 0.  1.
         11    1    4    4    0    0  0.54392667229E-02  0.88176780036E-03  0.40667925206E-03  0.55488418567E-02  0.51100000000E-03 0. -1.
</event>
<event>
 8    1  0.1177602E+005  0.1043930E+01  0.7957747E-01            NaN
         13   -1    0    0    0    0  0.00000000000E+00  0.00000000000E+00  0.74505805969E-08  0.10566000000E+00  0.10566000000E+00 0.  1.
     999900   -1    0    0    0    0 -0.00000000000E+00 -0.00000000000E+00 -0.74505805969E-08  0.93827000000E+00  0.93827000000E+00 0. -1.
     999902    2    1    2    0    0  0.58223040681E-02  0.17676567293E-01  0.13375127378E-01  0.10210115732E+01  0.10207543183E+01 0.  0.
     999903    2    3    3    0    0  0.52140261746E-01 -0.11525025677E+00  0.21637705698E-01  0.12978592051E+00  0.19364045893E-01 0.  0.
         14    1    1    2    0    0 -0.58223040681E-02 -0.17676567293E-01 -0.13375127378E-01  0.22918426828E-01  0.00000000000E+00 0. -1.
     999901    1    3    3    0    0 -0.46317957678E-01  0.13292682407E+00 -0.82625783201E-02  0.89122565266E+00  0.88000000000E+00 0.  1.
        -11    1    4    4    0    0  0.38854395348E-01 -0.65683239422E-01  0.83333393890E-02  0.76770161164E-01  0.51100000000E-03 0.  1.
         11    1    4    4    0    0  0.13285866398E-01 -0.49567017353E-01  0.13304366309E-01  0.53015759346E-01  0.51100000000E-03 0. -1.
</event>
<event>
 8    1  0.1177602E+005  0.1043930E+01  0.7957747E-01            NaN
         13   -1    0    0    0    0  0.00000000000E+00  0.00000000000E+00  0.74505805969E-08  0.10566000000E+00  0.10566000000E+00 0.  1.
     999900   -1    0    0    0    0 -0.00000000000E+00 -0.00000000000E+00 -0.74505805969E-08  0.93827000000E+00  0.93827000000E+00 0.  1.
     999902    2    1    2    0    0  0.10765389677E-01  0.82296731326E-02 -0.16519189861E-01  0.10225640278E+01  0.10223407877E+01 0.  0.
     999903    2    3    3    0    0  0.38089987641E-01  0.39835170797E-01  0.11759889843E+00  0.13142251112E+00  0.20116846817E-01 0.  0.
         14    1    1    2    0    0 -0.10765389677E-01 -0.82296731326E-02  0.16519189861E-01  0.21365972208E-01  0.00000000000E+00 0.  1.
     999901    1    3    3    0    0 -0.27324597964E-01 -0.31605497665E-01 -0.13411808829E+00  0.89114151668E+00  0.88000000000E+00 0.  1.
        -11    1    4    4    0    0  0.34425076008E-01  0.27827700695E-01  0.75845173407E-01  0.87819236129E-01  0.51100000000E-03 0. -1.
         11    1    4    4    0    0  0.36649116321E-02  0.12007470103E-01  0.41753725020E-01  0.43603274987E-01  0.51100000000E-03 0.  1.
</event>
<event>
 8    1  0.1177602E+005  0.1043930E+01  0.7957747E-01            NaN
         13   -1    0    0    0    0  0.00000000000E+00  0.00000000000E+00  0.74505805969E-08  0.10566000000E+00  0.10566000000E+00 0. -1.
     999900   -1    0    0    0    0 -0.00000000000E+00 -0.00000000000E+00 -0.74505805969E-08  0.93827000000E+00  0.93827000000E+00 0. -1.
     999902    2    1    2    0    0  0.10955566003E-01  0.22316407655E-01 -0.14686464251E-01  0.10150554661E+01  0.10146446967E+01 0.  0.
     999903    2    3    3    0    0 -0.33940210492E-01 -0.28491599856E-01  0.11324951115E+00  0.12322325194E+00  0.19869798467E-01 0.  0.
         14    1    1    2    0    0 -0.10955566003E-01 -0.22316407655E-01  0.14686464251E-01  0.28874533923E-01  0.00000000000E+00 0. -1.
     999901    1    3    3    0    0  0.44895776496E-01  0.50808007511E-01 -0.12793597540E+00  0.89183221414E+00  0.88000000000E+00 0. -1.
        -11    1    4    4    0    0 -0.30065419196E-01 -0.13533692868E-01  0.81185662947E-01  0.87626840997E-01  0.51100000000E-03 0.  1.
         11    1    4    4    0    0 -0.38747912964E-02 -0.14957906987E-01  0.32063848206E-01  0.35596410940E-01  0.51100000000E-03 0. -1.
</event>
<event>
 8    1  0.1177602E+005  0.1043930E+01  0.7957747E-01            NaN
         13   -1    0    0    0    0  0.00000000000E+00  0.00000000000E+00  0.74505805969E-08  0.10566000000E+00  0.10566000000E+00 0.  1.
     999900   -1    0    0    0    0 -0.00000000000E+00 -0.00000000000E+00 -0.74505805969E-08  0.93827000000E+00  0.93827000000E+00 0.  1.
     999902    2    1    2    0    0 -0.10060067550E-01  0.27748288654E-01  0.32113396728E-02  0.10142401838E+01  0.10138055362E+01 0.  0.
     999903    2    3    3    0    0  0.43160625883E-01 -0.85925706538E-01  0.73280372783E-01  0.12257663248E+00  0.20222539985E-01 0.  0.
         14    1    1    2    0    0  0.10060067550E-01 -0.27748288654E-01 -0.32113396728E-02  0.29689816180E-01  0.00000000000E+00 0. -1.
     999901    1    3    3    0    0 -0.53220693433E-01  0.11367399519E+00 -0.70069033110E-01  0.89166355134E+00  0.88000000000E+00 0.  1.
        -11    1    4    4    0    0  0.30189615790E-01 -0.45383316482E-01  0.31638361027E-01  0.63026227286E-01  0.51100000000E-03 0.  1.
         11    1    4    4    0    0  0.12971010093E-01 -0.40542390056E-01  0.41642011756E-01  0.59550405191E-01  0.51100000000E-03 0. -1.
</event>
<event>
 8    1  0.1177602E+005  0.1043930E+01  0.7957747E-01            NaN
         13   -1    0    0    0    0  0.00000000000E+00  0.00000000000E+00  0.74505805969E-08  0.10566000000E+00  0.10566000000E+00 0.  1.
     999900   -1    0    0    0    0 -0.00000000000E+00 -0.00000000000E+00 -0.74505805969E-08  0.93827000000E+00  0.93827000000E+00 0. -1.
     999902    2    1    2    0    0  0.40971829801E-02 -0.21490822399E-01  0.84344186023E-02  0.10204825743E+01  0.10202131653E+01 0.  0.
     999903    2    3    3    0    0 -0.30449690528E-02 -0.12754152721E+00  0.34889531379E-01  0.13369193646E+00  0.19497217157E-01 0.  0.
         14    1    1    2    0    0 -0.40971829801E-02  0.21490822399E-01 -0.84344186023E-02  0.23447425721E-01  0.00000000000E+00 0. -1.
     999901    1    3    3    0    0  0.71421520328E-02  0.10605070481E+00 -0.26455112776E-01  0.88679063782E+00  0.88000000000E+00 0.  1.
        -11    1    4    4    0    0  0.60327065055E-02 -0.75483108456E-01  0.14814889519E-01  0.77161099542E-01  0.51100000000E-03 0. -1.
         11    1    4    4    0    0 -0.90776755583E-02 -0.52058418750E-01  0.20074641859E-01  0.56530836922E-01  0.51100000000E-03 0.  1.
</event>
<event>
 8    1  0.1177602E+005  0.1043930E+01  0.7957747E-01            NaN
         13   -1    0    0    0    0  0.00000000000E+00  0.00000000000E+00  0.74505805969E-08  0.10566000000E+00  0.10566000000E+00 0. -1.
     999900   -1    0    0    0    0 -0.00000000000E+00 -0.00000000000E+00 -0.74505805969E-08  0.93827000000E+00  0.93827000000E+00 0. -1.
     999902    2    1    2    0    0 -0.20927574820E-01  0.17345539749E-03 -0.92600200490E-02  0.10210446019E+01  0.10207880963E+01 0.  0.
     999903    2    3    3    0    0  0.74751770824E-01  0.33703646807E-01  0.97294934797E-01  0.12883791659E+00  0.20227243134E-01 0.  0.
         14    1    1    2    0    0  0.20927574820E-01 -0.17345539749E-03  0.92600200490E-02  0.22885398094E-01  0.00000000000E+00 0.  1.
     999901    1    3    3    0    0 -0.95679345644E-01 -0.33530191409E-01 -0.10655495485E+00  0.89220668532E+00  0.88000000000E+00 0.  1.
        -11    1    4    4    0    0  0.50842984004E-01  0.13050679227E-01  0.54836803754E-01  0.75912221794E-01  0.51100000000E-03 0.  1.
         11    1    4    4    0    0  0.23908786820E-01  0.20652967579E-01  0.42458131043E-01  0.52925694796E-01  0.51100000000E-03 0. -1.
</event>
<event>
 8    1  0.1177602E+005  0.1043930E+01  0.7957747E-01            NaN
         13   -1    0    0    0    0  0.00000000000E+00  0.00000000000E+00  0.74505805969E-08  0.10566000000E+00  0.10566000000E+00 0.  1.
     999900   -1    0    0    0    0 -0.00000000000E+00 -0.00000000000E+00 -0.74505805969E-08  0.93827000000E+00  0.93827000000E+00 0.  1.
     999902    2    1    2    0    0  0.11565826508E-01  0.51170842512E-02  0.21721986998E-01  0.10187944154E+01  0.10184842970E+01 0.  0.
     999903    2    3    3    0    0 -0.25018962074E-01  0.10947206430E-01 -0.11932235286E+00  0.12679332634E+00  0.33059551118E-01 0.  0.
         14    1    1    2    0    0 -0.11565826508E-01 -0.51170842512E-02 -0.21721986998E-01  0.25135584600E-01  0.00000000000E+00 0. -1.
     999901    1    3    3    0    0  0.36584788582E-01 -0.58301221790E-02  0.14104433986E+00  0.89200108906E+00  0.88000000000E+00 0. -1.
        -11    1    4    4    0    0 -0.12615277733E-02  0.17013901626E-01 -0.64777941371E-01  0.66988858104E-01  0.51100000000E-03 0.  1.
         11    1    4    4    0    0 -0.23757434300E-01 -0.60666951955E-02 -0.54544411489E-01  0.59804468234E-01  0.51100000000E-03 0. -1.
</event>
<event>
 8    1  0.1177602E+005  0.1043930E+01  0.7957747E-01            NaN
         13   -1    0    0    0    0  0.00000000000E+00  0.00000000000E+00  0.74505805969E-08  0.10566000000E+00  0.10566000000E+00 0.  1.
     999900   -1    0    0    0    0 -0.00000000000E+00 -0.00000000000E+00 -0.74505805969E-08  0.93827000000E+00  0.93827000000E+00 0. -1.
     999902    2    1    2    0    0 -0.59161777716E-03 -0.78561993109E-02 -0.16051126477E-01  0.10260496046E+01  0.10258937969E+01 0.  0.
     999903    2    3    3    0    0  0.10875178468E+00 -0.78188724464E-01  0.12291218010E-01  0.13604627186E+00  0.20422701672E-01 0.  0.
         14    1    1    2    0    0  0.59161777716E-03  0.78561993109E-02  0.16051126477E-01  0.17880395420E-01  0.00000000000E+00 0.  1.
     999901    1    3    3    0    0 -0.10934340246E+00  0.70332525153E-01 -0.28342344487E-01  0.89000333272E+00  0.88000000000E+00 0.  1.
        -11    1    4    4    0    0  0.95990631735E-01 -0.69010158559E-01  0.17427334510E-01  0.11950136599E+00  0.51100000000E-03 0. -1.
         11    1    4    4    0    0  0.12761152944E-01 -0.91785659052E-02 -0.51361165004E-02  0.16544905870E-01  0.51100000000E-03 0.  1.
</event>
<event>
 8    1  0.1177602E+005  0.1043930E+01  0.7957747E-01            NaN
         13   -1    0    0    0    0  0.00000000000E+00  0.00000000000E+00  0.74505805969E-08  0.10566000000E+00  0.10566000000E+00 0.  1.
     999900   -1    0    0    0    0 -0.00000000000E+00 -0.00000000000E+00 -0.74505805969E-08  0.93827000000E+00  0.93827000000E+00 0.  1.
     999902    2    1    2    0    0  0.87474188228E-02 -0.18575401569E-01  0.11107423825E-01  0.10205860984E+01  0.10203190905E+01 0.  0.
     999903    2    3    3    0    0  0.78547200553E-03 -0.13099573465E+00 -0.12406854149E-01  0.13308700250E+00  0.19942937182E-01 0.  0.
         14    1    1    2    0    0 -0.87474188228E-02  0.18575401569E-01 -0.11107423825E-01  0.23343901635E-01  0.00000000000E+00 0.  1.
     999901    1    3    3    0    0  0.79619468173E-02  0.11242033308E+00  0.23514277974E-01  0.88749909586E+00  0.88000000000E+00 0. -1.
        -11    1    4    4    0    0 -0.34882728241E-04 -0.84056037054E-01 -0.17506308265E-01  0.85861228340E-01  0.51100000000E-03 0. -1.
         11    1    4    4    0    0  0.82035473377E-03 -0.46939697593E-01  0.50994541161E-02  0.47225774163E-01  0.51100000000E-03 0.  1.
</event>
<event>
 8    1  0.1177602E+005  0.1043930E+01  0.7957747E-01            NaN
         13   -1    0    0    0    0  0.00000000000E+00  0.00000000000E+00  0.74505805969E-08  0.10566000000E+00  0.10566000000E+00 0.  1.
     999900   -1    0    0    0    0 -0.00000000000E+00 -0.00000000000E+00 -0.74505805969E-08  0.93827000000E+00  0.93827000000E+00 0.  1.
     999902    2    1    2    0    0  0.87951483227E-02 -0.11762220545E-01 -0.18545382294E-01  0.10202733800E+01  0.10199990854E+01 0.  0.
     999903    2    3    3    0    0 -0.43981481625E-01  0.15792619935E-01  0.11731560661E+00  0.12785932238E+00  0.20031904454E-01 0.  0.
         14    1    1    2    0    0 -0.87951483227E-02  0.11762220545E-01  0.18545382294E-01  0.23656620016E-01  0.00000000000E+00 0.  1.
     999901    1    3    3    0    0  0.52776629948E-01 -0.27554840480E-01 -0.13586098890E+00  0.89241405760E+00  0.88000000000E+00 0.  1.
        -11    1    4    4    0    0 -0.16445370093E-01 -0.17908509156E-02  0.25474718085E-01  0.30378935580E-01  0.51100000000E-03 0.  1.
         11    1    4    4    0    0 -0.27536111533E-01  0.17583470851E-01  0.91840888521E-01  0.97480386801E-01  0.51100000000E-03 0. -1.
</event>
<event>
 8    1  0.1177602E+005  0.1043930E+01  0.7957747E-01            NaN
         13   -1    0    0    0    0  0.00000000000E+00  0.00000000000E+00  0.74505805969E-08  0.10566000000E+00  0.10566000000E+00 0.  1.
     999900   -1    0    0    0    0 -0.00000000000E+00 -0.00000000000E+00 -0.74505805969E-08  0.93827000000E+00  0.93827000000E+00 0.  1.
     999902    2    1    2    0    0 -0.80231061450E-02  0.10552364066E-01 -0.15735210097E-01  0.10233552714E+01  0.10231484213E+01 0.  0.
     999903    2    3    3    0    0 -0.51413284680E-01 -0.53486827777E-01 -0.11091117178E+00  0.13484967809E+00  0.19467436074E-01 0.  0.
         14    1    1    2    0    0  0.80231061450E-02 -0.10552364066E-01  0.15735210097E-01  0.20574728586E-01  0.00000000000E+00 0.  1.
     999901    1    3    3    0    0  0.43390178535E-01  0.64039191844E-01  0.95175961687E-01  0.88850559332E+00  0.88000000000E+00 0.  1.
        -11    1    4    4    0    0 -0.23410492638E-01 -0.37910947188E-01 -0.61182673468E-01  0.75689310579E-01  0.51100000000E-03 0. -1.
         11    1    4    4    0    0 -0.28002792042E-01 -0.15575880589E-01 -0.49728498316E-01  0.59160367511E-01  0.51100000000E-03 0.  1.
</event>
<event>
 8    1  0.1177602E+005  0.1043930E+01  0.7957747E-01            NaN
         13   -1    0    0    0    0  0.00000000000E+00  0.00000000000E+00  0.74505805969E-08  0.10566000000E+00  0.10566000000E+00 0.  1.
     999900   -1    0    0    0    0 -0.00000000000E+00 -0.00000000000E+00 -0.74505805969E-08  0.93827000000E+00  0.93827000000E+00 0.  1.
     999902    2    1    2    0    0  0.20615906097E-01 -0.13007743835E-01  0.50941407922E-02  0.10190268425E+01  0.10187225032E+01 0.  0.
     999903    2    3    3    0    0  0.51142918331E-01  0.73959641768E-01  0.91673750385E-01  0.12998733075E+00  0.20174313834E-01 0.  0.
         14    1    1    2    0    0 -0.20615906097E-01  0.13007743835E-01 -0.50941407922E-02  0.24903157517E-01  0.00000000000E+00 0.  1.
     999901    1    3    3    0    0 -0.30527012234E-01 -0.86967385603E-01 -0.86579609593E-01  0.88903951174E+00  0.88000000000E+00 0.  1.
        -11    1    4    4    0    0  0.41965028243E-01  0.60026447929E-01  0.84484123423E-01  0.11181263917E+00  0.51100000000E-03 0. -1.
         11    1    4    4    0    0  0.91778900884E-02  0.13933193838E-01  0.71896269617E-02  0.18174691575E-01  0.51100000000E-03 0.  1.
</event>
<event>
 8    1  0.1177602E+005  0.1043930E+01  0.7957747E-01            NaN
         13   -1    0    0    0    0  0.00000000000E+00  0.00000000000E+00  0.74505805969E-08  0.10566000000E+00  0.10566000000E+00 0. -1.
     999900   -1    0    0    0    0 -0.00000000000E+00 -0.00000000000E+00 -0.74505805969E-08  0.93827000000E+00  0.93827000000E+00 0.  1.
     999902    2    1    2    0    0  0.37802469251E-02  0.66917507051E-02 -0.20741465934E-01  0.10218103661E+01  0.10215709207E+01 0.  0.
     999903    2    3    3    0    0  0.85739938222E-01 -0.93695183382E-01  0.25409624990E-01  0.13112251353E+00  0.20428903987E-01 0.  0.
         14    1    1    2    0    0 -0.37802469251E-02 -0.66917507051E-02  0.20741465934E-01  0.22119633890E-01  0.00000000000E+00 0. -1.
     999901    1    3    3    0    0 -0.81959691297E-01  0.10038693409E+00 -0.46151090924E-01  0.89068785258E+00  0.88000000000E+00 0. -1.
        -11    1    4    4    0    0  0.12597039293E-01 -0.21286896472E-01 -0.13527724042E-02  0.24777176484E-01  0.51100000000E-03 0.  1.
         11    1    4    4    0    0  0.73142898929E-01 -0.72408286911E-01  0.26762397394E-01  0.10634533705E+00  0.51100000000E-03 0. -1.
</event>
<event>
 8    1  0.1177602E+005  0.1043930E+01  0.7957747E-01            NaN
         13   -1    0    0    0    0  0.00000000000E+00  0.00000000000E+00  0.74505805969E-08  0.10566000000E+00  0.10566000000E+00 0.  1.
     999900   -1    0    0    0    0 -0.00000000000E+00 -0.00000000000E+00 -0.74505805969E-08  0.93827000000E+00  0.93827000000E+00 0.  1.
     999902    2    1    2    0    0 -0.26069341976E-01  0.69385680350E-02  0.94050492959E-02  0.10153606236E+01  0.10149586133E+01 0.  0.
     999903    2    3    3    0    0  0.90858541100E-02  0.87363554624E-01  0.89948517876E-01  0.12733398173E+00  0.20205534248E-01 0.  0.
         14    1    1    2    0    0  0.26069341976E-01 -0.69385680350E-02 -0.94050492959E-02  0.28569376432E-01  0.00000000000E+00 0.  1.
     999901    1    3    3    0    0 -0.35155196086E-01 -0.80424986589E-01 -0.80543468580E-01  0.88802664184E+00  0.88000000000E+00 0.  1.
        -11    1    4    4    0    0  0.27749665722E-02  0.10553116229E-01  0.33935476368E-02  0.11438793126E-01  0.51100000000E-03 0. -1.
         11    1    4    4    0    0  0.63108875378E-02  0.76810438395E-01  0.86554970239E-01  0.11589518861E+00  0.51100000000E-03 0.  1.
</event>
<event>
 8    1  0.1177602E+005  0.1043930E+01  0.7957747E-01            NaN
         13   -1    0    0    0    0  0.00000000000E+00  0.00000000000E+00  0.74505805969E-08  0.10566000000E+00  0.10566000000E+00 0. -1.
     999900   -1    0    0    0    0 -0.00000000000E+00 -0.00000000000E+00 -0.74505805969E-08  0.93827000000E+00  0.93827000000E+00 0.  1.
     999902    2    1    2    0    0 -0.16867888068E-01  0.16184109466E-01 -0.20825125120E-02  0.10204611290E+01  0.10201912213E+01 0.  0.
     999903    2    3    3    0    0  0.61057988994E-01  0.10895755029E+00 -0.36251124403E-01  0.13150283546E+00  0.19468588214E-01 0.  0.
         14    1    1    2    0    0  0.16867888068E-01 -0.16184109466E-01  0.20825125120E-02  0.23468870988E-01  0.00000000000E+00 0. -1.
     999901    1    3    3    0    0 -0.77925877062E-01 -0.92773440829E-01  0.34168611891E-01  0.88895829355E+00  0.88000000000E+00 0. -1.
        -11    1    4    4    0    0  0.46407350140E-01  0.71297199833E-01 -0.31901639577E-01  0.90856527447E-01  0.51100000000E-03 0. -1.
         11    1    4    4    0    0  0.14650638854E-01  0.37660350462E-01 -0.43494848255E-02  0.40646308012E-01  0.51100000000E-03 0.  1.
</event>
<event>
 8    1  0.1177602E+005  0.1043930E+01  0.7957747E-01            NaN
         13   -1    0    0    0    0  0.00000000000E+00  0.00000000000E+00  0.74505805969E-08  0.10566000000E+00  0.10566000000E+00 0. -1.
     999900   -1    0    0    0    0 -0.00000000000E+00 -0.00000000000E+00 -0.74505805969E-08  0.93827000000E+00  0.93827000000E+00 0. -1.
     999902    2    1    2    0    0 -0.21458933910E-02 -0.15038623550E-01  0.18585165551E-01  0.10199263870E+01  0.10196438896E+01 0.  0.
     999903    2    3    3    0    0 -0.11270023868E+00  0.55984500676E-01  0.26312545467E-01  0.13013637819E+00  0.20187094074E-01 0.  0.
         14    1    1    2    0    0  0.21458933910E-02  0.15038623550E-01 -0.18585165551E-01  0.24003612963E-01  0.00000000000E+00 0.  1.
     999901    1    3    3    0    0  0.11055434528E+00 -0.71023124227E-01 -0.77273799166E-02  0.88979000884E+00  0.88000000000E+00 0.  1.
        -11    1    4    4    0    0 -0.84819970581E-01  0.46015340406E-01  0.27986780931E-01  0.10047566865E+00  0.51100000000E-03 0.  1.
         11    1    4    4    0    0 -0.27880268094E-01  0.99691602705E-02 -0.16742354643E-02  0.29660709548E-01  0.51100000000E-03 0. -1.
</event>
<event>
 8    1  0.1177602E+005  0.1043930E+01  0.7957747E-01            NaN
         13   -1    0    0    0    0  0.00000000000E+00  0.00000000000E+00  0.74505805969E-08  0.10566000000E+00  0.10566000000E+00 0.  1.
     999900   -1    0    0    0    0 -0.00000000000E+00 -0.00000000000E+00 -0.74505805969E-08  0.93827000000E+00  0.93827000000E+00 0. -1.
     999902    2    1    2    0    0 -0.11915860980E-01 -0.15488875637E-01 -0.11128901486E-01  0.10214412148E+01  0.10211936202E+01 0.  0.
     999903    2    3    3    0    0  0.67562536342E-01 -0.17350625002E-01 -0.11070974869E+00  0.13226371459E+00  0.19269178464E-01 0.  0.
         14    1    1    2    0    0  0.11915860980E-01  0.15488875637E-01  0.11128901486E-01  0.22488785198E-01  0.00000000000E+00 0.  1.
     999901    1    3    3    0    0 -0.79478397322E-01  0.18617493650E-02  0.99580847200E-01  0.88917750021E+00  0.88000000000E+00 0.  1.
        -11    1    4    4    0    0  0.26251944360E-01  0.27817393178E-02 -0.41186887519E-01  0.48923649504E-01  0.51100000000E-03 0. -1.
         11    1    4    4    0    0  0.41310591982E-01 -0.20132364320E-01 -0.69522861167E-01  0.83340065088E-01  0.51100000000E-03 0.  1.
</event>
<event>
 8    1  0.1177602E+005  0.1043930E+01  0.7957747E-01            NaN
         13   -1    0    0    0    0  0.00000000000E+00  0.00000000000E+00  0.74505805969E-08  0.10566000000E+00  0.10566000000E+00 0. -1.
     999900   -1    0    0    0    0 -0.00000000000E+00 -0.00000000000E+00 -0.74505805969E-08  0.93827000000E+00  0.93827000000E+00 0.  1.
     999902    2    1    2    0    0 -0.22504833000E-01  0.68314260482E-02  0.86265528820E-03  0.10203953433E+01  0.10201239026E+01 0.  0.
     999903    2    3    3    0    0 -0.31615527711E-01 -0.82151781630E-02 -0.12563260414E+00  0.13117632885E+00  0.18885107456E-01 0.  0.
         14    1    1    2    0    0  0.22504833000E-01 -0.68314260482E-02 -0.86265528820E-03  0.23534656666E-01  0.00000000000E+00 0.  1.
     999901    1    3    3    0    0  0.91106947102E-02  0.15046604211E-01  0.12649525943E+00  0.88921901448E+00  0.88000000000E+00 0. -1.
        -11    1    4    4    0    0 -0.24345795926E-01 -0.34513027434E-02 -0.58190614163E-01  0.63174662385E-01  0.51100000000E-03 0. -1.
         11    1    4    4    0    0 -0.72697317849E-02 -0.47638754196E-02 -0.67441989978E-01  0.68001666468E-01  0.51100000000E-03 0.  1.
</event>
<event>
 8    1  0.1177602E+005  0.1043930E+01  0.7957747E-01            NaN
         13   -1    0    0    0    0  0.00000000000E+00  0.00000000000E+00  0.74505805969E-08  0.10566000000E+00  0.10566000000E+00 0. -1.
     999900   -1    0    0    0    0 -0.00000000000E+00 -0.00000000000E+00 -0.74505805969E-08  0.93827000000E+00  0.93827000000E+00 0. -1.
     999902    2    1    2    0    0  0.14531006709E-01  0.14097872672E-01 -0.10687995447E-01  0.10210360397E+01  0.10207793400E+01 0.  0.
     999903    2    3    3    0    0  0.34177464029E-01 -0.78128509703E-01 -0.98509524684E-01  0.13165180900E+00  0.18865558115E-01 0.  0.
         14    1    1    2    0    0 -0.14531006709E-01 -0.14097872672E-01  0.10687995447E-01  0.22893960262E-01  0.00000000000E+00 0. -1.
     999901    1    3    3    0    0 -0.19646457321E-01  0.92226382374E-01  0.87821529238E-01  0.88938423074E+00  0.88000000000E+00 0.  1.
        -11    1    4    4    0    0  0.71054636622E-02 -0.38066484682E-01 -0.48860929650E-01  0.62347385167E-01  0.51100000000E-03 0.  1.
         11    1    4    4    0    0  0.27072000367E-01 -0.40062025021E-01 -0.49648595035E-01  0.69304423831E-01  0.51100000000E-03 0. -1.
</event>
<event>
 8    1  0.1177602E+005  0.1043930E+01  0.7957747E-01            NaN
         13   -1    0    0    0    0  0.00000000000E+00  0.00000000000E+00  0.74505805969E-08  0.10566000000E+00  0.10566000000E+00 0.  1.
     999900   -1    0    0    0    0 -0.00000000000E+00 -0.00000000000E+00 -0.74505805969E-08  0.93827000000E+00  0.93827000000E+00 0. -1.
     999902    2    1    2    0    0  0.46417484108E-02  0.43203409419E-02 -0.21880640699E-01  0.10211490077E+01  0.10208948635E+01 0.  0.
     999903    2    3    3    0    0 -0.63169738063E-01  0.93921717182E-02  0.11007731158E+00  0.12871580438E+00  0.19290284471E-01 0.  0.
         14    1    1    2    0    0 -0.46417484108E-02 -0.43203409419E-02  0.21880640699E-01  0.22780992330E-01  0.00000000000E+00 0.  1.
     999901    1    3    3    0    0  0.67811486474E-01 -0.50718307764E-02 -0.13195795228E+00  0.89243320329E+00  0.88000000000E+00 0. -1.
        -11    1    4    4    0    0 -0.42488947089E-02  0.55750485104E-02  0.69703881326E-02  0.98985707988E-02  0.51100000000E-03 0. -1.
         11    1    4    4    0    0 -0.58920843354E-01  0.38171232078E-02  0.10310692345E+00  0.11881723358E+00  0.51100000000E-03 0.  1.
</event>
<event>
 8    1  0.1177602E+005  0.1043930E+01  0.7957747E-01            NaN
         13   -1    0    0    0    0  0.00000000000E+00  0.00000000000E+00  0.74505805969E-08  0.10566000000E+00  0.10566000000E+00 0. -1.
     999900   -1    0    0    0    0 -0.00000000000E+00 -0.00000000000E+00 -0.74505805969E-08  0.93827000000E+00  0.93827000000E+00 0.  1.
     999902    2    1    2    0    0  0.21026351489E-01 -0.11053795249E-01  0.67693003193E-02  0.10192294479E+01  0.10189301008E+01 0.  0.
     999903    2    3    3    0    0 -0.55634301719E-01 -0.11953106092E-01  0.11425474371E+00  0.12938070512E+00  0.21146350184E-01 0.  0.
         14    1    1    2    0    0 -0.21026351489E-01  0.11053795249E-01 -0.67693003193E-02  0.24700552082E-01  0.00000000000E+00 0.  1.
     999901    1    3    3    0    0  0.76660653208E-01  0.89931084290E-03 -0.10748544339E+00  0.88984874279E+00  0.88000000000E+00 0.  1.
        -11    1    4    4    0    0 -0.35387554449E-01  0.20837486595E-02  0.58185434986E-01  0.68135357810E-01  0.51100000000E-03 0. -1.
         11    1    4    4    0    0 -0.20246747271E-01 -0.14036854751E-01  0.56069308721E-01  0.61245347315E-01  0.51100000000E-03 0.  1.
</event>
<event>
 8    1  0.1177602E+005  0.1043930E+01  0.7957747E-01            NaN
         13   -1    0    0    0    0  0.00000000000E+00  0.00000000000E+00  0.74505805969E-08  0.10566000000E+00  0.10566000000E+00 0.  1.
     999900   -1    0    0    0    0 -0.00000000000E+00 -0.00000000000E+00 -0.74505805969E-08  0.93827000000E+00  0.93827000000E+00 0. -1.
     999902    2    1    2    0    0  0.20407336991E-01 -0.12901752183E-01  0.24509305038E-03  0.10197851313E+01  0.10194992591E+01 0.  0.
     999903    2    3    3    0    0  0.39946955030E-01  0.10692465009E+00  0.58490102666E-01  0.12954210580E+00  0.18205083129E-01 0.  0.
         14    1    1    2    0    0 -0.20407336991E-01  0.12901752183E-01 -0.24509305038E-03  0.24144868670E-01  0.00000000000E+00 0. -1.
     999901    1    3    3    0    0 -0.19539618039E-01 -0.11982640228E+00 -0.58245009616E-01  0.89024302553E+00  0.88000000000E+00 0. -1.
        -11    1    4    4    0    0  0.23118960019E-01  0.50259229723E-01  0.19193487809E-01  0.58558753231E-01  0.51100000000E-03 0. -1.
         11    1    4    4    0    0  0.16827995011E-01  0.56665420372E-01  0.39296614857E-01  0.70983352572E-01  0.51100000000E-03 0.  1.
</event>
<event>
 8    1  0.1177602E+005  0.1043930E+01  0.7957747E-01            NaN
         13   -1    0    0    0    0  0.00000000000E+00  0.00000000000E+00  0.74505805969E-08  0.10566000000E+00  0.10566000000E+00 0.  1.
     999900   -1    0    0    0    0 -0.00000000000E+00 -0.00000000000E+00 -0.74505805969E-08  0.93827000000E+00  0.93827000000E+00 0. -1.
     999902    2    1    2    0    0  0.10425214384E-01  0.58912220220E-02  0.19665907511E-01  0.10209052414E+01  0.10206455665E+01 0.  0.
     999903    2    3    3    0    0  0.84375267513E-01 -0.95707740550E-01  0.30004118670E-01  0.13191826837E+00  0.14934022324E-01 0.  0.
         14    1    1    2    0    0 -0.10425214384E-01 -0.58912220220E-02 -0.19665907511E-01  0.23024758633E-01  0.00000000000E+00 0. -1.
     999901    1    3    3    0    0 -0.73950053128E-01  0.10159896257E+00 -0.10338211159E-01  0.88898697300E+00  0.88000000000E+00 0.  1.
        -11    1    4    4    0    0  0.33926532002E-01 -0.35859047990E-01  0.44109708195E-02  0.49564086605E-01  0.51100000000E-03 0. -1.
         11    1    4    4    0    0  0.50448735511E-01 -0.59848692560E-01  0.25593147851E-01  0.82354181762E-01  0.51100000000E-03 0.  1.
</event>
<event>
 8    1  0.1177602E+005  0.1043930E+01  0.7957747E-01            NaN
         13   -1    0    0    0    0  0.00000000000E+00  0.00000000000E+00  0.74505805969E-08  0.10566000000E+00  0.10566000000E+00 0.  1.
     999900   -1    0    0    0    0 -0.00000000000E+00 -0.00000000000E+00 -0.74505805969E-08  0.93827000000E+00  0.93827000000E+00 0. -1.
     999902    2    1    2    0    0 -0.67110092245E-02 -0.17888698741E-01 -0.55324914970E-02  0.10240390058E+01  0.10238458057E+01 0.  0.
     999903    2    3    3    0    0 -0.11299785029E+00 -0.29244506163E-01 -0.65888102407E-01  0.13551852394E+00  0.20006823389E-01 0.  0.
         14    1    1    2    0    0  0.67110092245E-02  0.17888698741E-01  0.55324914970E-02  0.19890994184E-01  0.00000000000E+00 0.  1.
     999901    1    3    3    0    0  0.10628684106E+00  0.11355807422E-01  0.60355610910E-01  0.88852048188E+00  0.88000000000E+00 0.  1.
        -11    1    4    4    0    0 -0.17940467192E-01 -0.45489227758E-02 -0.19535355347E-01  0.26915502801E-01  0.51100000000E-03 0.  1.
         11    1    4    4    0    0 -0.95057383094E-01 -0.24695583388E-01 -0.46352747060E-01  0.10860302114E+00  0.51100000000E-03 0. -1.
</event>
<event>
 8    1  0.1177602E+005  0.1043930E+01  0.7957747E-01            NaN
         13   -1    0    0    0    0  0.00000000000E+00  0.00000000000E+00  0.74505805969E-08  0.10566000000E+00  0.10566000000E+00 0.  1.
     999900   -1    0    0    0    0 -0.00000000000E+00 -0.00000000000E+00 -0.74505805969E-08  0.93827000000E+00  0.93827000000E+00 0. -1.
     999902    2    1    2    0    0  0.53342003707E-02 -0.22733884318E-01  0.55804044580E-02  0.10199211661E+01  0.10196385443E+01 0.  0.
     999903    2    3    3    0    0  0.21515964146E-01  0.99291386682E-01  0.77170634542E-01  0.12847448950E+00  0.15121885912E-01 0.  0.
         14    1    1    2    0    0 -0.53342003707E-02  0.22733884318E-01 -0.55804044580E-02  0.24008833867E-01  0.00000000000E+00 0. -1.
     999901    1    3    3    0    0 -0.16181763775E-01 -0.12202527100E+00 -0.71590230083E-01  0.89144667664E+00  0.88000000000E+00 0. -1.
        -11    1    4    4    0    0  0.12192450299E-01  0.61810931417E-01  0.56692223880E-01  0.84755627874E-01  0.51100000000E-03 0.  1.
         11    1    4    4    0    0  0.93235138461E-02  0.37480455265E-01  0.20478410661E-01  0.43718861622E-01  0.51100000000E-03 0. -1.
</event>
<event>
 8    1  0.1177602E+005  0.1043930E+01  0.7957747E-01            NaN
         13   -1    0    0    0    0  0.00000000000E+00  0.00000000000E+00  0.74505805969E-08  0.10566000000E+00  0.10566000000E+00 0. -1.
     999900   -1    0    0    0    0 -0.00000000000E+00 -0.00000000000E+00 -0.74505805969E-08  0.93827000000E+00  0.93827000000E+00 0. -1.
     999902    2    1    2    0    0  0.22427833274E-01 -0.67399796845E-02 -0.56612858619E-03  0.10205044683E+01  0.10202355681E+01 0.  0.
     999903    2    3    3    0    0 -0.10895135309E+00 -0.65650998629E-01 -0.29961002921E-02  0.12879997496E+00  0.20000149295E-01 0.  0.
         14    1    1    2    0    0 -0.22427833274E-01  0.67399796845E-02  0.56612858619E-03  0.23425531650E-01  0.00000000000E+00 0.  1.
     999901    1    3    3    0    0  0.13137918637E+00  0.58911018944E-01  0.24299717060E-02  0.89170449339E+00  0.88000000000E+00 0.  1.
        -11    1    4    4    0    0 -0.19843877337E-01 -0.64273739806E-02 -0.61703011600E-02  0.21758316604E-01  0.51100000000E-03 0.  1.
         11    1    4    4    0    0 -0.89107475756E-01 -0.59223624648E-01  0.31742008678E-02  0.10704165836E+00  0.51100000000E-03 0. -1.
</event>
<event>
 8    1  0.1177602E+005  0.1043930E+01  0.7957747E-01            NaN
         13   -1    0    0    0    0  0.00000000000E+00  0.00000000000E+00  0.74505805969E-08  0.10566000000E+00  0.10566000000E+00 0.  1.
     999900   -1    0    0    0    0 -0.00000000000E+00 -0.00000000000E+00 -0.74505805969E-08  0.93827000000E+00  0.93827000000E+00 0.  1.
     999902    2    1    2    0    0  0.12725113838E-01 -0.57400116941E-02  0.21828346289E-01  0.10180195203E+01  0.10176897321E+01 0.  0.
     999903    2    3    3    0    0  0.60662262930E-01  0.10627349797E+00  0.36285294041E-01  0.12950728069E+00  0.21944171713E-01 0.  0.
         14    1    1    2    0    0 -0.12725113838E-01  0.57400116941E-02 -0.21828346289E-01  0.25910479697E-01  0.00000000000E+00 0.  1.
     999901    1    3    3    0    0 -0.47937149092E-01 -0.11201350967E+00 -0.14456947752E-01  0.88851223962E+00  0.88000000000E+00 0. -1.
        -11    1    4    4    0    0  0.24379365280E-02  0.20496505030E-01  0.59379701471E-02  0.21484200321E-01  0.51100000000E-03 0. -1.
         11    1    4    4    0    0  0.58224326402E-01  0.85776992942E-01  0.30347323894E-01  0.10802308037E+00  0.51100000000E-03 0.  1.
</event>
<event>
 8    1  0.1177602E+005  0.1043930E+01  0.7957747E-01            NaN
         13   -1    0    0    0    0  0.00000000000E+00  0.00000000000E+00  0.74505805969E-08  0.10566000000E+00  0.10566000000E+00 0. -1.
     999900   -1    0    0    0    0 -0.00000000000E+00 -0.00000000000E+00 -0.74505805969E-08  0.93827000000E+00  0.93827000000E+00 0. -1.
     999902    2    1    2    0    0  0.17908057976E-01  0.64991052283E-02 -0.14363880699E-01  0.10200708722E+01  0.10197918054E+01 0.  0.
     999903    2    3    3    0    0 -0.48048013359E-01  0.55056219937E-01  0.10390517400E+00  0.12838955806E+00  0.18649249167E-01 0.  0.
         14    1    1    2    0    0 -0.17908057976E-01 -0.64991052283E-02  0.14363880699E-01  0.23859127770E-01  0.00000000000E+00 0. -1.
     999901    1    3    3    0    0  0.65956071335E-01 -0.48557114708E-01 -0.11826905470E+00  0.89168131417E+00  0.88000000000E+00 0.  1.
        -11    1    4    4    0    0 -0.62541030230E-02  0.18121969974E-01  0.20697160476E-01  0.28216186367E-01  0.51100000000E-03 0. -1.
         11    1    4    4    0    0 -0.41793910336E-01  0.36934249963E-01  0.83208013523E-01  0.10017337170E+00  0.51100000000E-03 0.  1.
</event>
<event>
 8    1  0.1177602E+005  0.1043930E+01  0.7957747E-01            NaN
         13   -1    0    0    0    0  0.00000000000E+00  0.00000000000E+00  0.74505805969E-08  0.10566000000E+00  0.10566000000E+00 0.  1.
     999900   -1    0    0    0    0 -0.00000000000E+00 -0.00000000000E+00 -0.74505805969E-08  0.93827000000E+00  0.93827000000E+00 0.  1.
     999902    2    1    2    0    0 -0.99933616685E-02 -0.12260038376E-01 -0.27585682123E-01  0.10121314831E+01  0.10116318468E+01 0.  0.
     999903    2    3    3    0    0 -0.34182225339E-01  0.82606087559E-01 -0.84556768818E-01  0.12487143797E+00  0.21232961100E-01 0.  0.
         14    1    1    2    0    0  0.99933616685E-02  0.12260038376E-01  0.27585682123E-01  0.31798516893E-01  0.00000000000E+00 0.  1.
     999901    1    3    3    0    0  0.24188863671E-01 -0.94866125935E-01  0.56971086695E-01  0.88726004514E+00  0.88000000000E+00 0. -1.
        -11    1    4    4    0    0 -0.19711761118E-01  0.24324471538E-01 -0.22830337123E-01  0.38752017446E-01  0.51100000000E-03 0. -1.
         11    1    4    4    0    0 -0.14470464221E-01  0.58281616020E-01 -0.61726431695E-01  0.86119420525E-01  0.51100000000E-03 0.  1.
</event>
<event>
 8    1  0.1177602E+005  0.1043930E+01  0.7957747E-01            NaN
         13   -1    0    0    0    0  0.00000000000E+00  0.00000000000E+00  0.74505805969E-08  0.10566000000E+00  0.10566000000E+00 0. -1.
     999900   -1    0    0    0    0 -0.00000000000E+00 -0.00000000000E+00 -0.74505805969E-08  0.93827000000E+00  0.93827000000E+00 0. -1.
     999902    2    1    2    0    0  0.16471927602E-01  0.17103410639E-01  0.26546617249E-02  0.10200365222E+01  0.10197566417E+01 0.  0.
     999903    2    3    3    0    0 -0.75270723539E-01 -0.10132819636E+00 -0.49434888220E-02  0.12734369063E+00  0.16090129315E-01 0.  0.
         14    1    1    2    0    0 -0.16471927602E-01 -0.17103410639E-01 -0.26546617249E-02  0.23893477840E-01  0.00000000000E+00 0.  1.
     999901    1    3    3    0    0  0.91742651141E-01  0.11843160700E+00  0.75981505469E-02  0.89269283153E+00  0.88000000000E+00 0. -1.
        -11    1    4    4    0    0 -0.11176701422E-01 -0.22038949970E-01  0.38271217165E-02  0.25010836693E-01  0.51100000000E-03 0.  1.
         11    1    4    4    0    0 -0.64094022118E-01 -0.79289246391E-01 -0.87706105385E-02  0.10233285394E+00  0.51100000000E-03 0. -1.
</event>
<event>
 8    1  0.1177602E+005  0.1043930E+01  0.7957747E-01            NaN
         13   -1    0    0    0    0  0.00000000000E+00  0.00000000000E+00  0.74505805969E-08  0.10566000000E+00  0.10566000000E+00 0.  1.
     999900   -1    0    0    0    0 -0.00000000000E+00 -0.00000000000E+00 -0.74505805969E-08  0.93827000000E+00  0.93827000000E+00 0. -1.
     999902    2    1    2    0    0 -0.11352939548E-01 -0.11535814192E-02  0.20367981727E-01  0.10205831658E+01  0.10203160901E+01 0.  0.
     999903    2    3    3    0    0  0.95829393467E-02 -0.86389543998E-01  0.98543784692E-01  0.13276846865E+00  0.19015854653E-01 0.  0.
         14    1    1    2    0    0  0.11352939548E-01  0.11535814192E-02 -0.20367981727E-01  0.23346834177E-01  0.00000000000E+00 0. -1.
     999901    1    3    3    0    0 -0.20935878895E-01  0.85235962579E-01 -0.78175802965E-01  0.88781469717E+00  0.88000000000E+00 0. -1.
        -11    1    4    4    0    0  0.11805108313E-01 -0.76373557498E-01  0.93560786408E-01  0.12135140189E+00  0.51100000000E-03 0. -1.
         11    1    4    4    0    0 -0.22221689668E-02 -0.10015986500E-01  0.49829982838E-02  0.11417066759E-01  0.51100000000E-03 0.  1.
</event>
<event>
 8    1  0.1177602E+005  0.1043930E+01  0.7957747E-01            NaN
         13   -1    0    0    0    0  0.00000000000E+00  0.00000000000E+00  0.74505805969E-08  0.10566000000E+00  0.10566000000E+00 0.  1.
     999900   -1    0    0    0    0 -0.00000000000E+00 -0.00000000000E+00 -0.74505805969E-08  0.93827000000E+00  0.93827000000E+00 0.  1.
     999902    2    1    2    0    0  0.68367630283E-02 -0.20435543247E-01 -0.82896588567E-02  0.10208416653E+01  0.10205805379E+01 0.  0.
     999903    2    3    3    0    0  0.12146984697E+00  0.17432085536E-01 -0.43852742364E-01  0.13188754151E+00  0.20309093145E-01 0.  0.
         14    1    1    2    0    0 -0.68367630283E-02  0.20435543247E-01  0.82896588567E-02  0.23088334727E-01  0.00000000000E+00 0. -1.
     999901    1    3    3    0    0 -0.11463308394E+00 -0.37867628783E-01  0.35563083508E-01  0.88895412376E+00  0.88000000000E+00 0.  1.
        -11    1    4    4    0    0  0.21210856622E-01  0.60063447972E-03 -0.15691485900E-01  0.26395928685E-01  0.51100000000E-03 0. -1.
         11    1    4    4    0    0  0.10025899035E+00  0.16831451056E-01 -0.28161256465E-01  0.10549161283E+00  0.51100000000E-03 0.  1.
</event>
<event>
 8    1  0.1177602E+005  0.1043930E+01  0.7957747E-01            NaN
         13   -1    0    0    0    0  0.00000000000E+00  0.00000000000E+00  0.74505805969E-08  0.10566000000E+00  0.10566000000E+00 0.  1.
     999900   -1    0    0    0    0 -0.00000000000E+00 -0.00000000000E+00 -0.74505805969E-08  0.93827000000E+00  0.93827000000E+00 0. -1.
     999902    2    1    2    0    0  0.54912011314E-02  0.12803196554E-02  0.24039258428E-01  0.10192383323E+01  0.10189392031E+01 0.  0.
     999903    2    3    3    0    0  0.56712735160E-01 -0.31259425595E-02 -0.11207716755E+00  0.12729060843E+00  0.20383857849E-01 0.  0.
         14    1    1    2    0    0 -0.54912011314E-02 -0.12803196554E-02 -0.24039258428E-01  0.24691667705E-01  0.00000000000E+00 0. -1.
     999901    1    3    3    0    0 -0.51221534028E-01  0.44062622149E-02  0.13611642598E+00  0.89194772387E+00  0.88000000000E+00 0.  1.
        -11    1    4    4    0    0  0.33654341779E-01 -0.19672639607E-02 -0.44190969395E-01  0.55584060171E-01  0.51100000000E-03 0.  1.
         11    1    4    4    0    0  0.23058393381E-01 -0.11586785988E-02 -0.67886198156E-01  0.71706548254E-01  0.51100000000E-03 0. -1.
</event>
<event>
 8    1  0.1177602E+005  0.1043930E+01  0.7957747E-01            NaN
         13   -1    0    0    0    0  0.00000000000E+00  0.00000000000E+00  0.74505805969E-08  0.10566000000E+00  0.10566000000E+00 0. -1.
     999900   -1    0    0    0    0 -0.00000000000E+00 -0.00000000000E+00 -0.74505805969E-08  0.93827000000E+00  0.93827000000E+00 0. -1.
     999902    2    1    2    0    0 -0.64745435524E-02  0.18846199083E-01 -0.12952316035E-01  0.10201631865E+01  0.10198863003E+01 0.  0.
     999903    2    3    3    0    0 -0.10903911159E+00 -0.67957287957E-01 -0.85818037725E-02  0.12995341494E+00  0.17507765576E-01 0.  0.
         14    1    1    2    0    0  0.64745435524E-02 -0.18846199083E-01  0.12952316035E-01  0.23766813517E-01  0.00000000000E+00 0. -1.
     999901    1    3    3    0    0  0.10256456804E+00  0.86803487040E-01 -0.43705122625E-02  0.89020977155E+00  0.88000000000E+00 0. -1.
        -11    1    4    4    0    0 -0.27784936203E-01 -0.11192987128E-01  0.32292950267E-02  0.30132625309E-01  0.51100000000E-03 0. -1.
         11    1    4    4    0    0 -0.81254175384E-01 -0.56764300829E-01 -0.11811098799E-01  0.99820789628E-01  0.51100000000E-03 0.  1.
</event>
<event>
 8    1  0.1177602E+005  0.1043930E+01  0.7957747E-01            NaN
         13   -1    0    0    0    0  0.00000000000E+00  0.00000000000E+00  0.74505805969E-08  0.10566000000E+00  0.10566000000E+00 0. -1.
     999900   -1    0    0    0    0 -0.00000000000E+00 -0.00000000000E+00 -0.74505805969E-08  0.93827000000E+00  0.93827000000E+00 0.  1.
     999902    2    1    2    0    0 -0.81029880194E-02 -0.22557536678E-01 -0.15956661812E-03  0.10199607210E+01  0.10196790407E+01 0.  0.
     999903    2    3    3    0    0  0.40445838857E-01  0.11220678636E+00 -0.40039058113E-01  0.12748731229E+00  0.20582998683E-01 0.  0.
         14    1    1    2    0    0  0.81029880194E-02  0.22557536678E-01  0.15956661812E-03  0.23969279032E-01  0.00000000000E+00 0.  1.
     999901    1    3    3    0    0 -0.48548826877E-01 -0.13476432304E+00  0.39879491494E-01  0.89247340868E+00  0.88000000000E+00 0. -1.
        -11    1    4    4    0    0 -0.13431637150E-02  0.16887038970E-01 -0.61681164904E-02  0.18035602457E-01  0.51100000000E-03 0. -1.
         11    1    4    4    0    0  0.41789002572E-01  0.95319747388E-01 -0.33870941622E-01  0.10945170983E+00  0.51100000000E-03 0.  1.
</event>
<event>
 8    1  0.1177602E+005  0.1043930E+01  0.7957747E-01            NaN
         13   -1    0    0    0    0  0.00000000000E+00  0.00000000000E+00  0.74505805969E-08  0.10566000000E+00  0.10566000000E+00 0. -1.
     999900   -1    0    0    0    0 -0.00000000000E+00 -0.00000000000E+00 -0.74505805969E-08  0.93827000000E+00  0.93827000000E+00 0.  1.
     999902    2    1    2    0    0 -0.29989187350E-02  0.22116810714E-01  0.73224216755E-02  0.10204403280E+01  0.10201699360E+01 0.  0.
     999903    2    3    3    0    0 -0.81508449859E-01 -0.97837957820E-01  0.16672159695E-02  0.12882108513E+00  0.19395849451E-01 0.  0.
         14    1    1    2    0    0  0.29989187350E-02 -0.22116810714E-01 -0.73224216755E-02  0.23489671963E-01  0.00000000000E+00 0. -1.
     999901    1    3    3    0    0  0.78509531125E-01  0.11995476853E+00  0.56552057060E-02  0.89161924291E+00  0.88000000000E+00 0. -1.
        -11    1    4    4    0    0 -0.83579588513E-02 -0.30612650144E-02  0.18067758025E-02  0.90968334847E-02  0.51100000000E-03 0. -1.
         11    1    4    4    0    0 -0.73150491008E-01 -0.94776692806E-01 -0.13955983298E-03  0.11972425164E+00  0.51100000000E-03 0.  1.
</event>
<event>
 8    1  0.1177602E+005  0.1043930E+01  0.7957747E-01            NaN
         13   -1    0    0    0    0  0.00000000000E+00  0.00000000000E+00  0.74505805969E-08  0.10566000000E+00  0.10566000000E+00 0. -1.
     999900   -1    0    0    0    0 -0.00000000000E+00 -0.00000000000E+00 -0.74505805969E-08  0.93827000000E+00  0.93827000000E+00 0. -1.
     999902    2    1    2    0    0  0.10699104684E-01  0.14140904705E-01 -0.14347464527E-01  0.10211202265E+01  0.10208654325E+01 0.  0.
     999903    2    3    3    0    0 -0.11672000379E+00 -0.10963563057E-01 -0.54291786984E-01  0.13069256951E+00  0.19727914018E-01 0.  0.
         14    1    1    2    0    0 -0.10699104684E-01 -0.14140904705E-01  0.14347464527E-01  0.22809773460E-01  0.00000000000E+00 0. -1.
     999901    1    3    3    0    0  0.12741910848E+00  0.25104467763E-01  0.39944322457E-01  0.89042765703E+00  0.88000000000E+00 0.  1.
        -11    1    4    4    0    0 -0.49767732223E-01 -0.14385103035E-01 -0.25194461804E-01  0.57608856841E-01  0.51100000000E-03 0. -1.
         11    1    4    4    0    0 -0.66952271568E-01  0.34215399779E-02 -0.29097325180E-01  0.73083712670E-01  0.51100000000E-03 0.  1.
</event>
<event>
 8    1  0.1177602E+005  0.1043930E+01  0.7957747E-01            NaN
         13   -1    0    0    0    0  0.00000000000E+00  0.00000000000E+00  0.74505805969E-08  0.10566000000E+00  0.10566000000E+00 0.  1.
     999900   -1    0    0    0    0 -0.00000000000E+00 -0.00000000000E+00 -0.74505805969E-08  0.93827000000E+00  0.93827000000E+00 0. -1.
     999902    2    1    2    0    0  0.11922364652E-01 -0.78130422696E-02 -0.18983745286E-01  0.10201903919E+01  0.10199141467E+01 0.  0.
     999903    2    3    3    0    0  0.12363452682E+00  0.31703262206E-01  0.23730587119E-01  0.13122151746E+00  0.19114204778E-01 0.  0.
         14    1    1    2    0    0 -0.11922364652E-01  0.78130422696E-02  0.18983745286E-01  0.23739608116E-01  0.00000000000E+00 0. -1.
     999901    1    3    3    0    0 -0.11171216217E+00 -0.39516304475E-01 -0.42714332405E-01  0.88896887442E+00  0.88000000000E+00 0. -1.
        -11    1    4    4    0    0  0.82523852506E-01  0.11997903530E-01  0.17443686523E-01  0.85197882850E-01  0.51100000000E-03 0.  1.
         11    1    4    4    0    0  0.41110674313E-01  0.19705358676E-01  0.62869005955E-02  0.46023634614E-01  0.51100000000E-03 0. -1.
</event>
<event>
 8    1  0.1177602E+005  0.1043930E+01  0.7957747E-01            NaN
         13   -1    0    0    0    0  0.00000000000E+00  0.00000000000E+00  0.74505805969E-08  0.10566000000E+00  0.10566000000E+00 0. -1.
     999900   -1    0    0    0    0 -0.00000000000E+00 -0.00000000000E+00 -0.74505805969E-08  0.93827000000E+00  0.93827000000E+00 0.  1.
     999902    2    1    2    0    0  0.17419524583E-01  0.62303729329E-02 -0.18743633335E-01  0.10175940707E+01  0.10172532190E+01 0.  0.
     999903    2    3    3    0    0 -0.18741728919E-02  0.10231600841E+00  0.73179653693E-01  0.12739488688E+00  0.20052864800E-01 0.  0.
         14    1    1    2    0    0 -0.17419524583E-01 -0.62303729329E-02  0.18743633335E-01  0.26335929339E-01  0.00000000000E+00 0. -1.
     999901    1    3    3    0    0  0.19293697475E-01 -0.96085635480E-01 -0.91923287027E-01  0.89019918378E+00  0.88000000000E+00 0.  1.
        -11    1    4    4    0    0  0.54663947038E-02  0.14574503418E-01  0.16446880160E-01  0.22650797093E-01  0.51100000000E-03 0.  1.
         11    1    4    4    0    0 -0.73405675957E-02  0.87741504994E-01  0.56732773532E-01  0.10474408979E+00  0.51100000000E-03 0. -1.
</event>
<event>
 8    1  0.1177602E+005  0.1043930E+01  0.7957747E-01            NaN
         13   -1    0    0    0    0  0.00000000000E+00  0.00000000000E+00  0.74505805969E-08  0.10566000000E+00  0.10566000000E+00 0.  1.
     999900   -1    0    0    0    0 -0.00000000000E+00 -0.00000000000E+00 -0.74505805969E-08  0.93827000000E+00  0.93827000000E+00 0. -1.
     999902    2    1    2    0    0  0.16237369036E-01 -0.17227825242E-01  0.22470305015E-02  0.10201497716E+01  0.10198725691E+01 0.  0.
     999903    2    3    3    0    0 -0.98990960494E-01 -0.80801984879E-01 -0.16647292010E-01  0.13016312165E+00  0.18361233255E-01 0.  0.
         14    1    1    2    0    0 -0.16237369036E-01  0.17227825242E-01 -0.22470305015E-02  0.23780228381E-01  0.00000000000E+00 0.  1.
     999901    1    3    3    0    0  0.11522832953E+00  0.63574159637E-01  0.18894322511E-01  0.88998664997E+00  0.88000000000E+00 0.  1.
        -11    1    4    4    0    0 -0.77940787506E-01 -0.63978345140E-01 -0.54718019438E-02  0.10098612153E+00  0.51100000000E-03 0. -1.
         11    1    4    4    0    0 -0.21050172988E-01 -0.16823639739E-01 -0.11175490066E-01  0.29177000122E-01  0.51100000000E-03 0.  1.
</event>
<event>
 8    1  0.1177602E+005  0.1043930E+01  0.7957747E-01            NaN
         13   -1    0    0    0    0  0.00000000000E+00  0.00000000000E+00  0.74505805969E-08  0.10566000000E+00  0.10566000000E+00 0. -1.
     999900   -1    0    0    0    0 -0.00000000000E+00 -0.00000000000E+00 -0.74505805969E-08  0.93827000000E+00  0.93827000000E+00 0.  1.
     999902    2    1    2    0    0 -0.17882403784E-01 -0.83493487166E-02 -0.88713615864E-02  0.10222922310E+01  0.10220632136E+01 0.  0.
     999903    2    3    3    0    0 -0.93897592655E-01  0.86611881957E-01 -0.33645376540E-01  0.13357985007E+00  0.19828993426E-01 0.  0.
         14    1    1    2    0    0  0.17882403784E-01  0.83493487166E-02  0.88713615864E-02  0.21637768958E-01  0.00000000000E+00 0. -1.
     999901    1    3    3    0    0  0.76015188871E-01 -0.94961230674E-01  0.24774014954E-01  0.88871238097E+00  0.88000000000E+00 0. -1.
        -11    1    4    4    0    0 -0.79755834468E-01  0.64506068513E-01 -0.31204117376E-01  0.10721932694E+00  0.51100000000E-03 0.  1.
         11    1    4    4    0    0 -0.14141758187E-01  0.22105813445E-01 -0.24412591645E-02  0.26360523136E-01  0.51100000000E-03 0. -1.
</event>
<event>
 8    1  0.1177602E+005  0.1043930E+01  0.7957747E-01            NaN
         13   -1    0    0    0    0  0.00000000000E+00  0.00000000000E+00  0.74505805969E-08  0.10566000000E+00  0.10566000000E+00 0. -1.
     999900   -1    0    0    0    0 -0.00000000000E+00 -0.00000000000E+00 -0.74505805969E-08  0.93827000000E+00  0.93827000000E+00 0. -1.
     999902    2    1    2    0    0 -0.55109888512E-02  0.46651388904E-02  0.24194218271E-01  0.10186813423E+01  0.10183683923E+01 0.  0.
     999903    2    3    3    0    0 -0.93075197491E-01 -0.77047346576E-01  0.44622767244E-01  0.13033358012E+00  0.19908911281E-01 0.  0.
         14    1    1    2    0    0  0.55109888512E-02 -0.46651388904E-02 -0.24194218271E-01  0.25248657721E-01  0.00000000000E+00 0.  1.
     999901    1    3    3    0    0  0.87564208640E-01  0.81712485467E-01 -0.20428548973E-01  0.88834776216E+00  0.88000000000E+00 0.  1.
        -11    1    4    4    0    0 -0.88663815414E-01 -0.66845542456E-01  0.37879108210E-01  0.11732300145E+00  0.51100000000E-03 0. -1.
         11    1    4    4    0    0 -0.44113820766E-02 -0.10201804121E-01  0.67436590345E-02  0.13010578669E-01  0.51100000000E-03 0.  1.
</event>
<event>
 8    1  0.1177602E+005  0.1043930E+01  0.7957747E-01            NaN
         13   -1    0    0    0    0  0.00000000000E+00  0.00000000000E+00  0.74505805969E-08  0.10566000000E+00  0.10566000000E+00 0. -1.
     999900   -1    0    0    0    0 -0.00000000000E+00 -0.00000000000E+00 -0.74505805969E-08  0.93827000000E+00  0.93827000000E+00 0.  1.
     999902    2    1    2    0    0  0.23999532446E-01 -0.74484999851E-03  0.19437531424E-03  0.10199181250E+01  0.10196354307E+01 0.  0.
     999903    2    3    3    0    0  0.69789869339E-01  0.25182826748E-01 -0.10708085801E+00  0.13184325481E+00  0.20286277690E-01 0.  0.
         14    1    1    2    0    0 -0.23999532446E-01  0.74484999851E-03 -0.19437531424E-03  0.24011874998E-01  0.00000000000E+00 0.  1.
     999901    1    3    3    0    0 -0.45790336893E-01 -0.25927676747E-01  0.10727523332E+00  0.88807487019E+00  0.88000000000E+00 0. -1.
        -11    1    4    4    0    0  0.18743647391E-01  0.19365896952E-02 -0.41269074183E-01  0.45370390147E-01  0.51100000000E-03 0. -1.
         11    1    4    4    0    0  0.51046221948E-01  0.23246237053E-01 -0.65811783827E-01  0.86472864667E-01  0.51100000000E-03 0.  1.
</event>
<event>
 8    1  0.1177602E+005  0.1043930E+01  0.7957747E-01            NaN
         13   -1    0    0    0    0  0.00000000000E+00  0.00000000000E+00  0.74505805969E-08  0.10566000000E+00  0.10566000000E+00 0. -1.
     999900   -1    0    0    0    0 -0.00000000000E+00 -0.00000000000E+00 -0.74505805969E-08  0.93827000000E+00  0.93827000000E+00 0.  1.
     999902    2    1    2    0    0  0.10358676447E-01  0.22922596988E-01 -0.21558212099E-02  0.10186833132E+01  0.10183704126E+01 0.  0.
     999903    2    3    3    0    0  0.12685643995E+00 -0.14402517546E-01  0.14499570773E-01  0.13006511892E+00  0.20167021081E-01 0.  0.
         14    1    1    2    0    0 -0.10358676447E-01 -0.22922596988E-01  0.21558212099E-02  0.25246686823E-01  0.00000000000E+00 0. -1.
     999901    1    3    3    0    0 -0.11649776350E+00  0.37325114534E-01 -0.16655391983E-01  0.88861819425E+00  0.88000000000E+00 0.  1.
        -11    1    4    4    0    0  0.89605779088E-01 -0.15291260654E-01  0.25753932560E-02  0.90939056900E-01  0.51100000000E-03 0. -1.
         11    1    4    4    0    0  0.37250660863E-01  0.88874310829E-03  0.11924177517E-01  0.39126062024E-01  0.51100000000E-03 0.  1.
</event>
<event>
 8    1  0.1177602E+005  0.1043930E+01  0.7957747E-01            NaN
         13   -1    0    0    0    0  0.00000000000E+00  0.00000000000E+00  0.74505805969E-08  0.10566000000E+00  0.10566000000E+00 0. -1.
     999900   -1    0    0    0    0 -0.00000000000E+00 -0.00000000000E+00 -0.74505805969E-08  0.93827000000E+00  0.93827000000E+00 0.  1.
     999902    2    1    2    0    0 -0.22940234742E-01 -0.15549819435E-02 -0.72968900858E-02  0.10198070453E+01  0.10195216980E+01 0.  0.
     999903    2    3    3    0    0 -0.61089929890E-01  0.77582387058E-01  0.82746460394E-01  0.13086051857E+00  0.22945419946E-01 0.  0.
         14    1    1    2    0    0  0.22940234742E-01  0.15549819435E-02  0.72968900858E-02  0.24122954707E-01  0.00000000000E+00 0.  1.
     999901    1    3    3    0    0  0.38149695148E-01 -0.79137369001E-01 -0.90043350480E-01  0.88894652673E+00  0.88000000000E+00 0.  1.
        -11    1    4    4    0    0 -0.17909453570E-01  0.39237702250E-01  0.29061958175E-01  0.52011578894E-01  0.51100000000E-03 0.  1.
         11    1    4    4    0    0 -0.43180476320E-01  0.38344684808E-01  0.53684502219E-01  0.78848939674E-01  0.51100000000E-03 0. -1.
</event>
<event>
 8    1  0.1177602E+005  0.1043930E+01  0.7957747E-01            NaN
         13   -1    0    0    0    0  0.00000000000E+00  0.00000000000E+00  0.74505805969E-08  0.10566000000E+00  0.10566000000E+00 0. -1.
     999900   -1    0    0    0    0 -0.00000000000E+00 -0.00000000000E+00 -0.74505805969E-08  0.93827000000E+00  0.93827000000E+00 0.  1.
     999902    2    1    2    0    0 -0.13289724870E-01  0.47471946486E-02 -0.16804796910E-01  0.10219856649E+01  0.10217500406E+01 0.  0.
     999903    2    3    3    0    0 -0.75770573534E-01 -0.14079674582E-01  0.10445864061E+00  0.13127632468E+00  0.19556297543E-01 0.  0.
         14    1    1    2    0    0  0.13289724870E-01 -0.47471946486E-02  0.16804796910E-01  0.21944335108E-01  0.00000000000E+00 0. -1.
     999901    1    3    3    0    0  0.62480848664E-01  0.18826869230E-01 -0.12126343752E+00  0.89070934021E+00  0.88000000000E+00 0.  1.
        -11    1    4    4    0    0 -0.24772847620E-01 -0.13652193841E-01  0.32697801365E-01  0.43237526652E-01  0.51100000000E-03 0. -1.
         11    1    4    4    0    0 -0.50997725914E-01 -0.42748074094E-03  0.71760839248E-01  0.88038798031E-01  0.51100000000E-03 0.  1.
</event>
<event>
 8    1  0.1229560E+005  0.1043930E+01  0.7957747E-01            NaN
         13   -1    0    0    0    0  0.00000000000E+00  0.00000000000E+00  0.74505805969E-08  0.10566000000E+00  0.10566000000E+00 0.  1.
     999900   -1    0    0    0    0 -0.00000000000E+00 -0.00000000000E+00 -0.74505805969E-08  0.93827000000E+00  0.93827000000E+00 0.  1.
     999902    2    1    2    0    0 -0.22398307820E-01  0.10095647723E-01  0.70706795273E-03  0.10193514272E+01  0.10190550652E+01 0.  0.
     999903    2    3    3    0    0  0.39940667840E-01  0.10533304019E+00  0.61879841880E-01  0.12991429221E+00  0.18928871797E-01 0.  0.
         14    1    1    2    0    0  0.22398307820E-01 -0.10095647723E-01 -0.70706795273E-03  0.24578572807E-01  0.00000000000E+00 0. -1.
     999901    1    3    3    0    0 -0.62338975660E-01 -0.95237392465E-01 -0.61172773928E-01  0.88943713498E+00  0.88000000000E+00 0.  1.
        -11    1    4    4    0    0  0.12923448758E-01  0.44447003067E-01  0.35213956154E-01  0.58162147815E-01  0.51100000000E-03 0. -1.
         11    1    4    4    0    0  0.27017219082E-01  0.60886037121E-01  0.26665885726E-01  0.71752144398E-01  0.51100000000E-03 0.  1.
</event>
<event>
 8    1  0.1177602E+005  0.1043930E+01  0.7957747E-01            NaN
         13   -1    0    0    0    0  0.00000000000E+00  0.00000000000E+00  0.74505805969E-08  0.10566000000E+00  0.10566000000E+00 0.  1.
     999900   -1    0    0    0    0 -0.00000000000E+00 -0.00000000000E+00 -0.74505805969E-08  0.93827000000E+00  0.93827000000E+00 0.  1.
     999902    2    1    2    0    0 -0.11538681465E-02  0.22017589461E-01  0.76453424076E-02  0.10205942566E+01  0.10203274375E+01 0.  0.
     999903    2    3    3    0    0  0.59188231101E-01 -0.94915166848E-02 -0.11344544070E+00  0.12969753397E+00  0.18927406408E-01 0.  0.
         14    1    1    2    0    0  0.11538681465E-02 -0.22017589461E-01 -0.76453424076E-02  0.23335743355E-01  0.00000000000E+00 0. -1.
     999901    1    3    3    0    0 -0.60342099247E-01  0.31509106146E-01  0.12109078311E+00  0.89089672267E+00  0.88000000000E+00 0. -1.
        -11    1    4    4    0    0  0.22894900866E-01  0.52391802016E-02 -0.37648624615E-01  0.44376858286E-01  0.51100000000E-03 0.  1.
         11    1    4    4    0    0  0.36293330235E-01 -0.14730696886E-01 -0.75796816086E-01  0.85320675689E-01  0.51100000000E-03 0. -1.
</event>
<event>
 8    1  0.1177602E+005  0.1043930E+01  0.7957747E-01            NaN
         13   -1    0    0    0    0  0.00000000000E+00  0.00000000000E+00  0.74505805969E-08  0.10566000000E+00  0.10566000000E+00 0.  1.
     999900   -1    0    0    0    0 -0.00000000000E+00 -0.00000000000E+00 -0.74505805969E-08  0.93827000000E+00  0.93827000000E+00 0.  1.
     999902    2    1    2    0    0 -0.17294415704E-01 -0.40029031698E-02 -0.14824060481E-01  0.10208026824E+01  0.10205406624E+01 0.  0.
     999903    2    3    3    0    0  0.68117395167E-01 -0.10636232255E+00 -0.27142129141E-01  0.13067664474E+00  0.19666395818E-01 0.  0.
         14    1    1    2    0    0  0.17294415704E-01  0.40029031698E-02  0.14824060481E-01  0.23127317559E-01  0.00000000000E+00 0.  1.
     999901    1    3    3    0    0 -0.85411810871E-01  0.10235941938E+00  0.12318068661E-01  0.89012603770E+00  0.88000000000E+00 0.  1.
        -11    1    4    4    0    0  0.13609352721E-01 -0.10633098272E-01 -0.72320565599E-02  0.18730750744E-01  0.51100000000E-03 0. -1.
         11    1    4    4    0    0  0.54508042447E-01 -0.95729224277E-01 -0.19910072581E-01  0.11194589400E+00  0.51100000000E-03 0.  1.
</event>
<event>
 8    1  0.1177602E+005  0.1043930E+01  0.7957747E-01            NaN
         13   -1    0    0    0    0  0.00000000000E+00  0.00000000000E+00  0.74505805969E-08  0.10566000000E+00  0.10566000000E+00 0.  1.
     999900   -1    0    0    0    0 -0.00000000000E+00 -0.00000000000E+00 -0.74505805969E-08  0.93827000000E+00  0.93827000000E+00 0.  1.
     999902    2    1    2    0    0  0.15722220053E-01  0.16165713694E-01 -0.42944773276E-02  0.10209743681E+01  0.10207162677E+01 0.  0.
     999903    2    3    3    0    0 -0.92079883697E-01  0.66343007088E-01 -0.62580819748E-01  0.13106630985E+00  0.19542748154E-01 0.  0.
         14    1    1    2    0    0 -0.15722220053E-01 -0.16165713694E-01  0.42944773276E-02  0.22955631948E-01  0.00000000000E+00 0. -1.
     999901    1    3    3    0    0  0.10780210375E+00 -0.50177293394E-01  0.58286342420E-01  0.88990805820E+00  0.88000000000E+00 0.  1.
        -11    1    4    4    0    0 -0.16681516820E-01  0.94777341557E-02 -0.19172286606E-01  0.27128179866E-01  0.51100000000E-03 0.  1.
         11    1    4    4    0    0 -0.75398366878E-01  0.56865272932E-01 -0.43408533142E-01  0.10393812998E+00  0.51100000000E-03 0. -1.
</event>
<event>
 8    1  0.1177602E+005  0.1043930E+01  0.7957747E-01            NaN
         13   -1    0    0    0    0  0.00000000000E+00  0.00000000000E+00  0.74505805969E-08  0.10566000000E+00  0.10566000000E+00 0. -1.
     999900   -1    0    0    0    0 -0.00000000000E+00 -0.00000000000E+00 -0.74505805969E-08  0.93827000000E+00  0.93827000000E+00 0. -1.
     999902    2    1    2    0    0  0.21697992496E-01 -0.91787492480E-02  0.26933334060E-02  0.10202170002E+01  0.10199413812E+01 0.  0.
     999903    2    3    3    0    0 -0.37162065672E-01  0.74010988956E-01 -0.96531816671E-01  0.12879640954E+00  0.20284917285E-01 0.  0.
         14    1    1    2    0    0 -0.21697992496E-01  0.91787492480E-02 -0.26933334060E-02  0.23712999830E-01  0.00000000000E+00 0.  1.
     999901    1    3    3    0    0  0.58860058168E-01 -0.83189738204E-01  0.99225150078E-01  0.89142059063E+00  0.88000000000E+00 0.  1.
        -11    1    4    4    0    0 -0.67153690810E-02  0.19917474237E-01 -0.38254720391E-01  0.43651881003E-01  0.51100000000E-03 0. -1.
         11    1    4    4    0    0 -0.30446696591E-01  0.54093514720E-01 -0.58277096280E-01  0.85144528538E-01  0.51100000000E-03 0.  1.
</event>
<event>
 8    1  0.1177602E+005  0.1043930E+01  0.7957747E-01            NaN
         13   -1    0    0    0    0  0.00000000000E+00  0.00000000000E+00  0.74505805969E-08  0.10566000000E+00  0.10566000000E+00 0. -1.
     999900   -1    0    0    0    0 -0.00000000000E+00 -0.00000000000E+00 -0.74505805969E-08  0.93827000000E+00  0.93827000000E+00 0.  1.
     999902    2    1    2    0    0 -0.17917975353E-01 -0.15182505789E-01  0.10817448353E-02  0.10204197364E+01  0.10201488646E+01 0.  0.
     999903    2    3    3    0    0 -0.57420462426E-01  0.17444014078E-01 -0.11588409207E+00  0.13120325922E+00  0.13556153705E-01 0.  0.
         14    1    1    2    0    0  0.17917975353E-01  0.15182505789E-01 -0.10817448353E-02  0.23510263602E-01  0.00000000000E+00 0. -1.
     999901    1    3    3    0    0  0.39502487073E-01 -0.32626519866E-01  0.11696583690E+00  0.88921647718E+00  0.88000000000E+00 0. -1.
        -11    1    4    4    0    0 -0.46423573649E-01  0.15185009124E-01 -0.81369621747E-01  0.94905264115E-01  0.51100000000E-03 0. -1.
         11    1    4    4    0    0 -0.10996888777E-01  0.22590049533E-02 -0.34514470320E-01  0.36297995105E-01  0.51100000000E-03 0.  1.
</event>
<event>
 8    1  0.1177602E+005  0.1043930E+01  0.7957747E-01            NaN
         13   -1    0    0    0    0  0.00000000000E+00  0.00000000000E+00  0.74505805969E-08  0.10566000000E+00  0.10566000000E+00 0.  1.
     999900   -1    0    0    0    0 -0.00000000000E+00 -0.00000000000E+00 -0.74505805969E-08  0.93827000000E+00  0.93827000000E+00 0. -1.
     999902    2    1    2    0    0  0.17364899901E-01 -0.11648214221E-01 -0.11006485105E-01  0.10203002866E+01  0.10200266229E+01 0.  0.
     999903    2    3    3    0    0  0.39021908812E-01  0.40469541759E-01 -0.11771694430E+00  0.13205909824E+00  0.20538580116E-01 0.  0.
         14    1    1    2    0    0 -0.17364899901E-01  0.11648214221E-01  0.11006485105E-01  0.23629713445E-01  0.00000000000E+00 0. -1.
     999901    1    3    3    0    0 -0.21657008911E-01 -0.52117755979E-01  0.10671045920E+00  0.88824118832E+00  0.88000000000E+00 0.  1.
        -11    1    4    4    0    0  0.82592070149E-02  0.53869936859E-03 -0.27394045932E-01  0.28621662618E-01  0.51100000000E-03 0. -1.
         11    1    4    4    0    0  0.30762701798E-01  0.39930842390E-01 -0.90322898372E-01  0.10343743562E+00  0.51100000000E-03 0.  1.
</event>
<event>
 8    1  0.1177602E+005  0.1043930E+01  0.7957747E-01            NaN
         13   -1    0    0    0    0  0.00000000000E+00  0.00000000000E+00  0.74505805969E-08  0.10566000000E+00  0.10566000000E+00 0.  1.
     999900   -1    0    0    0    0 -0.00000000000E+00 -0.00000000000E+00 -0.74505805969E-08  0.93827000000E+00  0.93827000000E+00 0.  1.
     999902    2    1    2    0    0  0.50518156993E-02  0.14331080561E-01 -0.19170039286E-01  0.10194679658E+01  0.10191744415E+01 0.  0.
     999903    2    3    3    0    0  0.72625602902E-01 -0.10388381471E+00 -0.14979074976E-01  0.12898576924E+00  0.18618024129E-01 0.  0.
         14    1    1    2    0    0 -0.50518156993E-02 -0.14331080561E-01  0.19170039286E-01  0.24462034219E-01  0.00000000000E+00 0.  1.
     999901    1    3    3    0    0 -0.67573787202E-01  0.11821489527E+00 -0.41909643104E-02  0.89048219654E+00  0.88000000000E+00 0.  1.
        -11    1    4    4    0    0  0.17522261609E-01 -0.18435925005E-01  0.33881569281E-02  0.25664249669E-01  0.51100000000E-03 0.  1.
         11    1    4    4    0    0  0.55103341292E-01 -0.85447889707E-01 -0.18367231904E-01  0.10332151957E+00  0.51100000000E-03 0. -1.
</event>
<event>
 8    1  0.1177602E+005  0.1043930E+01  0.7957747E-01            NaN
         13   -1    0    0    0    0  0.00000000000E+00  0.00000000000E+00  0.74505805969E-08  0.10566000000E+00  0.10566000000E+00 0.  1.
     999900   -1    0    0    0    0 -0.00000000000E+00 -0.00000000000E+00 -0.74505805969E-08  0.93827000000E+00  0.93827000000E+00 0. -1.
     999902    2    1    2    0    0 -0.22431387597E-01 -0.68987903628E-02 -0.45572795178E-02  0.10200233220E+01  0.10197431285E+01 0.  0.
     999903    2    3    3    0    0  0.11024807859E+00 -0.30550477355E-01  0.53390778603E-01  0.12787915173E+00  0.20360051788E-01 0.  0.
         14    1    1    2    0    0  0.22431387597E-01  0.68987903628E-02  0.45572795178E-02  0.23906678034E-01  0.00000000000E+00 0.  1.
     999901    1    3    3    0    0 -0.13267946618E+00  0.23651686992E-01 -0.57948058120E-01  0.89214417024E+00  0.88000000000E+00 0. -1.
        -11    1    4    4    0    0  0.83416270656E-01 -0.24301174069E-01  0.49651943403E-01  0.10007196349E+00  0.51100000000E-03 0.  1.
         11    1    4    4    0    0  0.26831807932E-01 -0.62493032858E-02  0.37388351999E-02  0.27807188245E-01  0.51100000000E-03 0. -1.
</event>
<event>
 8    1  0.1177602E+005  0.1043930E+01  0.7957747E-01            NaN
         13   -1    0    0    0    0  0.00000000000E+00  0.00000000000E+00  0.74505805969E-08  0.10566000000E+00  0.10566000000E+00 0.  1.
     999900   -1    0    0    0    0 -0.00000000000E+00 -0.00000000000E+00 -0.74505805969E-08  0.93827000000E+00  0.93827000000E+00 0. -1.
     999902    2    1    2    0    0 -0.11254677837E-01  0.19768044867E-01 -0.67670588078E-02  0.10201973968E+01  0.10199213165E+01 0.  0.
     999903    2    3    3    0    0  0.69187096700E-01  0.47951317289E-01 -0.98752938275E-01  0.13130675223E+00  0.20078276404E-01 0.  0.
         14    1    1    2    0    0  0.11254677837E-01 -0.19768044867E-01  0.67670588078E-02  0.23732603228E-01  0.00000000000E+00 0. -1.
     999901    1    3    3    0    0 -0.80441774537E-01 -0.28183272422E-01  0.91985879467E-01  0.88889064454E+00  0.88000000000E+00 0.  1.
        -11    1    4    4    0    0  0.46399388090E-01  0.42010556209E-01 -0.77117821958E-01  0.99323761672E-01  0.51100000000E-03 0. -1.
         11    1    4    4    0    0  0.22787708610E-01  0.59407610799E-02 -0.21635116317E-01  0.31982990556E-01  0.51100000000E-03 0.  1.
</event>
<event>
 8    1  0.1177602E+005  0.1043930E+01  0.7957747E-01            NaN
         13   -1    0    0    0    0  0.00000000000E+00  0.00000000000E+00  0.74505805969E-08  0.10566000000E+00  0.10566000000E+00 0. -1.
     999900   -1    0    0    0    0 -0.00000000000E+00 -0.00000000000E+00 -0.74505805969E-08  0.93827000000E+00  0.93827000000E+00 0.  1.
     999902    2    1    2    0    0 -0.77396459170E-02 -0.14574912326E-01 -0.15235112721E-01  0.10214702839E+01  0.10212233360E+01 0.  0.
     999903    2    3    3    0    0  0.20357830069E-01  0.12556866248E+00  0.14232213349E-01  0.12945121850E+00  0.19316620578E-01 0.  0.
         14    1    1    2    0    0  0.77396459170E-02  0.14574912326E-01  0.15235112721E-01  0.22459716112E-01  0.00000000000E+00 0.  1.
     999901    1    3    3    0    0 -0.28097475986E-01 -0.14014357481E+00 -0.29467326070E-01  0.89201906539E+00  0.88000000000E+00 0.  1.
        -11    1    4    4    0    0  0.15386964511E-01  0.53984534793E-01 -0.76665553639E-03  0.56142119263E-01  0.51100000000E-03 0.  1.
         11    1    4    4    0    0  0.49708655583E-02  0.71584127689E-01  0.14998868885E-01  0.73309099233E-01  0.51100000000E-03 0. -1.
</event>
<event>
 8    1  0.1177602E+005  0.1043930E+01  0.7957747E-01            NaN
         13   -1    0    0    0    0  0.00000000000E+00  0.00000000000E+00  0.74505805969E-08  0.10566000000E+00  0.10566000000E+00 0.  1.
     999900   -1    0    0    0    0 -0.00000000000E+00 -0.00000000000E+00 -0.74505805969E-08  0.93827000000E+00  0.93827000000E+00 0. -1.
     999902    2    1    2    0    0  0.22965358164E-02  0.10775299622E-01 -0.21425721250E-01  0.10198376217E+01  0.10195530060E+01 0.  0.
     999903    2    3    3    0    0 -0.80036071522E-01  0.73974430750E-01 -0.72222804631E-01  0.13228304197E+00  0.20116673055E-01 0.  0.
         14    1    1    2    0    0 -0.22965358164E-02 -0.10775299622E-01  0.21425721250E-01  0.24092378251E-01  0.00000000000E+00 0.  1.
     999901    1    3    3    0    0  0.82332607338E-01 -0.63199131128E-01  0.50797083382E-01  0.88755457978E+00  0.88000000000E+00 0.  1.
        -11    1    4    4    0    0 -0.56695281117E-01  0.43850294414E-01 -0.55557257130E-01  0.90686675768E-01  0.51100000000E-03 0. -1.
         11    1    4    4    0    0 -0.23340790405E-01  0.30124136336E-01 -0.16665547501E-01  0.41596366202E-01  0.51100000000E-03 0.  1.
</event>
<event>
 8    1  0.1177602E+005  0.1043930E+01  0.7957747E-01            NaN
         13   -1    0    0    0    0  0.00000000000E+00  0.00000000000E+00  0.74505805969E-08  0.10566000000E+00  0.10566000000E+00 0.  1.
     999900   -1    0    0    0    0 -0.00000000000E+00 -0.00000000000E+00 -0.74505805969E-08  0.93827000000E+00  0.93827000000E+00 0.  1.
     999902    2    1    2    0    0  0.14274541989E-01 -0.12706224057E-01 -0.12028008786E-01  0.10213493961E+01  0.10210997528E+01 0.  0.
     999903    2    3    3    0    0 -0.36147922243E-01 -0.80661560129E-01  0.94526286228E-01  0.13089211445E+00  0.19610386814E-01 0.  0.
         14    1    1    2    0    0 -0.14274541989E-01  0.12706224057E-01  0.12028008786E-01  0.22580603937E-01  0.00000000000E+00 0.  1.
     999901    1    3    3    0    0  0.50422464232E-01  0.67955336071E-01 -0.10655429501E+00  0.89045728162E+00  0.88000000000E+00 0.  1.
        -11    1    4    4    0    0 -0.27276251151E-01 -0.75453716101E-01  0.83285461528E-01  0.11564595269E+00  0.51100000000E-03 0.  1.
         11    1    4    4    0    0 -0.88716710913E-02 -0.52078440275E-02  0.11240824701E-01  0.15246161757E-01  0.51100000000E-03 0. -1.
</event>
<event>
 8    1  0.1177602E+005  0.1043930E+01  0.7957747E-01            NaN
         13   -1    0    0    0    0  0.00000000000E+00  0.00000000000E+00  0.74505805969E-08  0.10566000000E+00  0.10566000000E+00 0.  1.
     999900   -1    0    0    0    0 -0.00000000000E+00 -0.00000000000E+00 -0.74505805969E-08  0.93827000000E+00  0.93827000000E+00 0.  1.
     999902    2    1    2    0    0  0.85145042649E-02  0.14252718875E-01 -0.17543731421E-01  0.10197759260E+01  0.10194898332E+01 0.  0.
     999903    2    3    3    0    0  0.12628238292E+00  0.13091352342E-01 -0.29658077440E-01  0.13184722426E+00  0.19633268837E-01 0.  0.
         14    1    1    2    0    0 -0.85145042649E-02 -0.14252718875E-01  0.17543731421E-01  0.24154073991E-01  0.00000000000E+00 0.  1.
     999901    1    3    3    0    0 -0.11776787865E+00  0.11613665328E-02  0.12114346019E-01  0.88792870175E+00  0.88000000000E+00 0.  1.
        -11    1    4    4    0    0  0.67096937970E-01  0.88633898000E-02 -0.59320616547E-02  0.67941219007E-01  0.51100000000E-03 0.  1.
         11    1    4    4    0    0  0.59185444948E-01  0.42279625424E-02 -0.23726015785E-01  0.63906005250E-01  0.51100000000E-03 0. -1.
</event>
<event>
 8    1  0.1177602E+005  0.1043930E+01  0.7957747E-01            NaN
         13   -1    0    0    0    0  0.00000000000E+00  0.00000000000E+00  0.74505805969E-08  0.10566000000E+00  0.10566000000E+00 0. -1.
     999900   -1    0    0    0    0 -0.00000000000E+00 -0.00000000000E+00 -0.74505805969E-08  0.93827000000E+00  0.93827000000E+00 0.  1.
     999902    2    1    2    0    0 -0.49972872366E-02  0.21854611178E-01  0.84287489405E-02  0.10199792021E+01  0.10196979612E+01 0.  0.
     999903    2    3    3    0    0  0.23079989303E-01  0.77343793850E-01 -0.10116954781E+00  0.13100272917E+00  0.20290127949E-01 0.  0.
         14    1    1    2    0    0  0.49972872366E-02 -0.21854611178E-01 -0.84287489405E-02  0.23950797860E-01  0.00000000000E+00 0.  1.
     999901    1    3    3    0    0 -0.28077276539E-01 -0.55489182673E-01  0.10959829675E+00  0.88897647297E+00  0.88000000000E+00 0. -1.
        -11    1    4    4    0    0  0.35354630716E-02  0.93558682184E-02 -0.39429446299E-02  0.10762885422E-01  0.51100000000E-03 0.  1.
         11    1    4    4    0    0  0.19544526231E-01  0.67987925632E-01 -0.97226603176E-01  0.12023984374E+00  0.51100000000E-03 0. -1.
</event>
<event>
 7    1  0.1177602E+005  0.1043930E+01  0.7957747E-01            NaN
         13   -1    0    0    0    0  0.00000000000E+00  0.00000000000E+00  0.74505805969E-08  0.10566000000E+00  0.10566000000E+00 0. -1.
     999900   -1    0    0    0    0 -0.00000000000E+00 -0.00000000000E+00 -0.74505805969E-08  0.93827000000E+00  0.93827000000E+00 0.  1.
     999903    2    1    2    0    0 -0.35150777260E-01 -0.14417563794E-01 -0.79071150603E-01  0.89967117801E-01  0.19959763026E-01 0.  0.
         14    1    1    2    0    0 -0.64033188746E-01 -0.42902518395E-02  0.14823639799E-01  0.65866499973E-01  0.00000000000E+00 0.  1.
     999901    1    1    2    0    0  0.99183966006E-01  0.18707815634E-01  0.64247510804E-01  0.88809638223E+00  0.88000000000E+00 0. -1.
        -11    1    3    3    0    0 -0.26044277803E-01 -0.17225901607E-02 -0.38766358405E-01  0.46737173515E-01  0.51100000000E-03 0. -1.
         11    1    3    3    0    0 -0.91064994574E-02 -0.12694973634E-01 -0.40304792197E-01  0.43229944286E-01  0.51100000000E-03 0.  1.
</event>
<event>
 8    1  0.1177602E+005  0.1043930E+01  0.7957747E-01            NaN
         13   -1    0    0    0    0  0.00000000000E+00  0.00000000000E+00  0.74505805969E-08  0.10566000000E+00  0.10566000000E+00 0.  1.
     999900   -1    0    0    0    0 -0.00000000000E+00 -0.00000000000E+00 -0.74505805969E-08  0.93827000000E+00  0.93827000000E+00 0.  1.
     999902    2    1    2    0    0  0.80308702875E-03  0.17851461746E-01  0.10580510923E-01  0.10231630347E+01  0.10229522612E+01 0.  0.
     999903    2    3    3    0    0 -0.48549294066E-01 -0.44912147193E-01  0.11427523882E+00  0.13348470818E+00  0.19626568503E-01 0.  0.
         14    1    1    2    0    0 -0.80308702875E-03 -0.17851461746E-01 -0.10580510923E-01  0.20766965272E-01  0.00000000000E+00 0. -1.
     999901    1    3    3    0    0  0.49352381095E-01  0.62763608938E-01 -0.10369472790E+00  0.88967832654E+00  0.88000000000E+00 0.  1.
        -11    1    4    4    0    0 -0.91872909551E-02 -0.20074897442E-01  0.30625492289E-01  0.37756982418E-01  0.51100000000E-03 0. -1.
         11    1    4    4    0    0 -0.39362003111E-01 -0.24837249751E-01  0.83649746534E-01  0.95727725766E-01  0.51100000000E-03 0.  1.
</event>
<event>
 8    1  0.1177602E+005  0.1043930E+01  0.7957747E-01            NaN
         13   -1    0    0    0    0  0.00000000000E+00  0.00000000000E+00  0.74505805969E-08  0.10566000000E+00  0.10566000000E+00 0.  1.
     999900   -1    0    0    0    0 -0.00000000000E+00 -0.00000000000E+00 -0.74505805969E-08  0.93827000000E+00  0.93827000000E+00 0. -1.
     999902    2    1    2    0    0  0.10616937930E-01 -0.17897671661E-01  0.11635071179E-01  0.10200884207E+01  0.10198097691E+01 0.  0.
     999903    2    3    3    0    0  0.48287460538E-01  0.89971813810E-01 -0.74754371189E-01  0.12850666342E+00  0.22341450416E-01 0.  0.
         14    1    1    2    0    0 -0.10616937930E-01  0.17897671661E-01 -0.11635071179E-01  0.23841579294E-01  0.00000000000E+00 0. -1.
     999901    1    3    3    0    0 -0.37670522608E-01 -0.10786948547E+00  0.86389442367E-01  0.89158175728E+00  0.88000000000E+00 0.  1.
        -11    1    4    4    0    0  0.28732551121E-01  0.34715480236E-01 -0.24495007955E-01  0.51293182760E-01  0.51100000000E-03 0. -1.
         11    1    4    4    0    0  0.19554909417E-01  0.55256333573E-01 -0.50259363233E-01  0.77213480662E-01  0.51100000000E-03 0.  1.
</event>
<event>
 8    1  0.1177602E+005  0.1043930E+01  0.7957747E-01            NaN
         13   -1    0    0    0    0  0.00000000000E+00  0.00000000000E+00  0.74505805969E-08  0.10566000000E+00  0.10566000000E+00 0.  1.
     999900   -1    0    0    0    0 -0.00000000000E+00 -0.00000000000E+00 -0.74505805969E-08  0.93827000000E+00  0.93827000000E+00 0. -1.
     999902    2    1    2    0    0  0.10167545291E-01 -0.22962437030E-01  0.91974995393E-02  0.10171859074E+01  0.10168342656E+01 0.  0.
     999903    2    3    3    0    0 -0.11947031131E+00 -0.24320524705E-01  0.30421391987E-01  0.12743410387E+00  0.21197795435E-01 0.  0.
         14    1    1    2    0    0 -0.10167545291E-01  0.22962437030E-01 -0.91974995393E-02  0.26744092607E-01  0.00000000000E+00 0.  1.
     999901    1    3    3    0    0  0.12963785660E+00  0.13580876752E-02 -0.21223892447E-01  0.88975180353E+00  0.88000000000E+00 0. -1.
        -11    1    4    4    0    0 -0.22657930018E-01 -0.50998894612E-02 -0.25489345503E-02  0.23369827846E-01  0.51100000000E-03 0. -1.
         11    1    4    4    0    0 -0.96812381294E-01 -0.19220635244E-01  0.32970326537E-01  0.10406427602E+00  0.51100000000E-03 0.  1.
</event>
<event>
 8    1  0.1177602E+005  0.1043930E+01  0.7957747E-01            NaN
         13   -1    0    0    0    0  0.00000000000E+00  0.00000000000E+00  0.74505805969E-08  0.10566000000E+00  0.10566000000E+00 0.  1.
     999900   -1    0    0    0    0 -0.00000000000E+00 -0.00000000000E+00 -0.74505805969E-08  0.93827000000E+00  0.93827000000E+00 0. -1.
     999902    2    1    2    0    0 -0.12865726705E-01  0.10250968465E-01 -0.16713172641E-01  0.10204792129E+01  0.10202097257E+01 0.  0.
     999903    2    3    3    0    0 -0.64302878655E-01  0.58396062291E-01  0.95540609856E-01  0.13055525973E+00  0.19279715156E-01 0.  0.
         14    1    1    2    0    0  0.12865726705E-01 -0.10250968465E-01  0.16713172641E-01  0.23450787148E-01  0.00000000000E+00 0.  1.
     999901    1    3    3    0    0  0.51437151949E-01 -0.48145093826E-01 -0.11225378250E+00  0.88992395312E+00  0.88000000000E+00 0. -1.
        -11    1    4    4    0    0 -0.19677771091E-01  0.30407405892E-01  0.41565805156E-01  0.55134402032E-01  0.51100000000E-03 0. -1.
         11    1    4    4    0    0 -0.44625107563E-01  0.27988656398E-01  0.53974804700E-01  0.75420857695E-01  0.51100000000E-03 0.  1.
</event>
<event>
 8    1  0.1177602E+005  0.1043930E+01  0.7957747E-01            NaN
         13   -1    0    0    0    0  0.00000000000E+00  0.00000000000E+00  0.74505805969E-08  0.10566000000E+00  0.10566000000E+00 0.  1.
     999900   -1    0    0    0    0 -0.00000000000E+00 -0.00000000000E+00 -0.74505805969E-08  0.93827000000E+00  0.93827000000E+00 0. -1.
     999902    2    1    2    0    0  0.54469708287E-02  0.44989938707E-02 -0.22680652458E-01  0.10201745284E+01  0.10198979095E+01 0.  0.
     999903    2    3    3    0    0  0.94782006744E-01 -0.58138490350E-01 -0.68648455074E-01  0.13224590400E+00  0.20313933116E-01 0.  0.
         14    1    1    2    0    0 -0.54469708287E-02 -0.44989938707E-02  0.22680652458E-01  0.23755471643E-01  0.00000000000E+00 0.  1.
     999901    1    3    3    0    0 -0.89335035915E-01  0.62637484221E-01  0.45967802616E-01  0.88792862435E+00  0.88000000000E+00 0.  1.
        -11    1    4    4    0    0  0.64751833654E-01 -0.38641835966E-01 -0.35093947413E-01  0.83173539749E-01  0.51100000000E-03 0.  1.
         11    1    4    4    0    0  0.30030173090E-01 -0.19496654384E-01 -0.33554507661E-01  0.49072364253E-01  0.51100000000E-03 0. -1.
</event>
<event>
 8    1  0.1177602E+005  0.1043930E+01  0.7957747E-01            NaN
         13   -1    0    0    0    0  0.00000000000E+00  0.00000000000E+00  0.74505805969E-08  0.10566000000E+00  0.10566000000E+00 0. -1.
     999900   -1    0    0    0    0 -0.00000000000E+00 -0.00000000000E+00 -0.74505805969E-08  0.93827000000E+00  0.93827000000E+00 0. -1.
     999902    2    1    2    0    0 -0.19470030665E-01  0.14431465727E-01  0.21212376904E-02  0.10196020542E+01  0.10193117776E+01 0.  0.
     999903    2    3    3    0    0 -0.22423818438E-01 -0.12511011845E+00 -0.12245081269E-02  0.12859600900E+00  0.19495249152E-01 0.  0.
         14    1    1    2    0    0  0.19470030665E-01 -0.14431465727E-01 -0.21212376904E-02  0.24327945792E-01  0.00000000000E+00 0. -1.
     999901    1    3    3    0    0  0.29537877725E-02  0.13954158418E+00  0.33457458172E-02  0.89100604520E+00  0.88000000000E+00 0. -1.
        -11    1    4    4    0    0 -0.21291011923E-01 -0.75628509761E-01 -0.63932934314E-02  0.78829651777E-01  0.51100000000E-03 0. -1.
         11    1    4    4    0    0 -0.11328065148E-02 -0.49481608688E-01  0.51687853045E-02  0.49766357225E-01  0.51100000000E-03 0.  1.
</event>
<event>
 8    1  0.1177602E+005  0.1043930E+01  0.7957747E-01            NaN
         13   -1    0    0    0    0  0.00000000000E+00  0.00000000000E+00  0.74505805969E-08  0.10566000000E+00  0.10566000000E+00 0.  1.
     999900   -1    0    0    0    0 -0.00000000000E+00 -0.00000000000E+00 -0.74505805969E-08  0.93827000000E+00  0.93827000000E+00 0. -1.
     999902    2    1    2    0    0  0.58274338039E-02 -0.13526417645E-01 -0.17959182450E-01  0.10207038253E+01  0.10204395346E+01 0.  0.
     999903    2    3    3    0    0 -0.67332442128E-01  0.50525928236E-01 -0.98849042801E-01  0.13166038426E+00  0.21835666580E-01 0.  0.
         14    1    1    2    0    0 -0.58274338039E-02  0.13526417645E-01  0.17959182450E-01  0.23226174746E-01  0.00000000000E+00 0.  1.
     999901    1    3    3    0    0  0.73159875932E-01 -0.64052345881E-01  0.80889860350E-01  0.88904344099E+00  0.88000000000E+00 0. -1.
        -11    1    4    4    0    0 -0.39051237442E-01  0.17265716489E-01 -0.56633079964E-01  0.70927223115E-01  0.51100000000E-03 0.  1.
         11    1    4    4    0    0 -0.28281204686E-01  0.33260211746E-01 -0.42215962837E-01  0.60733161149E-01  0.51100000000E-03 0. -1.
</event>
<event>
 8    1  0.1177602E+005  0.1043930E+01  0.7957747E-01            NaN
         13   -1    0    0    0    0  0.00000000000E+00  0.00000000000E+00  0.74505805969E-08  0.10566000000E+00  0.10566000000E+00 0. -1.
     999900   -1    0    0    0    0 -0.00000000000E+00 -0.00000000000E+00 -0.74505805969E-08  0.93827000000E+00  0.93827000000E+00 0. -1.
     999902    2    1    2    0    0  0.23742732197E-02  0.18290562683E-01 -0.14516442212E-01  0.10204585503E+01  0.10201885825E+01 0.  0.
     999903    2    3    3    0    0  0.37869871279E-01 -0.10987703176E+00  0.50124122915E-01  0.12812157784E+00  0.19890242624E-01 0.  0.
         14    1    1    2    0    0 -0.23742732197E-02 -0.18290562683E-01  0.14516442212E-01  0.23471449701E-01  0.00000000000E+00 0. -1.
     999901    1    3    3    0    0 -0.35495598059E-01  0.12816759445E+00 -0.64640565127E-01  0.89233697245E+00  0.88000000000E+00 0.  1.
        -11    1    4    4    0    0  0.25207514073E-01 -0.94117013513E-01  0.38281119520E-01  0.10468589318E+00  0.51100000000E-03 0.  1.
         11    1    4    4    0    0  0.12662357205E-01 -0.15760018250E-01  0.11843003395E-01  0.23435684664E-01  0.51100000000E-03 0. -1.
</event>
<event>
 8    1  0.1177602E+005  0.1043930E+01  0.7957747E-01            NaN
         13   -1    0    0    0    0  0.00000000000E+00  0.00000000000E+00  0.74505805969E-08  0.10566000000E+00  0.10566000000E+00 0.  1.
     999900   -1    0    0    0    0 -0.00000000000E+00 -0.00000000000E+00 -0.74505805969E-08  0.93827000000E+00  0.93827000000E+00 0.  1.
     999902    2    1    2    0    0 -0.12052039680E-01 -0.59613531315E-02 -0.19358517267E-01  0.10203600704E+01  0.10200878058E+01 0.  0.
     999903    2    3    3    0    0  0.24339854698E-01  0.40903979687E-01 -0.12191305460E+00  0.13241966555E+00  0.20164594259E-01 0.  0.
         14    1    1    2    0    0  0.12052039680E-01  0.59613531315E-02  0.19358517267E-01  0.23569929622E-01  0.00000000000E+00 0.  1.
     999901    1    3    3    0    0 -0.36391894378E-01 -0.46865332818E-01  0.10255453733E+00  0.88794040483E+00  0.88000000000E+00 0. -1.
        -11    1    4    4    0    0  0.23653401539E-01  0.29022882928E-01 -0.72589112414E-01  0.81677729522E-01  0.51100000000E-03 0.  1.
         11    1    4    4    0    0  0.68645315884E-03  0.11881096759E-01 -0.49323942186E-01  0.50741936029E-01  0.51100000000E-03 0. -1.
</event>
<event>
 8    1  0.1177602E+005  0.1043930E+01  0.7957747E-01            NaN
         13   -1    0    0    0    0  0.00000000000E+00  0.00000000000E+00  0.74505805969E-08  0.10566000000E+00  0.10566000000E+00 0. -1.
     999900   -1    0    0    0    0 -0.00000000000E+00 -0.00000000000E+00 -0.74505805969E-08  0.93827000000E+00  0.93827000000E+00 0.  1.
     999902    2    1    2    0    0  0.20642221411E-01  0.69000283437E-02 -0.11598139099E-01  0.10192677104E+01  0.10189693013E+01 0.  0.
     999903    2    3    3    0    0  0.52691361121E-01  0.11702606876E+00 -0.11634968633E-01  0.13182481453E+00  0.27765606868E-01 0.  0.
         14    1    1    2    0    0 -0.20642221411E-01 -0.69000283437E-02  0.11598139099E-01  0.24662289563E-01  0.00000000000E+00 0. -1.
     999901    1    3    3    0    0 -0.32049139709E-01 -0.11012604042E+00  0.36829534580E-04  0.88744289590E+00  0.88000000000E+00 0. -1.
        -11    1    4    4    0    0  0.23867450381E-01  0.65636074705E-01 -0.19158242052E-01  0.72422709491E-01  0.51100000000E-03 0.  1.
         11    1    4    4    0    0  0.28823910740E-01  0.51389994057E-01  0.75232734190E-02  0.59402105042E-01  0.51100000000E-03 0. -1.
</event>
<event>
 8    1  0.1177602E+005  0.1043930E+01  0.7957747E-01            NaN
         13   -1    0    0    0    0  0.00000000000E+00  0.00000000000E+00  0.74505805969E-08  0.10566000000E+00  0.10566000000E+00 0. -1.
     999900   -1    0    0    0    0 -0.00000000000E+00 -0.00000000000E+00 -0.74505805969E-08  0.93827000000E+00  0.93827000000E+00 0. -1.
     999902    2    1    2    0    0 -0.19837759439E-02  0.15960457032E-01 -0.16890703677E-01  0.10206068907E+01  0.10203403638E+01 0.  0.
     999903    2    3    3    0    0  0.25301589531E-01  0.64820705151E-01  0.10810879685E+00  0.13001344243E+00  0.19341380666E-01 0.  0.
         14    1    1    2    0    0  0.19837759439E-02 -0.15960457032E-01  0.16890703677E-01  0.23323109278E-01  0.00000000000E+00 0. -1.
     999901    1    3    3    0    0 -0.27285365475E-01 -0.48860248119E-01 -0.12499950053E+00  0.89059344830E+00  0.88000000000E+00 0. -1.
        -11    1    4    4    0    0  0.13838413692E-01  0.37766304091E-01  0.44752519707E-01  0.60173453942E-01  0.51100000000E-03 0.  1.
         11    1    4    4    0    0  0.11463175839E-01  0.27054401060E-01  0.63356277143E-01  0.69839988485E-01  0.51100000000E-03 0. -1.
</event>
<event>
 8    1  0.1177602E+005  0.1043930E+01  0.7957747E-01            NaN
         13   -1    0    0    0    0  0.00000000000E+00  0.00000000000E+00  0.74505805969E-08  0.10566000000E+00  0.10566000000E+00 0. -1.
     999900   -1    0    0    0    0 -0.00000000000E+00 -0.00000000000E+00 -0.74505805969E-08  0.93827000000E+00  0.93827000000E+00 0. -1.
     999902    2    1    2    0    0  0.16461885189E-01 -0.14305587106E-01  0.51439210404E-02  0.10215223359E+01  0.10212765440E+01 0.  0.
     999903    2    3    3    0    0  0.52736536802E-01  0.11244705424E+00 -0.35852646598E-01  0.13075704640E+00  0.19659872674E-01 0.  0.
         14    1    1    2    0    0 -0.16461885189E-01  0.14305587106E-01 -0.51439210404E-02  0.22407664093E-01  0.00000000000E+00 0.  1.
     999901    1    3    3    0    0 -0.36274651613E-01 -0.12675264134E+00  0.40996567638E-01  0.89076528951E+00  0.88000000000E+00 0.  1.
        -11    1    4    4    0    0  0.26395153405E-01  0.61574030798E-01 -0.93884238989E-02  0.67649604702E-01  0.51100000000E-03 0. -1.
         11    1    4    4    0    0  0.26341383397E-01  0.50873023441E-01 -0.26464222699E-01  0.63107441695E-01  0.51100000000E-03 0.  1.
</event>
<event>
 8    1  0.1177602E+005  0.1043930E+01  0.7957747E-01            NaN
         13   -1    0    0    0    0  0.00000000000E+00  0.00000000000E+00  0.74505805969E-08  0.10566000000E+00  0.10566000000E+00 0.  1.
     999900   -1    0    0    0    0 -0.00000000000E+00 -0.00000000000E+00 -0.74505805969E-08  0.93827000000E+00  0.93827000000E+00 0. -1.
     999902    2    1    2    0    0 -0.68607947027E-02  0.28438191552E-02 -0.19863301626E-01  0.10227236669E+01  0.10225037850E+01 0.  0.
     999903    2    3    3    0    0 -0.64845853817E-02  0.12403657595E+00  0.41052116582E-01  0.13233132979E+00  0.19979553277E-01 0.  0.
         14    1    1    2    0    0  0.68607947027E-02 -0.28438191552E-02  0.19863301626E-01  0.21206333083E-01  0.00000000000E+00 0.  1.
     999901    1    3    3    0    0 -0.37620932092E-03 -0.12119275679E+00 -0.60915418208E-01  0.89039233712E+00  0.88000000000E+00 0. -1.
        -11    1    4    4    0    0  0.12271765807E-02  0.10077844123E+00  0.37639654601E-01  0.10758626724E+00  0.51100000000E-03 0. -1.
         11    1    4    4    0    0 -0.77117619624E-02  0.23258134712E-01  0.34124619809E-02  0.24745062551E-01  0.51100000000E-03 0.  1.
</event>
<event>
 7    1  0.1177602E+005  0.1043930E+01  0.7957747E-01            NaN
         13   -1    0    0    0    0  0.00000000000E+00  0.00000000000E+00  0.74505805969E-08  0.10566000000E+00  0.10566000000E+00 0. -1.
     999900   -1    0    0    0    0 -0.00000000000E+00 -0.00000000000E+00 -0.74505805969E-08  0.93827000000E+00  0.93827000000E+00 0.  1.
     999903    2    1    2    0    0 -0.28892383305E-01  0.25166459923E-01  0.83438438100E-01  0.94055281466E-01  0.20403492375E-01 0.  0.
         14    1    1    2    0    0 -0.24950196979E-01 -0.28596298080E-01  0.45054640539E-01  0.58908244137E-01  0.00000000000E+00 0. -1.
     999901    1    1    2    0    0  0.53842580284E-01  0.34298381573E-02 -0.12849307864E+00  0.89096647440E+00  0.88000000000E+00 0.  1.
        -11    1    3    3    0    0 -0.26164884411E-01  0.14722810163E-01  0.73406763249E-01  0.79310631866E-01  0.51100000000E-03 0. -1.
         11    1    3    3    0    0 -0.27274988946E-02  0.10443649760E-01  0.10031674851E-01  0.14744649600E-01  0.51100000000E-03 0.  1.
</event>
<event>
 8    1  0.1177602E+005  0.1043930E+01  0.7957747E-01            NaN
         13   -1    0    0    0    0  0.00000000000E+00  0.00000000000E+00  0.74505805969E-08  0.10566000000E+00  0.10566000000E+00 0. -1.
     999900   -1    0    0    0    0 -0.00000000000E+00 -0.00000000000E+00 -0.74505805969E-08  0.93827000000E+00  0.93827000000E+00 0.  1.
     999902    2    1    2    0    0  0.17181340449E-02 -0.62855564190E-02  0.23045084417E-01  0.10199813858E+01  0.10197001968E+01 0.  0.
     999903    2    3    3    0    0  0.83228706005E-01 -0.23309430904E-01  0.98989638756E-01  0.13279405446E+00  0.19104063591E-01 0.  0.
         14    1    1    2    0    0 -0.17181340449E-02  0.62855564190E-02 -0.23045084417E-01  0.23948614154E-01  0.00000000000E+00 0.  1.
     999901    1    3    3    0    0 -0.81510571960E-01  0.17023874485E-01 -0.75944554339E-01  0.88718733139E+00  0.88000000000E+00 0.  1.
        -11    1    4    4    0    0  0.72482917012E-01 -0.13660757744E-01  0.86635648658E-01  0.11378218797E+00  0.51100000000E-03 0. -1.
         11    1    4    4    0    0  0.10745788994E-01 -0.96486731599E-02  0.12353990098E-01  0.19011866484E-01  0.51100000000E-03 0.  1.
</event>
<event>
 8    1  0.1177602E+005  0.1043930E+01  0.7957747E-01            NaN
         13   -1    0    0    0    0  0.00000000000E+00  0.00000000000E+00  0.74505805969E-08  0.10566000000E+00  0.10566000000E+00 0.  1.
     999900   -1    0    0    0    0 -0.00000000000E+00 -0.00000000000E+00 -0.74505805969E-08  0.93827000000E+00  0.93827000000E+00 0.  1.
     999902    2    1    2    0    0 -0.98256351027E-02 -0.11862485953E-01 -0.28119577932E-01  0.10118679922E+01  0.10113599070E+01 0.  0.
     999903    2    3    3    0    0  0.29907089767E-01  0.10371383044E+00  0.44353872183E-01  0.12047078824E+00  0.29915751677E-01 0.  0.
         14    1    1    2    0    0  0.98256351027E-02  0.11862485953E-01  0.28119577932E-01  0.32062007754E-01  0.00000000000E+00 0.  1.
     999901    1    3    3    0    0 -0.39732724870E-01 -0.11557631639E+00 -0.72473450115E-01  0.89139720401E+00  0.88000000000E+00 0.  1.
        -11    1    4    4    0    0  0.21624908035E-01  0.89176137567E-01  0.47671121521E-01  0.10340607868E+00  0.51100000000E-03 0. -1.
         11    1    4    4    0    0  0.82821817318E-02  0.14537692874E-01 -0.33172493386E-02  0.17064709564E-01  0.51100000000E-03 0.  1.
</event>
<event>
 8    1  0.1177602E+005  0.1043930E+01  0.7957747E-01            NaN
         13   -1    0    0    0    0  0.00000000000E+00  0.00000000000E+00  0.74505805969E-08  0.10566000000E+00  0.10566000000E+00 0. -1.
     999900   -1    0    0    0    0 -0.00000000000E+00 -0.00000000000E+00 -0.74505805969E-08  0.93827000000E+00  0.93827000000E+00 0.  1.
     999902    2    1    2    0    0  0.24177573425E-02  0.22565556898E-01 -0.60939630614E-02  0.10204313555E+01  0.10201607545E+01 0.  0.
     999903    2    3    3    0    0  0.11919824732E+00  0.50210309196E-01  0.16927920307E-01  0.13198781631E+00  0.20122918669E-01 0.  0.
         14    1    1    2    0    0 -0.24177573425E-02 -0.22565556898E-01  0.60939630614E-02  0.23498644524E-01  0.00000000000E+00 0.  1.
     999901    1    3    3    0    0 -0.11678048997E+00 -0.27644752299E-01 -0.23021883368E-01  0.88844353916E+00  0.88000000000E+00 0. -1.
        -11    1    4    4    0    0  0.50653067005E-01  0.21022671577E-01 -0.28047527524E-02  0.54916424467E-01  0.51100000000E-03 0. -1.
         11    1    4    4    0    0  0.68545180313E-01  0.29187637619E-01  0.19732673059E-01  0.77071391845E-01  0.51100000000E-03 0.  1.
</event>
<event>
 8    1  0.1177602E+005  0.1043930E+01  0.7957747E-01            NaN
         13   -1    0    0    0    0  0.00000000000E+00  0.00000000000E+00  0.74505805969E-08  0.10566000000E+00  0.10566000000E+00 0.  1.
     999900   -1    0    0    0    0 -0.00000000000E+00 -0.00000000000E+00 -0.74505805969E-08  0.93827000000E+00  0.93827000000E+00 0. -1.
     999902    2    1    2    0    0 -0.61039598102E-02 -0.14429707210E-01 -0.17729516875E-01  0.10202696842E+01  0.10199953029E+01 0.  0.
     999903    2    3    3    0    0  0.52252240475E-01  0.11291824081E+00  0.23745550804E-01  0.12822533147E+00  0.19926331984E-01 0.  0.
         14    1    1    2    0    0  0.61039598102E-02  0.14429707210E-01  0.17729516875E-01  0.23660315808E-01  0.00000000000E+00 0.  1.
     999901    1    3    3    0    0 -0.58356200285E-01 -0.12734794802E+00 -0.41475067679E-01  0.89204435272E+00  0.88000000000E+00 0.  1.
        -11    1    4    4    0    0  0.73599311375E-02  0.37608803946E-01  0.66564315981E-02  0.38899356334E-01  0.51100000000E-03 0. -1.
         11    1    4    4    0    0  0.44892309338E-01  0.75309436864E-01  0.17089119206E-01  0.89325975140E-01  0.51100000000E-03 0.  1.
</event>
<event>
 8    1  0.1177602E+005  0.1043930E+01  0.7957747E-01            NaN
         13   -1    0    0    0    0  0.00000000000E+00  0.00000000000E+00  0.74505805969E-08  0.10566000000E+00  0.10566000000E+00 0.  1.
     999900   -1    0    0    0    0 -0.00000000000E+00 -0.00000000000E+00 -0.74505805969E-08  0.93827000000E+00  0.93827000000E+00 0.  1.
     999902    2    1    2    0    0 -0.15494693782E-02 -0.36487705321E-02  0.23411836147E-01  0.10201849278E+01  0.10199085540E+01 0.  0.
     999903    2    3    3    0    0  0.86903829395E-01 -0.86457604736E-01  0.43759132976E-01  0.13164944648E+00  0.19736313222E-01 0.  0.
         14    1    1    2    0    0  0.15494693782E-02  0.36487705321E-02 -0.23411836147E-01  0.23745072194E-01  0.00000000000E+00 0. -1.
     999901    1    3    3    0    0 -0.88453298773E-01  0.82808834204E-01 -0.20347296829E-01  0.88853548133E+00  0.88000000000E+00 0.  1.
        -11    1    4    4    0    0  0.44421933261E-01 -0.53162928362E-01  0.16679532873E-01  0.71260599524E-01  0.51100000000E-03 0. -1.
         11    1    4    4    0    0  0.42481896134E-01 -0.33294676374E-01  0.27079600103E-01  0.60388846957E-01  0.51100000000E-03 0.  1.
</event>
<event>
 8    1  0.1177602E+005  0.1043930E+01  0.7957747E-01            NaN
         13   -1    0    0    0    0  0.00000000000E+00  0.00000000000E+00  0.74505805969E-08  0.10566000000E+00  0.10566000000E+00 0. -1.
     999900   -1    0    0    0    0 -0.00000000000E+00 -0.00000000000E+00 -0.74505805969E-08  0.93827000000E+00  0.93827000000E+00 0.  1.
     999902    2    1    2    0    0  0.10886402055E-01  0.20822210137E-01 -0.75131166200E-03  0.10204216471E+01  0.10201508199E+01 0.  0.
     999903    2    3    3    0    0 -0.95725505254E-01 -0.34221679165E-01 -0.75550417523E-01  0.12913559050E+00  0.25172196280E-01 0.  0.
         14    1    1    2    0    0 -0.10886402055E-01 -0.20822210137E-01  0.75131166200E-03  0.23508352854E-01  0.00000000000E+00 0.  1.
     999901    1    3    3    0    0  0.10661190731E+00  0.55043889301E-01  0.74799105861E-01  0.89128605664E+00  0.88000000000E+00 0. -1.
        -11    1    4    4    0    0 -0.48256522131E-01 -0.25944913850E-01 -0.51846971716E-01  0.75433414877E-01  0.51100000000E-03 0. -1.
         11    1    4    4    0    0 -0.47468983123E-01 -0.82767653149E-02 -0.23703445806E-01  0.53702175625E-01  0.51100000000E-03 0.  1.
</event>
<event>
 8    1  0.1177602E+005  0.1043930E+01  0.7957747E-01            NaN
         13   -1    0    0    0    0  0.00000000000E+00  0.00000000000E+00  0.74505805969E-08  0.10566000000E+00  0.10566000000E+00 0.  1.
     999900   -1    0    0    0    0 -0.00000000000E+00 -0.00000000000E+00 -0.74505805969E-08  0.93827000000E+00  0.93827000000E+00 0.  1.
     999902    2    1    2    0    0 -0.40814998775E-02 -0.23508363371E-01 -0.17013797128E-02  0.10200093712E+01  0.10197288467E+01 0.  0.
     999903    2    3    3    0    0 -0.40807114168E-01  0.11876357894E+00  0.12926632368E-01  0.12770670110E+00  0.19284590521E-01 0.  0.
         14    1    1    2    0    0  0.40814998775E-02  0.23508363371E-01  0.17013797128E-02  0.23920628808E-01  0.00000000000E+00 0.  1.
     999901    1    3    3    0    0  0.36725614290E-01 -0.14227194231E+00 -0.14628012081E-01  0.89230267009E+00  0.88000000000E+00 0.  1.
        -11    1    4    4    0    0 -0.26631730582E-01  0.76108971513E-01  0.17534170131E-01  0.82519893734E-01  0.51100000000E-03 0.  1.
         11    1    4    4    0    0 -0.14175383586E-01  0.42654607430E-01 -0.46075377629E-02  0.45186807367E-01  0.51100000000E-03 0. -1.
</event>
<event>
 8    1  0.1177602E+005  0.1043930E+01  0.7957747E-01            NaN
         13   -1    0    0    0    0  0.00000000000E+00  0.00000000000E+00  0.74505805969E-08  0.10566000000E+00  0.10566000000E+00 0.  1.
     999900   -1    0    0    0    0 -0.00000000000E+00 -0.00000000000E+00 -0.74505805969E-08  0.93827000000E+00  0.93827000000E+00 0. -1.
     999902    2    1    2    0    0  0.87594279230E-03 -0.52432188752E-02  0.23673392650E-01  0.10196671036E+01  0.10193783959E+01 0.  0.
     999903    2    3    3    0    0 -0.84581683946E-02  0.41143796155E-01 -0.11853355971E+00  0.12699600067E+00  0.17703864890E-01 0.  0.
         14    1    1    2    0    0 -0.87594279230E-03  0.52432188752E-02 -0.23673392650E-01  0.24262896355E-01  0.00000000000E+00 0. -1.
     999901    1    3    3    0    0  0.93341111869E-02 -0.46387015030E-01  0.14220695236E+00  0.89267110298E+00  0.88000000000E+00 0.  1.
        -11    1    4    4    0    0 -0.56794867338E-02  0.20171225921E-01 -0.83288894167E-01  0.85886180130E-01  0.51100000000E-03 0.  1.
         11    1    4    4    0    0 -0.27786816608E-02  0.20972570234E-01 -0.35244665546E-01  0.41109820535E-01  0.51100000000E-03 0. -1.
</event>
<event>
 8    1  0.1177602E+005  0.1043930E+01  0.7957747E-01            NaN
         13   -1    0    0    0    0  0.00000000000E+00  0.00000000000E+00  0.74505805969E-08  0.10566000000E+00  0.10566000000E+00 0. -1.
     999900   -1    0    0    0    0 -0.00000000000E+00 -0.00000000000E+00 -0.74505805969E-08  0.93827000000E+00  0.93827000000E+00 0.  1.
     999902    2    1    2    0    0  0.18219822518E-01 -0.15379962860E-01 -0.12221054363E-02  0.10200553538E+01  0.10197759195E+01 0.  0.
     999903    2    3    3    0    0  0.16188848127E-01  0.10111972857E+00  0.76054718668E-01  0.12901775048E+00  0.19338598631E-01 0.  0.
         14    1    1    2    0    0 -0.18219822518E-01  0.15379962860E-01  0.12221054363E-02  0.23874646214E-01  0.00000000000E+00 0. -1.
     999901    1    3    3    0    0  0.20309743909E-02 -0.11649969143E+00 -0.77276824105E-01  0.89103760331E+00  0.88000000000E+00 0.  1.
        -11    1    4    4    0    0 -0.13426125515E-02  0.22744954204E-01  0.94188435290E-02  0.24659912502E-01  0.51100000000E-03 0. -1.
         11    1    4    4    0    0  0.17531460678E-01  0.78374774369E-01  0.66635875139E-01  0.10435783798E+00  0.51100000000E-03 0.  1.
</event>
<event>
 8    1  0.1177602E+005  0.1043930E+01  0.7957747E-01            NaN
         13   -1    0    0    0    0  0.00000000000E+00  0.00000000000E+00  0.74505805969E-08  0.10566000000E+00  0.10566000000E+00 0.  1.
     999900   -1    0    0    0    0 -0.00000000000E+00 -0.00000000000E+00 -0.74505805969E-08  0.93827000000E+00  0.93827000000E+00 0.  1.
     999902    2    1    2    0    0 -0.23551208924E-01  0.91829777259E-02  0.48739073664E-02  0.10181862339E+01  0.10178607298E+01 0.  0.
     999903    2    3    3    0    0  0.73203991292E-01  0.42174628058E-01  0.93825952374E-01  0.12781412959E+00  0.19890168212E-01 0.  0.
         14    1    1    2    0    0  0.23551208924E-01 -0.91829777259E-02 -0.48739073664E-02  0.25743766133E-01  0.00000000000E+00 0. -1.
     999901    1    3    3    0    0 -0.96755200216E-01 -0.32991650332E-01 -0.88952045007E-01  0.89037210428E+00  0.88000000000E+00 0.  1.
        -11    1    4    4    0    0  0.55156591290E-02  0.44221816834E-02  0.18172797990E-01  0.19506150165E-01  0.51100000000E-03 0. -1.
         11    1    4    4    0    0  0.67688332163E-01  0.37752446374E-01  0.75653154384E-01  0.10830797943E+00  0.51100000000E-03 0.  1.
</event>
<event>
 8    1  0.1177602E+005  0.1043930E+01  0.7957747E-01            NaN
         13   -1    0    0    0    0  0.00000000000E+00  0.00000000000E+00  0.74505805969E-08  0.10566000000E+00  0.10566000000E+00 0.  1.
     999900   -1    0    0    0    0 -0.00000000000E+00 -0.00000000000E+00 -0.74505805969E-08  0.93827000000E+00  0.93827000000E+00 0. -1.
     999902    2    1    2    0    0  0.33289591378E-02  0.66404020187E-02 -0.19940871450E-01  0.10226505437E+01  0.10224291267E+01 0.  0.
     999903    2    3    3    0    0 -0.47764620457E-02  0.83668242060E-01  0.98930858828E-01  0.13128671544E+00  0.20632438165E-01 0.  0.
         14    1    1    2    0    0 -0.33289591378E-02 -0.66404020187E-02  0.19940871450E-01  0.21279456339E-01  0.00000000000E+00 0.  1.
     999901    1    3    3    0    0  0.81054211835E-02 -0.77027840042E-01 -0.11887173028E+00  0.89136382822E+00  0.88000000000E+00 0. -1.
        -11    1    4    4    0    0 -0.11764974879E-04  0.55191722150E-01  0.78296017315E-01  0.95794852579E-01  0.51100000000E-03 0.  1.
         11    1    4    4    0    0 -0.47646970708E-02  0.28476519911E-01  0.20634841513E-01  0.35491862866E-01  0.51100000000E-03 0. -1.
</event>
<event>
 8    1  0.1177602E+005  0.1043930E+01  0.7957747E-01            NaN
         13   -1    0    0    0    0  0.00000000000E+00  0.00000000000E+00  0.74505805969E-08  0.10566000000E+00  0.10566000000E+00 0. -1.
     999900   -1    0    0    0    0 -0.00000000000E+00 -0.00000000000E+00 -0.74505805969E-08  0.93827000000E+00  0.93827000000E+00 0.  1.
     999902    2    1    2    0    0 -0.15316952194E-01  0.15951702403E-01 -0.69437504686E-02  0.10207506664E+01  0.10204874529E+01 0.  0.
     999903    2    3    3    0    0  0.11367793666E+00  0.59399143653E-01 -0.99222211512E-02  0.13028099666E+00  0.20585336227E-01 0.  0.
         14    1    1    2    0    0  0.15316952194E-01 -0.15951702403E-01  0.69437504686E-02  0.23179333568E-01  0.00000000000E+00 0.  1.
     999901    1    3    3    0    0 -0.12899488885E+00 -0.43447441250E-01  0.29784706826E-02  0.89046966977E+00  0.88000000000E+00 0.  1.
        -11    1    4    4    0    0  0.30758211868E-01  0.24085955384E-01 -0.92544060810E-02  0.40151039799E-01  0.51100000000E-03 0.  1.
         11    1    4    4    0    0  0.82919724791E-01  0.35313188270E-01 -0.66781507013E-03  0.90129956858E-01  0.51100000000E-03 0. -1.
</event>
<event>
 8    1  0.1296838E+005  0.1043930E+01  0.7957747E-01            NaN
         13   -1    0    0    0    0  0.00000000000E+00  0.00000000000E+00  0.74505805969E-08  0.10566000000E+00  0.10566000000E+00 0.  1.
     999900   -1    0    0    0    0 -0.00000000000E+00 -0.00000000000E+00 -0.74505805969E-08  0.93827000000E+00  0.93827000000E+00 0. -1.
     999902    2    1    2    0    0  0.26545637023E-01  0.16138923470E-02  0.50728616272E-02  0.10168558533E+01  0.10164953601E+01 0.  0.
     999903    2    3    3    0    0  0.48136945065E-01  0.69327123473E-01  0.95913587511E-01  0.12932934457E+00  0.20081025080E-01 0.  0.
         14    1    1    2    0    0 -0.26545637023E-01 -0.16138923470E-02 -0.50728616272E-02  0.27074146682E-01  0.00000000000E+00 0.  1.
     999901    1    3    3    0    0 -0.21591308042E-01 -0.67713231126E-01 -0.90840725884E-01  0.88752650875E+00  0.88000000000E+00 0.  1.
        -11    1    4    4    0    0  0.18942464440E-01  0.33581051314E-01  0.57749479138E-01  0.69438947487E-01  0.51100000000E-03 0.  1.
         11    1    4    4    0    0  0.29194480625E-01  0.35746072159E-01  0.38164108373E-01  0.59890397082E-01  0.51100000000E-03 0. -1.
</event>
<event>
 8    1  0.1177602E+005  0.1043930E+01  0.7957747E-01            NaN
         13   -1    0    0    0    0  0.00000000000E+00  0.00000000000E+00  0.74505805969E-08  0.10566000000E+00  0.10566000000E+00 0.  1.
     999900   -1    0    0    0    0 -0.00000000000E+00 -0.00000000000E+00 -0.74505805969E-08  0.93827000000E+00  0.93827000000E+00 0. -1.
     999902    2    1    2    0    0  0.22579462064E-01  0.84422130063E-03 -0.98784434625E-02  0.10192697392E+01  0.10189713798E+01 0.  0.
     999903    2    3    3    0    0 -0.46512181653E-02 -0.10585487996E+00 -0.72947450591E-01  0.13016687238E+00  0.19879503915E-01 0.  0.
         14    1    1    2    0    0 -0.22579462064E-01 -0.84422130063E-03  0.98784434625E-02  0.24660260784E-01  0.00000000000E+00 0.  1.
     999901    1    3    3    0    0  0.27230680229E-01  0.10669910126E+00  0.63069007128E-01  0.88910286684E+00  0.88000000000E+00 0.  1.
        -11    1    4    4    0    0  0.10090218870E-02 -0.95676478590E-01 -0.60996131895E-01  0.11347156431E+00  0.51100000000E-03 0.  1.
         11    1    4    4    0    0 -0.56602400523E-02 -0.10178401370E-01 -0.11951318695E-01  0.16695308067E-01  0.51100000000E-03 0. -1.
</event>
<event>
 8    1  0.1177602E+005  0.1043930E+01  0.7957747E-01            NaN
         13   -1    0    0    0    0  0.00000000000E+00  0.00000000000E+00  0.74505805969E-08  0.10566000000E+00  0.10566000000E+00 0.  1.
     999900   -1    0    0    0    0 -0.00000000000E+00 -0.00000000000E+00 -0.74505805969E-08  0.93827000000E+00  0.93827000000E+00 0. -1.
     999902    2    1    2    0    0  0.65784717531E-02  0.21331684025E-01  0.70067563469E-02  0.10205331697E+01  0.10202649356E+01 0.  0.
     999903    2    3    3    0    0 -0.42982522946E-01  0.96706022127E-01 -0.76485732165E-01  0.13199021706E+00  0.19282068860E-01 0.  0.
         14    1    1    2    0    0 -0.65784717531E-02 -0.21331684025E-01 -0.70067563469E-02  0.23396830308E-01  0.00000000000E+00 0.  1.
     999901    1    3    3    0    0  0.49560994699E-01 -0.75374338102E-01  0.83492488512E-01  0.88854295264E+00  0.88000000000E+00 0. -1.
        -11    1    4    4    0    0 -0.40454564068E-01  0.70883064830E-01 -0.57659093525E-01  0.99929038926E-01  0.51100000000E-03 0. -1.
         11    1    4    4    0    0 -0.25279588784E-02  0.25822957297E-01 -0.18826638640E-01  0.32061178131E-01  0.51100000000E-03 0.  1.
</event>
<event>
 8    1  0.1177602E+005  0.1043930E+01  0.7957747E-01            NaN
         13   -1    0    0    0    0  0.00000000000E+00  0.00000000000E+00  0.74505805969E-08  0.10566000000E+00  0.10566000000E+00 0.  1.
     999900   -1    0    0    0    0 -0.00000000000E+00 -0.00000000000E+00 -0.74505805969E-08  0.93827000000E+00  0.93827000000E+00 0. -1.
     999902    2    1    2    0    0 -0.80968538916E-02  0.60332108116E-02 -0.21086260961E-01  0.10205507554E+01  0.10202829291E+01 0.  0.
     999903    2    3    3    0    0  0.87192346689E-01  0.73495821571E-01 -0.62210848967E-01  0.13188745173E+00  0.22802830621E-01 0.  0.
         14    1    1    2    0    0  0.80968538916E-02 -0.60332108116E-02  0.21086260961E-01  0.23379244577E-01  0.00000000000E+00 0.  1.
     999901    1    3    3    0    0 -0.95289200581E-01 -0.67462610759E-01  0.41124588005E-01  0.88866330370E+00  0.88000000000E+00 0.  1.
        -11    1    4    4    0    0  0.43828640575E-01  0.29471392550E-01 -0.39868029095E-01  0.66175777883E-01  0.51100000000E-03 0. -1.
         11    1    4    4    0    0  0.43363706114E-01  0.44024429021E-01 -0.22342819872E-01  0.65711673844E-01  0.51100000000E-03 0.  1.
</event>
<event>
 8    1  0.1177602E+005  0.1043930E+01  0.7957747E-01            NaN
         13   -1    0    0    0    0  0.00000000000E+00  0.00000000000E+00  0.74505805969E-08  0.10566000000E+00  0.10566000000E+00 0. -1.
     999900   -1    0    0    0    0 -0.00000000000E+00 -0.00000000000E+00 -0.74505805969E-08  0.93827000000E+00  0.93827000000E+00 0. -1.
     999902    2    1    2    0    0  0.22624418415E-01  0.47989726401E-02 -0.95749151665E-03  0.10207824032E+01  0.10205199182E+01 0.  0.
     999903    2    3    3    0    0  0.37215913543E-01 -0.11591999312E+00 -0.45095085777E-01  0.13132520489E+00  0.19755344915E-01 0.  0.
         14    1    1    2    0    0 -0.22624418415E-01 -0.47989726401E-02  0.95749151665E-03  0.23147596787E-01  0.00000000000E+00 0. -1.
     999901    1    3    3    0    0 -0.14591495128E-01  0.12071896576E+00  0.44137594261E-01  0.88945719832E+00  0.88000000000E+00 0.  1.
        -11    1    4    4    0    0  0.29428288261E-01 -0.75992041701E-01 -0.21445932646E-01  0.84267453385E-01  0.51100000000E-03 0.  1.
         11    1    4    4    0    0  0.77876252827E-02 -0.39927951415E-01 -0.23649153131E-01  0.47057751504E-01  0.51100000000E-03 0. -1.
</event>
<event>
 8    1  0.1177602E+005  0.1043930E+01  0.7957747E-01            NaN
         13   -1    0    0    0    0  0.00000000000E+00  0.00000000000E+00  0.74505805969E-08  0.10566000000E+00  0.10566000000E+00 0.  1.
     999900   -1    0    0    0    0 -0.00000000000E+00 -0.00000000000E+00 -0.74505805969E-08  0.93827000000E+00  0.93827000000E+00 0.  1.
     999902    2    1    2    0    0  0.22826315919E-01  0.32537169338E-02  0.76436545170E-02  0.10196389970E+01  0.10193496119E+01 0.  0.
     999903    2    3    3    0    0 -0.11972564865E+00  0.57440443543E-02 -0.34823777694E-01  0.12715328444E+00  0.24249479599E-01 0.  0.
         14    1    1    2    0    0 -0.22826315919E-01 -0.32537169338E-02 -0.76436545170E-02  0.24291002999E-01  0.00000000000E+00 0. -1.
     999901    1    3    3    0    0  0.14255196457E+00 -0.24903274205E-02  0.42467432211E-01  0.89248571256E+00  0.88000000000E+00 0. -1.
        -11    1    4    4    0    0 -0.29599272543E-01  0.12002358131E-01 -0.87313318976E-02  0.33116020496E-01  0.51100000000E-03 0. -1.
         11    1    4    4    0    0 -0.90126376104E-01 -0.62583137763E-02 -0.26092445797E-01  0.94037263941E-01  0.51100000000E-03 0.  1.
</event>
<event>
 8    1  0.1177602E+005  0.1043930E+01  0.7957747E-01            NaN
         13   -1    0    0    0    0  0.00000000000E+00  0.00000000000E+00  0.74505805969E-08  0.10566000000E+00  0.10566000000E+00 0.  1.
     999900   -1    0    0    0    0 -0.00000000000E+00 -0.00000000000E+00 -0.74505805969E-08  0.93827000000E+00  0.93827000000E+00 0.  1.
     999902    2    1    2    0    0  0.15722986104E-02 -0.19080390821E-01  0.12233511808E-01  0.10212101354E+01  0.10209573685E+01 0.  0.
     999903    2    3    3    0    0 -0.41335741364E-01 -0.10542062364E+00  0.69062709347E-01  0.13412203751E+00  0.19922643422E-01 0.  0.
         14    1    1    2    0    0 -0.15722986104E-02  0.19080390821E-01 -0.12233511808E-01  0.22719864611E-01  0.00000000000E+00 0. -1.
     999901    1    3    3    0    0  0.42908039974E-01  0.86340232823E-01 -0.56829197539E-01  0.88708809787E+00  0.88000000000E+00 0.  1.
        -11    1    4    4    0    0 -0.38052714986E-01 -0.83589908277E-01  0.48116303178E-01  0.10368568675E+00  0.51100000000E-03 0. -1.
         11    1    4    4    0    0 -0.32830263773E-02 -0.21830715367E-01  0.20946406169E-01  0.30436350767E-01  0.51100000000E-03 0.  1.
</event>
<event>
 8    1  0.1177602E+005  0.1043930E+01  0.7957747E-01            NaN
         13   -1    0    0    0    0  0.00000000000E+00  0.00000000000E+00  0.74505805969E-08  0.10566000000E+00  0.10566000000E+00 0. -1.
     999900   -1    0    0    0    0 -0.00000000000E+00 -0.00000000000E+00 -0.74505805969E-08  0.93827000000E+00  0.93827000000E+00 0.  1.
     999902    2    1    2    0    0 -0.13652924857E-01  0.18123299010E-01 -0.71913631770E-02  0.10201272265E+01  0.10198494919E+01 0.  0.
     999903    2    3    3    0    0 -0.10827782949E+00 -0.50665040123E-01  0.48529249860E-01  0.13063833114E+00  0.20500020027E-01 0.  0.
         14    1    1    2    0    0  0.13652924857E-01 -0.18123299010E-01  0.71913631770E-02  0.23802773546E-01  0.00000000000E+00 0. -1.
     999901    1    3    3    0    0  0.94624904630E-01  0.68788339132E-01 -0.55720613037E-01  0.88948889532E+00  0.88000000000E+00 0. -1.
        -11    1    4    4    0    0 -0.35247591179E-01 -0.24334381161E-01  0.24621408192E-01  0.49406777398E-01  0.51100000000E-03 0. -1.
         11    1    4    4    0    0 -0.73030238307E-01 -0.26330658962E-01  0.23907841667E-01  0.81231553738E-01  0.51100000000E-03 0.  1.
</event>
<event>
 8    1  0.1177602E+005  0.1043930E+01  0.7957747E-01            NaN
         13   -1    0    0    0    0  0.00000000000E+00  0.00000000000E+00  0.74505805969E-08  0.10566000000E+00  0.10566000000E+00 0. -1.
     999900   -1    0    0    0    0 -0.00000000000E+00 -0.00000000000E+00 -0.74505805969E-08  0.93827000000E+00  0.93827000000E+00 0.  1.
     999902    2    1    2    0    0 -0.20877546723E-01 -0.10792677179E-01 -0.39992903048E-02  0.10200899463E+01  0.10198113308E+01 0.  0.
     999903    2    3    3    0    0 -0.78567847141E-01 -0.29392485217E-01 -0.10094188070E+00  0.13269376112E+00  0.19533206820E-01 0.  0.
         14    1    1    2    0    0  0.20877546723E-01  0.10792677179E-01  0.39992903048E-02  0.23840053708E-01  0.00000000000E+00 0.  1.
     999901    1    3    3    0    0  0.57690300418E-01  0.18599808039E-01  0.96942590400E-01  0.88739618517E+00  0.88000000000E+00 0. -1.
        -11    1    4    4    0    0 -0.44350587108E-01 -0.11172275768E-01 -0.41706142250E-01  0.61898770141E-01  0.51100000000E-03 0. -1.
         11    1    4    4    0    0 -0.34217260034E-01 -0.18220209449E-01 -0.59235738455E-01  0.70794990980E-01  0.51100000000E-03 0.  1.
</event>
<event>
 8    1  0.1177602E+005  0.1043930E+01  0.7957747E-01            NaN
         13   -1    0    0    0    0  0.00000000000E+00  0.00000000000E+00  0.74505805969E-08  0.10566000000E+00  0.10566000000E+00 0.  1.
     999900   -1    0    0    0    0 -0.00000000000E+00 -0.00000000000E+00 -0.74505805969E-08  0.93827000000E+00  0.93827000000E+00 0.  1.
     999902    2    1    2    0    0 -0.12588414214E-01 -0.38457107410E-02  0.19930084538E-01  0.10200455713E+01  0.10197659053E+01 0.  0.
     999903    2    3    3    0    0 -0.95000790216E-01  0.87846847714E-01 -0.15666863374E-02  0.13119156973E+00  0.21599876542E-01 0.  0.
         14    1    1    2    0    0  0.12588414214E-01  0.38457107410E-02 -0.19930084538E-01  0.23884428677E-01  0.00000000000E+00 0. -1.
     999901    1    3    3    0    0  0.82412376001E-01 -0.91692558455E-01  0.21496770875E-01  0.88885400160E+00  0.88000000000E+00 0. -1.
        -11    1    4    4    0    0 -0.13488228857E-01  0.22010372349E-01 -0.52423774959E-02  0.26346393519E-01  0.51100000000E-03 0.  1.
         11    1    4    4    0    0 -0.81512561359E-01  0.65836475364E-01  0.36756911585E-02  0.10484517621E+00  0.51100000000E-03 0. -1.
</event>
<event>
 8    1  0.1177602E+005  0.1043930E+01  0.7957747E-01            NaN
         13   -1    0    0    0    0  0.00000000000E+00  0.00000000000E+00  0.74505805969E-08  0.10566000000E+00  0.10566000000E+00 0.  1.
     999900   -1    0    0    0    0 -0.00000000000E+00 -0.00000000000E+00 -0.74505805969E-08  0.93827000000E+00  0.93827000000E+00 0.  1.
     999902    2    1    2    0    0  0.13847126461E-01  0.17742447109E-01 -0.52977223030E-02  0.10208085121E+01  0.10205466257E+01 0.  0.
     999903    2    3    3    0    0  0.12999033112E+00  0.20516588159E-01  0.84200707419E-02  0.13306692939E+00  0.17818348124E-01 0.  0.
         14    1    1    2    0    0 -0.13847126461E-01 -0.17742447109E-01  0.52977223030E-02  0.23121487890E-01  0.00000000000E+00 0. -1.
     999901    1    3    3    0    0 -0.11614320466E+00 -0.27741410502E-02 -0.13717793045E-01  0.88774158272E+00  0.88000000000E+00 0.  1.
        -11    1    4    4    0    0  0.36464992492E-01  0.98802202653E-02  0.93889027589E-02  0.38932339333E-01  0.51100000000E-03 0.  1.
         11    1    4    4    0    0  0.93525338633E-01  0.10636367894E-01 -0.96883201698E-03  0.94134590055E-01  0.51100000000E-03 0. -1.
</event>
<event>
 8    1  0.1177602E+005  0.1043930E+01  0.7957747E-01            NaN
         13   -1    0    0    0    0  0.00000000000E+00  0.00000000000E+00  0.74505805969E-08  0.10566000000E+00  0.10566000000E+00 0.  1.
     999900   -1    0    0    0    0 -0.00000000000E+00 -0.00000000000E+00 -0.74505805969E-08  0.93827000000E+00  0.93827000000E+00 0.  1.
     999902    2    1    2    0    0 -0.18587712917E-03  0.14700355332E-01 -0.18183382483E-01  0.10205468780E+01  0.10202789617E+01 0.  0.
     999903    2    3    3    0    0 -0.12374130890E+00  0.18395833921E-01  0.31026471133E-01  0.13054619765E+00  0.20720752300E-01 0.  0.
         14    1    1    2    0    0  0.18587712917E-03 -0.14700355332E-01  0.18183382483E-01  0.23383122027E-01  0.00000000000E+00 0. -1.
     999901    1    3    3    0    0  0.12355543177E+00 -0.36954785886E-02 -0.49209853617E-01  0.89000068032E+00  0.88000000000E+00 0. -1.
        -11    1    4    4    0    0 -0.34141105276E-01  0.63901923216E-02 -0.68136352191E-03  0.34744424079E-01  0.51100000000E-03 0. -1.
         11    1    4    4    0    0 -0.89600203624E-01  0.12005641599E-01  0.31707834655E-01  0.95801773570E-01  0.51100000000E-03 0.  1.
</event>
<event>
 8    1  0.1177602E+005  0.1043930E+01  0.7957747E-01            NaN
         13   -1    0    0    0    0  0.00000000000E+00  0.00000000000E+00  0.74505805969E-08  0.10566000000E+00  0.10566000000E+00 0. -1.
     999900   -1    0    0    0    0 -0.00000000000E+00 -0.00000000000E+00 -0.74505805969E-08  0.93827000000E+00  0.93827000000E+00 0. -1.
     999902    2    1    2    0    0 -0.45118818172E-02  0.45346623830E-02 -0.22810924702E-01  0.10202391046E+01  0.10199640052E+01 0.  0.
     999903    2    3    3    0    0  0.12214966385E+00 -0.95210739946E-02  0.35455466258E-01  0.12915230566E+00  0.20298688157E-01 0.  0.
         14    1    1    2    0    0  0.45118818172E-02 -0.45346623830E-02  0.22810924702E-01  0.23690895429E-01  0.00000000000E+00 0. -1.
     999901    1    3    3    0    0 -0.12666154567E+00  0.14055736378E-01 -0.58266390960E-01  0.89108679891E+00  0.88000000000E+00 0.  1.
        -11    1    4    4    0    0  0.51393530774E-01  0.33324017575E-02  0.77482621633E-02  0.52083553973E-01  0.51100000000E-03 0. -1.
         11    1    4    4    0    0  0.70756133077E-01 -0.12853475752E-01  0.27707204094E-01  0.77068751688E-01  0.51100000000E-03 0.  1.
</event>
<event>
 8    1  0.1177602E+005  0.1043930E+01  0.7957747E-01            NaN
         13   -1    0    0    0    0  0.00000000000E+00  0.00000000000E+00  0.74505805969E-08  0.10566000000E+00  0.10566000000E+00 0. -1.
     999900   -1    0    0    0    0 -0.00000000000E+00 -0.00000000000E+00 -0.74505805969E-08  0.93827000000E+00  0.93827000000E+00 0. -1.
     999902    2    1    2    0    0 -0.17882808310E-01 -0.14835011114E-02  0.14892613657E-01  0.10206107901E+01  0.10203443533E+01 0.  0.
     999903    2    3    3    0    0  0.15402870457E-01 -0.19583647560E-01  0.12855387131E+00  0.13249231084E+00  0.20182837607E-01 0.  0.
         14    1    1    2    0    0  0.17882808310E-01  0.14835011114E-02 -0.14892613657E-01  0.23319209895E-01  0.00000000000E+00 0.  1.
     999901    1    3    3    0    0 -0.33285678767E-01  0.18100146449E-01 -0.11366125765E+00  0.88811847926E+00  0.88000000000E+00 0. -1.
        -11    1    4    4    0    0  0.97962637752E-02 -0.23178695377E-01  0.94828802831E-01  0.98112087281E-01  0.51100000000E-03 0.  1.
         11    1    4    4    0    0  0.56066066819E-02  0.35950478168E-02  0.33725068480E-01  0.34380223563E-01  0.51100000000E-03 0. -1.
</event>
<event>
 8    1  0.1177602E+005  0.1043930E+01  0.7957747E-01            NaN
         13   -1    0    0    0    0  0.00000000000E+00  0.00000000000E+00  0.74505805969E-08  0.10566000000E+00  0.10566000000E+00 0. -1.
     999900   -1    0    0    0    0 -0.00000000000E+00 -0.00000000000E+00 -0.74505805969E-08  0.93827000000E+00  0.93827000000E+00 0. -1.
     999902    2    1    2    0    0  0.18518543397E-01  0.83331238145E-02  0.12077870292E-01  0.10203026355E+01  0.10200290269E+01 0.  0.
     999903    2    3    3    0    0  0.48639654906E-02  0.72912282323E-01  0.10886251895E+00  0.13253905018E+00  0.19382794361E-01 0.  0.
         14    1    1    2    0    0 -0.18518543397E-01 -0.83331238145E-02 -0.12077870292E-01  0.23627364492E-01  0.00000000000E+00 0.  1.
     999901    1    3    3    0    0  0.13654577906E-01 -0.64579158509E-01 -0.96784648660E-01  0.88776358532E+00  0.88000000000E+00 0. -1.
        -11    1    4    4    0    0  0.11371198827E-02  0.55317039253E-01  0.66467493288E-01  0.86483852009E-01  0.51100000000E-03 0. -1.
         11    1    4    4    0    0  0.37268456079E-02  0.17595243070E-01  0.42395025664E-01  0.46055198175E-01  0.51100000000E-03 0.  1.
</event>
<event>
 8    1  0.1177602E+005  0.1043930E+01  0.7957747E-01            NaN
         13   -1    0    0    0    0  0.00000000000E+00  0.00000000000E+00  0.74505805969E-08  0.10566000000E+00  0.10566000000E+00 0. -1.
     999900   -1    0    0    0    0 -0.00000000000E+00 -0.00000000000E+00 -0.74505805969E-08  0.93827000000E+00  0.93827000000E+00 0. -1.
     999902    2    1    2    0    0 -0.19067688874E-01  0.75998056306E-02 -0.12300724914E-01  0.10200000682E+01  0.10197193229E+01 0.  0.
     999903    2    3    3    0    0  0.82147388833E-01  0.93943652501E-01  0.26760364270E-01  0.12914344640E+00  0.19705565554E-01 0.  0.
         14    1    1    2    0    0  0.19067688874E-01 -0.75998056306E-02  0.12300724914E-01  0.23929931843E-01  0.00000000000E+00 0. -1.
     999901    1    3    3    0    0 -0.10121507771E+00 -0.86343846870E-01 -0.39061089183E-01  0.89085662176E+00  0.88000000000E+00 0. -1.
        -11    1    4    4    0    0  0.66852666820E-01  0.65432623432E-01  0.24524218979E-01  0.96707836847E-01  0.51100000000E-03 0. -1.
         11    1    4    4    0    0  0.15294722013E-01  0.28511029069E-01  0.22361452904E-02  0.32435609548E-01  0.51100000000E-03 0.  1.
</event>
<event>
 8    1  0.1177602E+005  0.1043930E+01  0.7957747E-01            NaN
         13   -1    0    0    0    0  0.00000000000E+00  0.00000000000E+00  0.74505805969E-08  0.10566000000E+00  0.10566000000E+00 0. -1.
     999900   -1    0    0    0    0 -0.00000000000E+00 -0.00000000000E+00 -0.74505805969E-08  0.93827000000E+00  0.93827000000E+00 0.  1.
     999902    2    1    2    0    0 -0.20416922098E-01 -0.27515358147E-02 -0.14766343454E-01  0.10185830760E+01  0.10182676545E+01 0.  0.
     999903    2    3    3    0    0  0.96431744448E-02 -0.87858549074E-01 -0.94068504094E-01  0.13041887621E+00  0.18657018781E-01 0.  0.
         14    1    1    2    0    0  0.20416922098E-01  0.27515358147E-02  0.14766343454E-01  0.25346924001E-01  0.00000000000E+00 0. -1.
     999901    1    3    3    0    0 -0.30060096543E-01  0.85107013259E-01  0.79302160640E-01  0.88816419979E+00  0.88000000000E+00 0. -1.
        -11    1    4    4    0    0 -0.56594388539E-02 -0.24668951998E-01 -0.26125918158E-01  0.36378718524E-01  0.51100000000E-03 0. -1.
         11    1    4    4    0    0  0.15302613299E-01 -0.63189597077E-01 -0.67942585936E-01  0.94040157683E-01  0.51100000000E-03 0.  1.
</event>
<event>
 8    1  0.1177602E+005  0.1043930E+01  0.7957747E-01            NaN
         13   -1    0    0    0    0  0.00000000000E+00  0.00000000000E+00  0.74505805969E-08  0.10566000000E+00  0.10566000000E+00 0. -1.
     999900   -1    0    0    0    0 -0.00000000000E+00 -0.00000000000E+00 -0.74505805969E-08  0.93827000000E+00  0.93827000000E+00 0. -1.
     999902    2    1    2    0    0  0.17519189063E-02 -0.19231830785E-01 -0.13863875486E-01  0.10201573355E+01  0.10198803114E+01 0.  0.
     999903    2    3    3    0    0 -0.62503105226E-01 -0.62274060175E-01  0.93751231391E-01  0.13023466868E+00  0.19674318448E-01 0.  0.
         14    1    1    2    0    0 -0.17519189063E-02  0.19231830785E-01  0.13863875486E-01  0.23772664527E-01  0.00000000000E+00 0. -1.
     999901    1    3    3    0    0  0.64255024133E-01  0.43042229390E-01 -0.10761510688E+00  0.88992266679E+00  0.88000000000E+00 0. -1.
        -11    1    4    4    0    0 -0.30344712867E-01 -0.17156707201E-01  0.39603954582E-01  0.52762567607E-01  0.51100000000E-03 0.  1.
         11    1    4    4    0    0 -0.32158392359E-01 -0.45117352973E-01  0.54147276809E-01  0.77472101077E-01  0.51100000000E-03 0. -1.
</event>
<event>
 8    1  0.1177602E+005  0.1043930E+01  0.7957747E-01            NaN
         13   -1    0    0    0    0  0.00000000000E+00  0.00000000000E+00  0.74505805969E-08  0.10566000000E+00  0.10566000000E+00 0. -1.
     999900   -1    0    0    0    0 -0.00000000000E+00 -0.00000000000E+00 -0.74505805969E-08  0.93827000000E+00  0.93827000000E+00 0.  1.
     999902    2    1    2    0    0 -0.18530792915E-01 -0.13164368066E-01  0.47637683830E-02  0.10207053501E+01  0.10204410945E+01 0.  0.
     999903    2    3    3    0    0 -0.10929500194E+00 -0.59938964126E-01 -0.43560399558E-01  0.13348427864E+00  0.19556772841E-01 0.  0.
         14    1    1    2    0    0  0.18530792915E-01  0.13164368066E-01 -0.47637683830E-02  0.23224649876E-01  0.00000000000E+00 0. -1.
     999901    1    3    3    0    0  0.90764209030E-01  0.46774596060E-01  0.48324167941E-01  0.88722107148E+00  0.88000000000E+00 0.  1.
        -11    1    4    4    0    0 -0.91052154798E-01 -0.52732920555E-01 -0.43511845584E-01  0.11386306526E+00  0.51100000000E-03 0.  1.
         11    1    4    4    0    0 -0.18242847147E-01 -0.72060435713E-02 -0.48553973308E-04  0.19621213380E-01  0.51100000000E-03 0. -1.
</event>
<event>
 8    1  0.1177602E+005  0.1043930E+01  0.7957747E-01            NaN
         13   -1    0    0    0    0  0.00000000000E+00  0.00000000000E+00  0.74505805969E-08  0.10566000000E+00  0.10566000000E+00 0.  1.
     999900   -1    0    0    0    0 -0.00000000000E+00 -0.00000000000E+00 -0.74505805969E-08  0.93827000000E+00  0.93827000000E+00 0. -1.
     999902    2    1    2    0    0  0.12434137852E-01  0.10378820803E-01  0.16484966352E-01  0.10208197897E+01  0.10205581616E+01 0.  0.
     999903    2    3    3    0    0 -0.53956449913E-01  0.21799307212E-01 -0.11318440760E+00  0.12877030440E+00  0.19610530074E-01 0.  0.
         14    1    1    2    0    0 -0.12434137852E-01 -0.10378820803E-01 -0.16484966352E-01  0.23110210319E-01  0.00000000000E+00 0.  1.
     999901    1    3    3    0    0  0.66390587766E-01 -0.11420486409E-01  0.12966937395E+00  0.89204948528E+00  0.88000000000E+00 0.  1.
        -11    1    4    4    0    0 -0.86783504861E-02  0.57675440519E-02 -0.39163770565E-01  0.40529500088E-01  0.51100000000E-03 0.  1.
         11    1    4    4    0    0 -0.45278099427E-01  0.16031763160E-01 -0.74020637031E-01  0.88240804310E-01  0.51100000000E-03 0. -1.
</event>
<event>
 8    1  0.1214348E+005  0.1043930E+01  0.7957747E-01            NaN
         13   -1    0    0    0    0  0.00000000000E+00  0.00000000000E+00  0.74505805969E-08  0.10566000000E+00  0.10566000000E+00 0. -1.
     999900   -1    0    0    0    0 -0.00000000000E+00 -0.00000000000E+00 -0.74505805969E-08  0.93827000000E+00  0.93827000000E+00 0. -1.
     999902    2    1    2    0    0 -0.96364226986E-02 -0.92013150585E-02  0.19082834134E-01  0.10206559930E+01  0.10203906001E+01 0.  0.
     999903    2    3    3    0    0 -0.55473243243E-01  0.76125492385E-01  0.90883465605E-01  0.13243473183E+00  0.20168851452E-01 0.  0.
         14    1    1    2    0    0  0.96364226986E-02  0.92013150585E-02 -0.19082834134E-01  0.23274006956E-01  0.00000000000E+00 0.  1.
     999901    1    3    3    0    0  0.45836820544E-01 -0.85326807443E-01 -0.71800631471E-01  0.88822126121E+00  0.88000000000E+00 0.  1.
        -11    1    4    4    0    0 -0.38508536101E-01  0.36050491001E-01  0.52024314091E-01  0.74090050828E-01  0.51100000000E-03 0. -1.
         11    1    4    4    0    0 -0.16964707142E-01  0.40075001384E-01  0.38859151514E-01  0.58344681006E-01  0.51100000000E-03 0.  1.
</event>
<event>
 8    1  0.1177602E+005  0.1043930E+01  0.7957747E-01            NaN
         13   -1    0    0    0    0  0.00000000000E+00  0.00000000000E+00  0.74505805969E-08  0.10566000000E+00  0.10566000000E+00 0.  1.
     999900   -1    0    0    0    0 -0.00000000000E+00 -0.00000000000E+00 -0.74505805969E-08  0.93827000000E+00  0.93827000000E+00 0.  1.
     999902    2    1    2    0    0 -0.16730635978E-02 -0.78096854182E-02  0.22335506207E-01  0.10202094358E+01  0.10199336389E+01 0.  0.
     999903    2    3    3    0    0  0.95759911833E-01  0.65979688868E-02 -0.82997054705E-01  0.12847196682E+00  0.20075887571E-01 0.  0.
         14    1    1    2    0    0  0.16730635978E-02  0.78096854182E-02 -0.22335506207E-01  0.23720564193E-01  0.00000000000E+00 0. -1.
     999901    1    3    3    0    0 -0.97432975430E-01 -0.14407654305E-01  0.10533256091E+00  0.89173746899E+00  0.88000000000E+00 0. -1.
        -11    1    4    4    0    0  0.78025340856E-01 -0.25977416269E-02 -0.66825858033E-01  0.10276506459E+00  0.51100000000E-03 0. -1.
         11    1    4    4    0    0  0.17734570977E-01  0.91957105137E-02 -0.16171196672E-01  0.25706902232E-01  0.51100000000E-03 0.  1.
</event>
<event>
 8    1  0.1177602E+005  0.1043930E+01  0.7957747E-01            NaN
         13   -1    0    0    0    0  0.00000000000E+00  0.00000000000E+00  0.74505805969E-08  0.10566000000E+00  0.10566000000E+00 0. -1.
     999900   -1    0    0    0    0 -0.00000000000E+00 -0.00000000000E+00 -0.74505805969E-08  0.93827000000E+00  0.93827000000E+00 0. -1.
     999902    2    1    2    0    0 -0.20781245971E-01  0.26312679057E-02 -0.10009238081E-01  0.10207143027E+01  0.10204502531E+01 0.  0.
     999903    2    3    3    0    0  0.58582661750E-01 -0.10197055143E-01  0.11216353194E+00  0.12864402437E+00  0.20801896944E-01 0.  0.
         14    1    1    2    0    0  0.20781245971E-01 -0.26312679057E-02  0.10009238081E-01  0.23215697316E-01  0.00000000000E+00 0. -1.
     999901    1    3    3    0    0 -0.79363907721E-01  0.12828323049E-01 -0.12217277002E+00  0.89207027832E+00  0.88000000000E+00 0. -1.
        -11    1    4    4    0    0  0.25307187361E-01 -0.54032314447E-02  0.70529458325E-01  0.75128651358E-01  0.51100000000E-03 0.  1.
         11    1    4    4    0    0  0.33275474389E-01 -0.47938236983E-02  0.41634073617E-01  0.53515373010E-01  0.51100000000E-03 0. -1.
</event>
<event>
 8    1  0.1177602E+005  0.1043930E+01  0.7957747E-01            NaN
         13   -1    0    0    0    0  0.00000000000E+00  0.00000000000E+00  0.74505805969E-08  0.10566000000E+00  0.10566000000E+00 0.  1.
     999900   -1    0    0    0    0 -0.00000000000E+00 -0.00000000000E+00 -0.74505805969E-08  0.93827000000E+00  0.93827000000E+00 0.  1.
     999902    2    1    2    0    0 -0.29296841135E-02 -0.17691909967E-01  0.14116687941E-01  0.10211074759E+01  0.10208523937E+01 0.  0.
     999903    2    3    3    0    0  0.28457469254E-01  0.58115806584E-01  0.11311767779E+00  0.13176324600E+00  0.19459430512E-01 0.  0.
         14    1    1    2    0    0  0.29296841135E-02  0.17691909967E-01 -0.14116687941E-01  0.22822524087E-01  0.00000000000E+00 0. -1.
     999901    1    3    3    0    0 -0.31387153368E-01 -0.75807716550E-01 -0.99000989854E-01  0.88934422991E+00  0.88000000000E+00 0.  1.
        -11    1    4    4    0    0  0.15123357250E-02  0.25964923584E-02  0.18822901973E-01  0.19068080439E-01  0.51100000000E-03 0.  1.
         11    1    4    4    0    0  0.26945133529E-01  0.55519314225E-01  0.94294775822E-01  0.11269516556E+00  0.51100000000E-03 0. -1.
</event>
<event>
 8    1  0.1177602E+005  0.1043930E+01  0.7957747E-01            NaN
         13   -1    0    0    0    0  0.00000000000E+00  0.00000000000E+00  0.74505805969E-08  0.10566000000E+00  0.10566000000E+00 0.  1.
     999900   -1    0    0    0    0 -0.00000000000E+00 -0.00000000000E+00 -0.74505805969E-08  0.93827000000E+00  0.93827000000E+00 0. -1.
     999902    2    1    2    0    0 -0.10602984197E-01 -0.13837968162E-01  0.17219906344E-01  0.10194261674E+01  0.10191316269E+01 0.  0.
     999903    2    3    3    0    0  0.96436200173E-01  0.12565501365E-02  0.85216627149E-01  0.13020809208E+00  0.19767500531E-01 0.  0.
         14    1    1    2    0    0  0.10602984197E-01  0.13837968162E-01 -0.17219906344E-01  0.24503832583E-01  0.00000000000E+00 0. -1.
     999901    1    3    3    0    0 -0.10703918437E+00 -0.15094518299E-01 -0.67996720805E-01  0.88921807534E+00  0.88000000000E+00 0.  1.
        -11    1    4    4    0    0  0.80302265819E-01  0.31745488463E-02  0.79314908961E-01  0.11291433727E+00  0.51100000000E-03 0.  1.
         11    1    4    4    0    0  0.16133934355E-01 -0.19179987097E-02  0.59017181882E-02  0.17293754809E-01  0.51100000000E-03 0. -1.
</event>
<event>
 8    1  0.1177602E+005  0.1043930E+01  0.7957747E-01            NaN
         13   -1    0    0    0    0  0.00000000000E+00  0.00000000000E+00  0.74505805969E-08  0.10566000000E+00  0.10566000000E+00 0. -1.
     999900   -1    0    0    0    0 -0.00000000000E+00 -0.00000000000E+00 -0.74505805969E-08  0.93827000000E+00  0.93827000000E+00 0. -1.
     999902    2    1    2    0    0 -0.10239513856E-01  0.17530012267E-01  0.13305597801E-01  0.10196568068E+01  0.10193678511E+01 0.  0.
     999903    2    3    3    0    0 -0.75612564420E-01  0.88146672643E-01  0.61725386040E-01  0.13308767565E+00  0.20376710509E-01 0.  0.
         14    1    1    2    0    0  0.10239513856E-01 -0.17530012267E-01 -0.13305597801E-01  0.24273193176E-01  0.00000000000E+00 0.  1.
     999901    1    3    3    0    0  0.65373050564E-01 -0.70616660376E-01 -0.48419788239E-01  0.88656913118E+00  0.88000000000E+00 0. -1.
        -11    1    4    4    0    0 -0.64529350097E-01  0.72460764489E-01  0.59314911174E-01  0.11372387270E+00  0.51100000000E-03 0.  1.
         11    1    4    4    0    0 -0.11083214323E-01  0.15685908154E-01  0.24104748667E-02  0.19363802943E-01  0.51100000000E-03 0. -1.
</event>
<event>
 8    1  0.1177602E+005  0.1043930E+01  0.7957747E-01            NaN
         13   -1    0    0    0    0  0.00000000000E+00  0.00000000000E+00  0.74505805969E-08  0.10566000000E+00  0.10566000000E+00 0.  1.
     999900   -1    0    0    0    0 -0.00000000000E+00 -0.00000000000E+00 -0.74505805969E-08  0.93827000000E+00  0.93827000000E+00 0. -1.
     999902    2    1    2    0    0 -0.13605914925E-02  0.13655009987E-01 -0.19913059608E-01  0.10197465253E+01  0.10194597272E+01 0.  0.
     999903    2    3    3    0    0 -0.74748527743E-01 -0.56473937544E-01  0.84716883798E-01  0.12775365337E+00  0.19167616629E-01 0.  0.
         14    1    1    2    0    0  0.13605914925E-02 -0.13655009987E-01  0.19913059608E-01  0.24183474728E-01  0.00000000000E+00 0.  1.
     999901    1    3    3    0    0  0.73387936250E-01  0.70128947531E-01 -0.10462994341E+00  0.89199287190E+00  0.88000000000E+00 0. -1.
        -11    1    4    4    0    0 -0.16804195500E-01 -0.22413177577E-01  0.19801676683E-01  0.34308876926E-01  0.51100000000E-03 0. -1.
         11    1    4    4    0    0 -0.57944332243E-01 -0.34060759968E-01  0.64915207115E-01  0.93444776443E-01  0.51100000000E-03 0.  1.
</event>
<event>
 8    1  0.1177602E+005  0.1043930E+01  0.7957747E-01            NaN
         13   -1    0    0    0    0  0.00000000000E+00  0.00000000000E+00  0.74505805969E-08  0.10566000000E+00  0.10566000000E+00 0. -1.
     999900   -1    0    0    0    0 -0.00000000000E+00 -0.00000000000E+00 -0.74505805969E-08  0.93827000000E+00  0.93827000000E+00 0. -1.
     999902    2    1    2    0    0  0.76985959842E-02 -0.21891538163E-01 -0.50261453805E-02  0.10201861595E+01  0.10199098147E+01 0.  0.
     999903    2    3    3    0    0  0.98804751408E-01  0.80920863886E-01  0.69189568383E-02  0.12944859602E+00  0.19962513225E-01 0.  0.
         14    1    1    2    0    0 -0.76985959842E-02  0.21891538163E-01  0.50261453805E-02  0.23743840478E-01  0.00000000000E+00 0.  1.
     999901    1    3    3    0    0 -0.91106155424E-01 -0.10281240205E+00 -0.11945102219E-01  0.89073756350E+00  0.88000000000E+00 0. -1.
        -11    1    4    4    0    0  0.69720294867E-01  0.45915225019E-01  0.50436370512E-03  0.83484387215E-01  0.51100000000E-03 0. -1.
         11    1    4    4    0    0  0.29084456541E-01  0.35005638867E-01  0.64145931332E-02  0.45964208802E-01  0.51100000000E-03 0.  1.
</event>
<event>
 8    1  0.1177602E+005  0.1043930E+01  0.7957747E-01            NaN
         13   -1    0    0    0    0  0.00000000000E+00  0.00000000000E+00  0.74505805969E-08  0.10566000000E+00  0.10566000000E+00 0.  1.
     999900   -1    0    0    0    0 -0.00000000000E+00 -0.00000000000E+00 -0.74505805969E-08  0.93827000000E+00  0.93827000000E+00 0.  1.
     999902    2    1    2    0    0 -0.23597851667E-01 -0.20053072393E-02  0.91780141862E-03  0.10202293203E+01  0.10199539910E+01 0.  0.
     999903    2    3    3    0    0  0.11397899500E+00 -0.54570504610E-01  0.48362741123E-02  0.12798168472E+00  0.19666489326E-01 0.  0.
         14    1    1    2    0    0  0.23597851667E-01  0.20053072393E-02 -0.91780141862E-03  0.23700679734E-01  0.00000000000E+00 0. -1.
     999901    1    3    3    0    0 -0.13757684666E+00  0.52565197371E-01 -0.39184726937E-02  0.89224763555E+00  0.88000000000E+00 0. -1.
        -11    1    4    4    0    0  0.83702065075E-01 -0.42518012786E-01  0.11896555520E-01  0.94634065026E-01  0.51100000000E-03 0. -1.
         11    1    4    4    0    0  0.30276929921E-01 -0.12052491824E-01 -0.70602814075E-02  0.33347619692E-01  0.51100000000E-03 0.  1.
</event>
<event>
 8    1  0.1177602E+005  0.1043930E+01  0.7957747E-01            NaN
         13   -1    0    0    0    0  0.00000000000E+00  0.00000000000E+00  0.74505805969E-08  0.10566000000E+00  0.10566000000E+00 0.  1.
     999900   -1    0    0    0    0 -0.00000000000E+00 -0.00000000000E+00 -0.74505805969E-08  0.93827000000E+00  0.93827000000E+00 0. -1.
     999902    2    1    2    0    0  0.28770000075E-02 -0.20292134245E-01 -0.11730468961E-01  0.10203153490E+01  0.10200420382E+01 0.  0.
     999903    2    3    3    0    0 -0.54640141643E-01 -0.90118903519E-01 -0.79602781543E-01  0.13307769754E+00  0.16312844752E-01 0.  0.
         14    1    1    2    0    0 -0.28770000075E-02  0.20292134245E-01  0.11730468961E-01  0.23614651031E-01  0.00000000000E+00 0. -1.
     999901    1    3    3    0    0  0.57517141651E-01  0.69826769274E-01  0.67872312581E-01  0.88723765142E+00  0.88000000000E+00 0.  1.
        -11    1    4    4    0    0 -0.10978412485E-01 -0.80227219450E-02 -0.11572670831E-01  0.17862738851E-01  0.51100000000E-03 0.  1.
         11    1    4    4    0    0 -0.43661729159E-01 -0.82096181574E-01 -0.68030110712E-01  0.11521495869E+00  0.51100000000E-03 0. -1.
</event>
<event>
 8    1  0.1177602E+005  0.1043930E+01  0.7957747E-01            NaN
         13   -1    0    0    0    0  0.00000000000E+00  0.00000000000E+00  0.74505805969E-08  0.10566000000E+00  0.10566000000E+00 0.  1.
     999900   -1    0    0    0    0 -0.00000000000E+00 -0.00000000000E+00 -0.74505805969E-08  0.93827000000E+00  0.93827000000E+00 0. -1.
     999902    2    1    2    0    0 -0.12454646583E-01  0.36383153505E-02 -0.20428732932E-01  0.10197289940E+01  0.10194417750E+01 0.  0.
     999903    2    3    3    0    0  0.74968584430E-01  0.10320136731E+00 -0.11039923239E-01  0.12976058315E+00  0.21097823800E-01 0.  0.
         14    1    1    2    0    0  0.12454646583E-01 -0.36383153505E-02  0.20428732932E-01  0.24201005956E-01  0.00000000000E+00 0.  1.
     999901    1    3    3    0    0 -0.87423231013E-01 -0.99563051958E-01 -0.93888096928E-02  0.88996841089E+00  0.88000000000E+00 0. -1.
        -11    1    4    4    0    0  0.56997184882E-01  0.78159648973E-01  0.79566362746E-03  0.96739361243E-01  0.51100000000E-03 0.  1.
         11    1    4    4    0    0  0.17971399549E-01  0.25041718336E-01 -0.11835586867E-01  0.33021221910E-01  0.51100000000E-03 0. -1.
</event>
<event>
 8    1  0.1177602E+005  0.1043930E+01  0.7957747E-01            NaN
         13   -1    0    0    0    0  0.00000000000E+00  0.00000000000E+00  0.74505805969E-08  0.10566000000E+00  0.10566000000E+00 0. -1.
     999900   -1    0    0    0    0 -0.00000000000E+00 -0.00000000000E+00 -0.74505805969E-08  0.93827000000E+00  0.93827000000E+00 0.  1.
     999902    2    1    2    0    0 -0.19228110614E-01 -0.79588726284E-02 -0.10787433780E-01  0.10204900209E+01  0.10202207850E+01 0.  0.
     999903    2    3    3    0    0  0.26240993516E-01  0.11086261819E+00  0.56537810070E-01  0.12879574901E+00  0.20315293324E-01 0.  0.
         14    1    1    2    0    0  0.19228110614E-01  0.79588726284E-02  0.10787433780E-01  0.23439979072E-01  0.00000000000E+00 0. -1.
     999901    1    3    3    0    0 -0.45469104130E-01 -0.11882149082E+00 -0.67325243850E-01  0.89169427192E+00  0.88000000000E+00 0.  1.
        -11    1    4    4    0    0  0.13742204949E-02  0.37104254105E-01  0.11534061234E-01  0.38883284895E-01  0.51100000000E-03 0.  1.
         11    1    4    4    0    0  0.24866773021E-01  0.73758364086E-01  0.45003748836E-01  0.89912464116E-01  0.51100000000E-03 0. -1.
</event>
<event>
 8    1  0.1177602E+005  0.1043930E+01  0.7957747E-01            NaN
         13   -1    0    0    0    0  0.00000000000E+00  0.00000000000E+00  0.74505805969E-08  0.10566000000E+00  0.10566000000E+00 0.  1.
     999900   -1    0    0    0    0 -0.00000000000E+00 -0.00000000000E+00 -0.74505805969E-08  0.93827000000E+00  0.93827000000E+00 0.  1.
     999902    2    1    2    0    0 -0.16844082275E-01  0.92061079723E-02  0.16676033499E-01  0.10185023453E+01  0.10181848858E+01 0.  0.
     999903    2    3    3    0    0 -0.21428801730E-01 -0.12453244877E+00 -0.40992021336E-02  0.12814363575E+00  0.20891710867E-01 0.  0.
         14    1    1    2    0    0  0.16844082275E-01 -0.92061079723E-02 -0.16676033499E-01  0.25427654728E-01  0.00000000000E+00 0. -1.
     999901    1    3    3    0    0  0.45847194549E-02  0.13373855675E+00  0.20775235633E-01  0.89035870953E+00  0.88000000000E+00 0. -1.
        -11    1    4    4    0    0 -0.84142468265E-02 -0.33918438588E-01  0.78523000169E-02  0.35821498607E-01  0.51100000000E-03 0. -1.
         11    1    4    4    0    0 -0.13014554904E-01 -0.90614010185E-01 -0.11951502151E-01  0.92322137139E-01  0.51100000000E-03 0.  1.
</event>
<event>
 8    1  0.1177602E+005  0.1043930E+01  0.7957747E-01            NaN
         13   -1    0    0    0    0  0.00000000000E+00  0.00000000000E+00  0.74505805969E-08  0.10566000000E+00  0.10566000000E+00 0.  1.
     999900   -1    0    0    0    0 -0.00000000000E+00 -0.00000000000E+00 -0.74505805969E-08  0.93827000000E+00  0.93827000000E+00 0. -1.
     999902    2    1    2    0    0  0.21414408760E-01 -0.43879468445E-02 -0.59876171307E-02  0.10212654343E+01  0.10210139102E+01 0.  0.
     999903    2    3    3    0    0 -0.78983297330E-01 -0.99679630574E-01  0.18021244857E-01  0.13012199475E+00  0.20798515405E-01 0.  0.
         14    1    1    2    0    0 -0.21414408760E-01  0.43879468445E-02  0.59876171307E-02  0.22664565713E-01  0.00000000000E+00 0.  1.
     999901    1    3    3    0    0  0.10039770609E+00  0.95291683730E-01 -0.24008861988E-01  0.89114343954E+00  0.88000000000E+00 0. -1.
        -11    1    4    4    0    0 -0.36609480620E-01 -0.58299336410E-01  0.24795787505E-02  0.68887416332E-01  0.51100000000E-03 0.  1.
         11    1    4    4    0    0 -0.42373816710E-01 -0.41380294164E-01  0.15541666107E-01  0.61234578418E-01  0.51100000000E-03 0. -1.
</event>
<event>
 7    1  0.1177602E+005  0.1043930E+01  0.7957747E-01            NaN
         13   -1    0    0    0    0  0.00000000000E+00  0.00000000000E+00  0.74505805969E-08  0.10566000000E+00  0.10566000000E+00 0.  1.
     999900   -1    0    0    0    0 -0.00000000000E+00 -0.00000000000E+00 -0.74505805969E-08  0.93827000000E+00  0.93827000000E+00 0. -1.
     999903    2    1    2    0    0  0.34285934580E-01 -0.79977154625E-01 -0.75869316207E-01  0.11730757424E+00  0.20809691510E-01 0.  0.
         14    1    1    2    0    0 -0.56637822203E-02  0.11204334771E-01  0.40899699550E-01  0.42783185599E-01  0.00000000000E+00 0.  1.
     999901    1    1    2    0    0 -0.28622152360E-01  0.68772819855E-01  0.34969616657E-01  0.88383924016E+00  0.88000000000E+00 0. -1.
        -11    1    3    3    0    0  0.25438762543E-01 -0.72879084446E-01 -0.59871463998E-01  0.97690045100E-01  0.51100000000E-03 0.  1.
         11    1    3    3    0    0  0.88471720372E-02 -0.70980701799E-02 -0.15997852209E-01  0.19617529142E-01  0.51100000000E-03 0. -1.
</event>
<event>
 8    1  0.1177602E+005  0.1043930E+01  0.7957747E-01            NaN
         13   -1    0    0    0    0  0.00000000000E+00  0.00000000000E+00  0.74505805969E-08  0.10566000000E+00  0.10566000000E+00 0. -1.
     999900   -1    0    0    0    0 -0.00000000000E+00 -0.00000000000E+00 -0.74505805969E-08  0.93827000000E+00  0.93827000000E+00 0.  1.
     999902    2    1    2    0    0 -0.13954283901E-01  0.92734579157E-02  0.16318114880E-01  0.10205419703E+01  0.10202739403E+01 0.  0.
     999903    2    3    3    0    0  0.23411405348E-01  0.12694590560E+00  0.18770325369E-01  0.13191999609E+00  0.19677484710E-01 0.  0.
         14    1    1    2    0    0  0.13954283901E-01 -0.92734579157E-02 -0.16318114880E-01  0.23388029720E-01  0.00000000000E+00 0.  1.
     999901    1    3    3    0    0 -0.37365689249E-01 -0.11767244769E+00 -0.24522104884E-02  0.88862197419E+00  0.88000000000E+00 0.  1.
        -11    1    4    4    0    0  0.82906775677E-02  0.89445809278E-01  0.17132242552E-01  0.91449783968E-01  0.51100000000E-03 0. -1.
         11    1    4    4    0    0  0.15120727780E-01  0.37500096324E-01  0.16380828168E-02  0.40470212122E-01  0.51100000000E-03 0.  1.
</event>
<event>
 7    1  0.1177602E+005  0.1043930E+01  0.7957747E-01            NaN
         13   -1    0    0    0    0  0.00000000000E+00  0.00000000000E+00  0.74505805969E-08  0.10566000000E+00  0.10566000000E+00 0.  1.
     999900   -1    0    0    0    0 -0.00000000000E+00 -0.00000000000E+00 -0.74505805969E-08  0.93827000000E+00  0.93827000000E+00 0.  1.
     999903    2    1    2    0    0  0.63371878118E-01  0.11424305340E-01 -0.36025810000E-01  0.76466926624E-01  0.20070430799E-01 0.  0.
         14    1    1    2    0    0 -0.67709305108E-01  0.50668802550E-01  0.11976100873E-02  0.84577253562E-01  0.00000000000E+00 0. -1.
     999901    1    1    2    0    0  0.43374269899E-02 -0.62093107890E-01  0.34828199912E-01  0.88288581981E+00  0.88000000000E+00 0. -1.
        -11    1    3    3    0    0  0.41498456898E-01  0.14187092747E-01 -0.16026394888E-01  0.46695845422E-01  0.51100000000E-03 0. -1.
         11    1    3    3    0    0  0.21873421220E-01 -0.27627874078E-02 -0.19999415112E-01  0.29771081202E-01  0.51100000000E-03 0.  1.
</event>
<event>
 8    1  0.1177602E+005  0.1043930E+01  0.7957747E-01            NaN
         13   -1    0    0    0    0  0.00000000000E+00  0.00000000000E+00  0.74505805969E-08  0.10566000000E+00  0.10566000000E+00 0. -1.
     999900   -1    0    0    0    0 -0.00000000000E+00 -0.00000000000E+00 -0.74505805969E-08  0.93827000000E+00  0.93827000000E+00 0. -1.
     999902    2    1    2    0    0 -0.22116356577E-01 -0.75818502149E-02  0.55066838414E-02  0.10199103987E+01  0.10196275203E+01 0.  0.
     999903    2    3    3    0    0 -0.58312979428E-01 -0.11148160663E+00 -0.35215354918E-01  0.13212459155E+00  0.19703661688E-01 0.  0.
         14    1    1    2    0    0  0.22116356577E-01  0.75818502149E-02 -0.55066838414E-02  0.24019601326E-01  0.00000000000E+00 0.  1.
     999901    1    3    3    0    0  0.36196622851E-01  0.10389975642E+00  0.40722038759E-01  0.88778580712E+00  0.88000000000E+00 0.  1.
        -11    1    4    4    0    0 -0.15221600309E-01 -0.40550998688E-01 -0.41875498817E-02  0.43518700642E-01  0.51100000000E-03 0.  1.
         11    1    4    4    0    0 -0.43091379118E-01 -0.70930607942E-01 -0.31027805036E-01  0.88605890909E-01  0.51100000000E-03 0. -1.
</event>
<event>
 8    1  0.1177602E+005  0.1043930E+01  0.7957747E-01            NaN
         13   -1    0    0    0    0  0.00000000000E+00  0.00000000000E+00  0.74505805969E-08  0.10566000000E+00  0.10566000000E+00 0. -1.
     999900   -1    0    0    0    0 -0.00000000000E+00 -0.00000000000E+00 -0.74505805969E-08  0.93827000000E+00  0.93827000000E+00 0.  1.
     999902    2    1    2    0    0  0.17900827919E-01 -0.41071217361E-02 -0.12124315603E-01  0.10219230212E+01  0.10216860350E+01 0.  0.
     999903    2    3    3    0    0 -0.10278500073E+00  0.43139571694E-01  0.62421223884E-01  0.12931204389E+00  0.19985406705E-01 0.  0.
         14    1    1    2    0    0 -0.17900827919E-01  0.41071217361E-02  0.12124315603E-01  0.22006978848E-01  0.00000000000E+00 0.  1.
     999901    1    3    3    0    0  0.12068582865E+00 -0.47246693430E-01 -0.74545539488E-01  0.89261097727E+00  0.88000000000E+00 0.  1.
        -11    1    4    4    0    0 -0.53418181734E-01  0.11604907689E-01  0.29961661238E-01  0.62338898670E-01  0.51100000000E-03 0.  1.
         11    1    4    4    0    0 -0.49366818999E-01  0.31534664004E-01  0.32459562646E-01  0.66973145216E-01  0.51100000000E-03 0. -1.
</event>
<event>
 8    1  0.1177602E+005  0.1043930E+01  0.7957747E-01            NaN
         13   -1    0    0    0    0  0.00000000000E+00  0.00000000000E+00  0.74505805969E-08  0.10566000000E+00  0.10566000000E+00 0.  1.
     999900   -1    0    0    0    0 -0.00000000000E+00 -0.00000000000E+00 -0.74505805969E-08  0.93827000000E+00  0.93827000000E+00 0. -1.
     999902    2    1    2    0    0  0.14949691958E-01 -0.86567220046E-02  0.16065736383E-01  0.10203388997E+01  0.10200661402E+01 0.  0.
     999903    2    3    3    0    0  0.10895022748E+00 -0.62312127563E-01 -0.35780327068E-01  0.13219306853E+00  0.21019568296E-01 0.  0.
         14    1    1    2    0    0 -0.14949691958E-01  0.86567220046E-02 -0.16065736383E-01  0.23591100251E-01  0.00000000000E+00 0.  1.
     999901    1    3    3    0    0 -0.94000535524E-01  0.53655405558E-01  0.51846063451E-01  0.88814583122E+00  0.88000000000E+00 0.  1.
        -11    1    4    4    0    0  0.31329837925E-01 -0.10213598964E-01 -0.28575806815E-02  0.33080254482E-01  0.51100000000E-03 0.  1.
         11    1    4    4    0    0  0.77620389557E-01 -0.52098528599E-01 -0.32922746386E-01  0.99112814044E-01  0.51100000000E-03 0. -1.
</event>
<event>
 8    1  0.1177602E+005  0.1043930E+01  0.7957747E-01            NaN
         13   -1    0    0    0    0  0.00000000000E+00  0.00000000000E+00  0.74505805969E-08  0.10566000000E+00  0.10566000000E+00 0. -1.
     999900   -1    0    0    0    0 -0.00000000000E+00 -0.00000000000E+00 -0.74505805969E-08  0.93827000000E+00  0.93827000000E+00 0. -1.
     999902    2    1    2    0    0  0.17611501127E-01  0.24752363818E-02  0.15848857911E-01  0.10201082019E+01  0.10198300180E+01 0.  0.
     999903    2    3    3    0    0  0.72733558649E-01 -0.30439654912E-01  0.10564466236E+00  0.13321186198E+00  0.19179737750E-01 0.  0.
         14    1    1    2    0    0 -0.17611501127E-01 -0.24752363818E-02 -0.15848857911E-01  0.23821798089E-01  0.00000000000E+00 0. -1.
     999901    1    3    3    0    0 -0.55122057522E-01  0.32914891294E-01 -0.89795804452E-01  0.88689633994E+00  0.88000000000E+00 0. -1.
        -11    1    4    4    0    0  0.20607697506E-01 -0.80853644097E-02  0.45141498142E-01  0.50279879570E-01  0.51100000000E-03 0. -1.
         11    1    4    4    0    0  0.52125861144E-01 -0.22354290502E-01  0.60503164221E-01  0.82931982405E-01  0.51100000000E-03 0.  1.
</event>
<event>
 8    1  0.1177602E+005  0.1043930E+01  0.7957747E-01            NaN
         13   -1    0    0    0    0  0.00000000000E+00  0.00000000000E+00  0.74505805969E-08  0.10566000000E+00  0.10566000000E+00 0.  1.
     999900   -1    0    0    0    0 -0.00000000000E+00 -0.00000000000E+00 -0.74505805969E-08  0.93827000000E+00  0.93827000000E+00 0. -1.
     999902    2    1    2    0    0 -0.89746580366E-02  0.16926569624E-02 -0.19740656460E-01  0.10221790669E+01  0.10219476218E+01 0.  0.
     999903    2    3    3    0    0  0.11876464431E+00  0.51351915282E-01 -0.12783800829E-01  0.13154346847E+00  0.19954914004E-01 0.  0.
         14    1    1    2    0    0  0.89746580366E-02 -0.16926569624E-02  0.19740656460E-01  0.21750933128E-01  0.00000000000E+00 0.  1.
     999901    1    3    3    0    0 -0.12773930234E+00 -0.49659258320E-01 -0.69568556311E-02  0.89063559840E+00  0.88000000000E+00 0. -1.
        -11    1    4    4    0    0  0.42744249418E-01  0.27578978211E-01 -0.34631424412E-06  0.50871721207E-01  0.51100000000E-03 0. -1.
         11    1    4    4    0    0  0.76020394890E-01  0.23772937072E-01 -0.12783454514E-01  0.80671747264E-01  0.51100000000E-03 0.  1.
</event>
<event>
 8    1  0.1177602E+005  0.1043930E+01  0.7957747E-01            NaN
         13   -1    0    0    0    0  0.00000000000E+00  0.00000000000E+00  0.74505805969E-08  0.10566000000E+00  0.10566000000E+00 0. -1.
     999900   -1    0    0    0    0 -0.00000000000E+00 -0.00000000000E+00 -0.74505805969E-08  0.93827000000E+00  0.93827000000E+00 0. -1.
     999902    2    1    2    0    0 -0.18553888412E-01 -0.32352653406E-02 -0.16645735512E-01  0.10187944827E+01  0.10184843660E+01 0.  0.
     999903    2    3    3    0    0 -0.58309605072E-01  0.33393633955E-01 -0.11183762946E+00  0.13201170780E+00  0.20106983872E-01 0.  0.
         14    1    1    2    0    0  0.18553888412E-01  0.32352653406E-02  0.16645735512E-01  0.25135517257E-01  0.00000000000E+00 0.  1.
     999901    1    3    3    0    0  0.39755716660E-01 -0.36628899296E-01  0.95191893944E-01  0.88678277495E+00  0.88000000000E+00 0. -1.
        -11    1    4    4    0    0 -0.32554699992E-01  0.71367534828E-02 -0.51449670490E-01  0.61303111311E-01  0.51100000000E-03 0. -1.
         11    1    4    4    0    0 -0.25754905080E-01  0.26256880472E-01 -0.60387958966E-01  0.70708596485E-01  0.51100000000E-03 0.  1.
</event>
<event>
 8    1  0.1177602E+005  0.1043930E+01  0.7957747E-01            NaN
         13   -1    0    0    0    0  0.00000000000E+00  0.00000000000E+00  0.74505805969E-08  0.10566000000E+00  0.10566000000E+00 0.  1.
     999900   -1    0    0    0    0 -0.00000000000E+00 -0.00000000000E+00 -0.74505805969E-08  0.93827000000E+00  0.93827000000E+00 0.  1.
     999902    2    1    2    0    0 -0.61913680146E-02  0.19641431447E-01 -0.13005181327E-01  0.10195732020E+01  0.10192822282E+01 0.  0.
     999903    2    3    3    0    0 -0.20608606447E-02 -0.11777671615E+00 -0.46961448922E-01  0.12825180291E+00  0.19171469716E-01 0.  0.
         14    1    1    2    0    0  0.61913680146E-02 -0.19641431447E-01  0.13005181327E-01  0.24356797994E-01  0.00000000000E+00 0. -1.
     999901    1    3    3    0    0 -0.41305073699E-02  0.13741814760E+00  0.33956267596E-01  0.89132139910E+00  0.88000000000E+00 0.  1.
        -11    1    4    4    0    0  0.35573292405E-02 -0.94808964501E-01 -0.31387511947E-01  0.99934135151E-01  0.51100000000E-03 0.  1.
         11    1    4    4    0    0 -0.56181898851E-02 -0.22967751647E-01 -0.15573936976E-01  0.28317667758E-01  0.51100000000E-03 0. -1.
</event>
<event>
 8    1  0.1177602E+005  0.1043930E+01  0.7957747E-01            NaN
         13   -1    0    0    0    0  0.00000000000E+00  0.00000000000E+00  0.74505805969E-08  0.10566000000E+00  0.10566000000E+00 0.  1.
     999900   -1    0    0    0    0 -0.00000000000E+00 -0.00000000000E+00 -0.74505805969E-08  0.93827000000E+00  0.93827000000E+00 0. -1.
     999902    2    1    2    0    0  0.17618297244E-01  0.13378523493E-01  0.39503593689E-02  0.10214579145E+01  0.10212106915E+01 0.  0.
     999903    2    3    3    0    0  0.83422586250E-01  0.60332568407E-01  0.83629419298E-01  0.13416786079E+00  0.20193771036E-01 0.  0.
         14    1    1    2    0    0 -0.17618297244E-01 -0.13378523493E-01 -0.39503593689E-02  0.22472085524E-01  0.00000000000E+00 0. -1.
     999901    1    3    3    0    0 -0.65804289006E-01 -0.46954044913E-01 -0.79679059929E-01  0.88729005369E+00  0.88000000000E+00 0. -1.
        -11    1    4    4    0    0  0.52423241591E-01  0.49163322990E-01  0.59884341266E-01  0.93550115105E-01  0.51100000000E-03 0.  1.
         11    1    4    4    0    0  0.30999344660E-01  0.11169245417E-01  0.23745078033E-01  0.40617745682E-01  0.51100000000E-03 0. -1.
</event>
<event>
 8    1  0.1177602E+005  0.1043930E+01  0.7957747E-01            NaN
         13   -1    0    0    0    0  0.00000000000E+00  0.00000000000E+00  0.74505805969E-08  0.10566000000E+00  0.10566000000E+00 0.  1.
     999900   -1    0    0    0    0 -0.00000000000E+00 -0.00000000000E+00 -0.74505805969E-08  0.93827000000E+00  0.93827000000E+00 0. -1.
     999902    2    1    2    0    0  0.20437319916E-01  0.59443416481E-02  0.75784222262E-02  0.10213368212E+01  0.10210868967E+01 0.  0.
     999903    2    3    3    0    0 -0.74057896066E-01 -0.15334457812E-01 -0.10275203888E+00  0.12917375106E+00  0.20202942912E-01 0.  0.
         14    1    1    2    0    0 -0.20437319916E-01 -0.59443416481E-02 -0.75784222262E-02  0.22593178758E-01  0.00000000000E+00 0. -1.
     999901    1    3    3    0    0  0.94495215981E-01  0.21278799460E-01  0.11033046111E+00  0.89216307018E+00  0.88000000000E+00 0.  1.
        -11    1    4    4    0    0 -0.45500466496E-01 -0.12914902305E-01 -0.78390647126E-01  0.91555676125E-01  0.51100000000E-03 0. -1.
         11    1    4    4    0    0 -0.28557429569E-01 -0.24195555062E-02 -0.24361391755E-01  0.37618074934E-01  0.51100000000E-03 0.  1.
</event>
<event>
 8    1  0.1177602E+005  0.1043930E+01  0.7957747E-01            NaN
         13   -1    0    0    0    0  0.00000000000E+00  0.00000000000E+00  0.74505805969E-08  0.10566000000E+00  0.10566000000E+00 0.  1.
     999900   -1    0    0    0    0 -0.00000000000E+00 -0.00000000000E+00 -0.74505805969E-08  0.93827000000E+00  0.93827000000E+00 0. -1.
     999902    2    1    2    0    0  0.11707546834E-02  0.18281748011E-01  0.16218159310E-01  0.10194632538E+01  0.10191696150E+01 0.  0.
     999903    2    3    3    0    0 -0.85223134803E-01  0.29128919676E-01 -0.89741769476E-01  0.12884039774E+00  0.20851528348E-01 0.  0.
         14    1    1    2    0    0 -0.11707546834E-02 -0.18281748011E-01 -0.16218159310E-01  0.24466746173E-01  0.00000000000E+00 0.  1.
     999901    1    3    3    0    0  0.86393889486E-01 -0.10847171665E-01  0.10595992879E+00  0.89062285609E+00  0.88000000000E+00 0.  1.
        -11    1    4    4    0    0 -0.58489502581E-01  0.29302511132E-01 -0.68185460069E-01  0.94494323410E-01  0.51100000000E-03 0.  1.
         11    1    4    4    0    0 -0.26733632222E-01 -0.17359145622E-03 -0.21556309407E-01  0.34346074332E-01  0.51100000000E-03 0. -1.
</event>
<event>
 8    1  0.1177602E+005  0.1043930E+01  0.7957747E-01            NaN
         13   -1    0    0    0    0  0.00000000000E+00  0.00000000000E+00  0.74505805969E-08  0.10566000000E+00  0.10566000000E+00 0.  1.
     999900   -1    0    0    0    0 -0.00000000000E+00 -0.00000000000E+00 -0.74505805969E-08  0.93827000000E+00  0.93827000000E+00 0.  1.
     999902    2    1    2    0    0  0.14855822896E-01 -0.17015140638E-01  0.18238509286E-02  0.10212686471E+01  0.10210171950E+01 0.  0.
     999903    2    3    3    0    0 -0.11761654430E+00  0.39636974915E-01  0.25965070088E-01  0.12922538089E+00  0.24905279111E-01 0.  0.
         14    1    1    2    0    0 -0.14855822896E-01  0.17015140638E-01 -0.18238509286E-02  0.22661352939E-01  0.00000000000E+00 0.  1.
     999901    1    3    3    0    0  0.13247236719E+00 -0.56652115552E-01 -0.24141219160E-01  0.89204326618E+00  0.88000000000E+00 0.  1.
        -11    1    4    4    0    0 -0.43582476185E-02 -0.29819882514E-02 -0.57498105871E-03  0.53365063902E-02  0.51100000000E-03 0.  1.
         11    1    4    4    0    0 -0.11325829668E+00  0.42618963166E-01  0.26540051147E-01  0.12388887450E+00  0.51100000000E-03 0. -1.
</event>
<event>
 8    1  0.1177602E+005  0.1043930E+01  0.7957747E-01            NaN
         13   -1    0    0    0    0  0.00000000000E+00  0.00000000000E+00  0.74505805969E-08  0.10566000000E+00  0.10566000000E+00 0. -1.
     999900   -1    0    0    0    0 -0.00000000000E+00 -0.00000000000E+00 -0.74505805969E-08  0.93827000000E+00  0.93827000000E+00 0.  1.
     999902    2    1    2    0    0  0.93851698665E-02 -0.19146662381E-01  0.99011255627E-02  0.10204202492E+01  0.10201493894E+01 0.  0.
     999903    2    3    3    0    0 -0.11378796467E+00  0.28942959464E-01 -0.48779755937E-01  0.12860879009E+00  0.19374222371E-01 0.  0.
         14    1    1    2    0    0 -0.93851698665E-02  0.19146662381E-01 -0.99011255627E-02  0.23509750768E-01  0.00000000000E+00 0.  1.
     999901    1    3    3    0    0  0.12317313454E+00 -0.48089621845E-01  0.58680881500E-01  0.89181145914E+00  0.88000000000E+00 0.  1.
        -11    1    4    4    0    0 -0.65933686889E-01  0.24307262600E-01 -0.22347267876E-01  0.73741139023E-01  0.51100000000E-03 0. -1.
         11    1    4    4    0    0 -0.47854277784E-01  0.46356968640E-02 -0.26432488061E-01  0.54867651068E-01  0.51100000000E-03 0.  1.
</event>
<event>
 8    1  0.1177602E+005  0.1043930E+01  0.7957747E-01            NaN
         13   -1    0    0    0    0  0.00000000000E+00  0.00000000000E+00  0.74505805969E-08  0.10566000000E+00  0.10566000000E+00 0. -1.
     999900   -1    0    0    0    0 -0.00000000000E+00 -0.00000000000E+00 -0.74505805969E-08  0.93827000000E+00  0.93827000000E+00 0.  1.
     999902    2    1    2    0    0 -0.11027932158E-01  0.16786059281E-01 -0.96089921830E-02  0.10216652340E+01  0.10214226014E+01 0.  0.
     999903    2    3    3    0    0  0.11810126999E+00  0.53907693106E-01  0.54338961699E-02  0.13134020626E+00  0.19151323826E-01 0.  0.
         14    1    1    2    0    0  0.11027932158E-01 -0.16786059281E-01  0.96089921830E-02  0.22264765991E-01  0.00000000000E+00 0. -1.
     999901    1    3    3    0    0 -0.12912920215E+00 -0.37121633825E-01 -0.15042888353E-01  0.89032502775E+00  0.88000000000E+00 0.  1.
        -11    1    4    4    0    0  0.82538542565E-01  0.41143286449E-01 -0.42758570840E-02  0.92325105488E-01  0.51100000000E-03 0.  1.
         11    1    4    4    0    0  0.35562727423E-01  0.12764406657E-01  0.97097532539E-02  0.39015100773E-01  0.51100000000E-03 0. -1.
</event>
<event>
 8    1  0.1177602E+005  0.1043930E+01  0.7957747E-01            NaN
         13   -1    0    0    0    0  0.00000000000E+00  0.00000000000E+00  0.74505805969E-08  0.10566000000E+00  0.10566000000E+00 0. -1.
     999900   -1    0    0    0    0 -0.00000000000E+00 -0.00000000000E+00 -0.74505805969E-08  0.93827000000E+00  0.93827000000E+00 0. -1.
     999902    2    1    2    0    0  0.43485807585E-02 -0.44306387024E-02 -0.22306015048E-01  0.10207761878E+01  0.10205135602E+01 0.  0.
     999903    2    3    3    0    0 -0.18623660990E-01 -0.12761340991E+00  0.12829065325E-01  0.13120539637E+00  0.20451112017E-01 0.  0.
         14    1    1    2    0    0 -0.43485807585E-02  0.44306387024E-02  0.22306015048E-01  0.23153812240E-01  0.00000000000E+00 0. -1.
     999901    1    3    3    0    0  0.22972241748E-01  0.12318277121E+00 -0.35135080373E-01  0.88957079139E+00  0.88000000000E+00 0.  1.
        -11    1    4    4    0    0 -0.15538857275E-01 -0.11252477968E+00  0.17873885475E-01  0.11499138677E+00  0.51100000000E-03 0. -1.
         11    1    4    4    0    0 -0.30848037149E-02 -0.15088630228E-01 -0.50448201500E-02  0.16214009605E-01  0.51100000000E-03 0.  1.
</event>
<event>
 8    1  0.1177602E+005  0.1043930E+01  0.7957747E-01            NaN
         13   -1    0    0    0    0  0.00000000000E+00  0.00000000000E+00  0.74505805969E-08  0.10566000000E+00  0.10566000000E+00 0.  1.
     999900   -1    0    0    0    0 -0.00000000000E+00 -0.00000000000E+00 -0.74505805969E-08  0.93827000000E+00  0.93827000000E+00 0. -1.
     999902    2    1    2    0    0  0.17580256894E-01 -0.15798867298E-01  0.39094894131E-03  0.10202905736E+01  0.10200166822E+01 0.  0.
     999903    2    3    3    0    0 -0.90165514721E-01  0.32883931667E-01 -0.83094271124E-01  0.12846718962E+00  0.19697408646E-01 0.  0.
         14    1    1    2    0    0 -0.17580256894E-01  0.15798867298E-01 -0.39094894131E-03  0.23639426420E-01  0.00000000000E+00 0.  1.
     999901    1    3    3    0    0  0.10774577162E+00 -0.48682798965E-01  0.83485220065E-01  0.89182338396E+00  0.88000000000E+00 0.  1.
        -11    1    4    4    0    0 -0.33179670158E-01  0.18455554720E-01 -0.42698387541E-01  0.57139403492E-01  0.51100000000E-03 0. -1.
         11    1    4    4    0    0 -0.56985844563E-01  0.14428376947E-01 -0.40395883583E-01  0.71327786124E-01  0.51100000000E-03 0.  1.
</event>
<event>
 8    1  0.1177602E+005  0.1043930E+01  0.7957747E-01            NaN
         13   -1    0    0    0    0  0.00000000000E+00  0.00000000000E+00  0.74505805969E-08  0.10566000000E+00  0.10566000000E+00 0. -1.
     999900   -1    0    0    0    0 -0.00000000000E+00 -0.00000000000E+00 -0.74505805969E-08  0.93827000000E+00  0.93827000000E+00 0. -1.
     999902    2    1    2    0    0  0.20865275481E-01 -0.10488434099E-01 -0.60115667736E-02  0.10198155664E+01  0.10195304231E+01 0.  0.
     999903    2    3    3    0    0  0.92084858630E-01  0.16549265163E-02 -0.93142011782E-01  0.13256621892E+00  0.20396275870E-01 0.  0.
         14    1    1    2    0    0 -0.20865275481E-01  0.10488434099E-01  0.60115667736E-02  0.24114433558E-01  0.00000000000E+00 0. -1.
     999901    1    3    3    0    0 -0.71219583149E-01 -0.12143360616E-01  0.87130445008E-01  0.88724934752E+00  0.88000000000E+00 0.  1.
        -11    1    4    4    0    0  0.23588476920E-01 -0.54010952528E-02 -0.34353859205E-01  0.42024241059E-01  0.51100000000E-03 0.  1.
         11    1    4    4    0    0  0.68496381710E-01  0.70560217691E-02 -0.58788152577E-01  0.90541977861E-01  0.51100000000E-03 0. -1.
</event>
<event>
 8    1  0.1177602E+005  0.1043930E+01  0.7957747E-01            NaN
         13   -1    0    0    0    0  0.00000000000E+00  0.00000000000E+00  0.74505805969E-08  0.10566000000E+00  0.10566000000E+00 0.  1.
     999900   -1    0    0    0    0 -0.00000000000E+00 -0.00000000000E+00 -0.74505805969E-08  0.93827000000E+00  0.93827000000E+00 0. -1.
     999902    2    1    2    0    0 -0.17926746996E-01 -0.10300301023E-01 -0.36928627385E-03  0.10232514887E+01  0.10230425251E+01 0.  0.
     999903    2    3    3    0    0  0.72598706104E-01 -0.98675839364E-01 -0.47606896630E-01  0.13295014345E+00  0.20045713647E-01 0.  0.
         14    1    1    2    0    0  0.17926746996E-01  0.10300301023E-01  0.36928627385E-03  0.20678511344E-01  0.00000000000E+00 0.  1.
     999901    1    3    3    0    0 -0.90525453101E-01  0.88375538341E-01  0.47237610357E-01  0.89030134520E+00  0.88000000000E+00 0.  1.
        -11    1    4    4    0    0  0.28945281957E-01 -0.24125079548E-01 -0.16324496667E-01  0.41068225226E-01  0.51100000000E-03 0. -1.
         11    1    4    4    0    0  0.43653424147E-01 -0.74550759816E-01 -0.31282399964E-01  0.91881918229E-01  0.51100000000E-03 0.  1.
</event>
<event>
 8    1  0.1177602E+005  0.1043930E+01  0.7957747E-01            NaN
         13   -1    0    0    0    0  0.00000000000E+00  0.00000000000E+00  0.74505805969E-08  0.10566000000E+00  0.10566000000E+00 0.  1.
     999900   -1    0    0    0    0 -0.00000000000E+00 -0.00000000000E+00 -0.74505805969E-08  0.93827000000E+00  0.93827000000E+00 0.  1.
     999902    2    1    2    0    0  0.19638454502E-01  0.15445517213E-01 -0.26247938985E-02  0.10188078496E+01  0.10184980668E+01 0.  0.
     999903    2    3    3    0    0  0.50468538847E-01  0.76115219174E-01  0.91942493935E-01  0.13112869656E+00  0.20017813726E-01 0.  0.
         14    1    1    2    0    0 -0.19638454502E-01 -0.15445517213E-01  0.26247938985E-02  0.25122150390E-01  0.00000000000E+00 0.  1.
     999901    1    3    3    0    0 -0.30830084345E-01 -0.60669701961E-01 -0.94567287834E-01  0.88767915305E+00  0.88000000000E+00 0.  1.
        -11    1    4    4    0    0  0.29770766867E-01  0.36948859292E-01  0.34908169019E-01  0.58909745782E-01  0.51100000000E-03 0. -1.
         11    1    4    4    0    0  0.20697771980E-01  0.39166359882E-01  0.57034324917E-01  0.72218950775E-01  0.51100000000E-03 0.  1.
</event>
<event>
 8    1  0.1177602E+005  0.1043930E+01  0.7957747E-01            NaN
         13   -1    0    0    0    0  0.00000000000E+00  0.00000000000E+00  0.74505805969E-08  0.10566000000E+00  0.10566000000E+00 0. -1.
     999900   -1    0    0    0    0 -0.00000000000E+00 -0.00000000000E+00 -0.74505805969E-08  0.93827000000E+00  0.93827000000E+00 0.  1.
     999902    2    1    2    0    0 -0.21942570547E-01 -0.13728303176E-02 -0.96466220983E-02  0.10199212853E+01  0.10196386663E+01 0.  0.
     999903    2    3    3    0    0 -0.10988472439E+00 -0.34420686293E-01 -0.64034563111E-01  0.13325109216E+00  0.19899547500E-01 0.  0.
         14    1    1    2    0    0  0.21942570547E-01  0.13728303176E-02  0.96466220983E-02  0.24008714735E-01  0.00000000000E+00 0. -1.
     999901    1    3    3    0    0  0.87942153843E-01  0.33047855975E-01  0.54387941013E-01  0.88667019310E+00  0.88000000000E+00 0. -1.
        -11    1    4    4    0    0 -0.27522746636E-01 -0.17090463890E-01 -0.13677635527E-01  0.35169935641E-01  0.51100000000E-03 0.  1.
         11    1    4    4    0    0 -0.82361977754E-01 -0.17330222403E-01 -0.50356927585E-01  0.98081156523E-01  0.51100000000E-03 0. -1.
</event>
<event>
 8    1  0.1177602E+005  0.1043930E+01  0.7957747E-01            NaN
         13   -1    0    0    0    0  0.00000000000E+00  0.00000000000E+00  0.74505805969E-08  0.10566000000E+00  0.10566000000E+00 0. -1.
     999900   -1    0    0    0    0 -0.00000000000E+00 -0.00000000000E+00 -0.74505805969E-08  0.93827000000E+00  0.93827000000E+00 0.  1.
     999902    2    1    2    0    0 -0.20025413764E-01  0.68937331566E-02 -0.10173894951E-01  0.10204342793E+01  0.10201637464E+01 0.  0.
     999903    2    3    3    0    0  0.65241467530E-01  0.56505674685E-01  0.93707164694E-01  0.12884970094E+00  0.19283992365E-01 0.  0.
         14    1    1    2    0    0  0.20025413764E-01 -0.68937331566E-02  0.10173894951E-01  0.23495720711E-01  0.00000000000E+00 0. -1.
     999901    1    3    3    0    0 -0.85266881294E-01 -0.49611941528E-01 -0.10388105964E+00  0.89158457834E+00  0.88000000000E+00 0.  1.
        -11    1    4    4    0    0  0.75230043635E-02  0.23478044994E-02  0.16437065465E-01  0.18235844448E-01  0.51100000000E-03 0. -1.
         11    1    4    4    0    0  0.57718463167E-01  0.54157870185E-01  0.77270099229E-01  0.11061385650E+00  0.51100000000E-03 0.  1.
</event>
<event>
 8    1  0.1177602E+005  0.1043930E+01  0.7957747E-01            NaN
         13   -1    0    0    0    0  0.00000000000E+00  0.00000000000E+00  0.74505805969E-08  0.10566000000E+00  0.10566000000E+00 0.  1.
     999900   -1    0    0    0    0 -0.00000000000E+00 -0.00000000000E+00 -0.74505805969E-08  0.93827000000E+00  0.93827000000E+00 0.  1.
     999902    2    1    2    0    0 -0.15989305975E-01  0.16852015697E-02  0.16988729235E-01  0.10205395162E+01  0.10202714293E+01 0.  0.
     999903    2    3    3    0    0  0.10750393766E+00 -0.68317602065E-01 -0.18458999389E-02  0.12896466408E+00  0.20101887202E-01 0.  0.
         14    1    1    2    0    0  0.15989305975E-01 -0.16852015697E-02 -0.16988729235E-01  0.23390483768E-01  0.00000000000E+00 0. -1.
     999901    1    3    3    0    0 -0.12349324364E+00  0.70002803634E-01  0.18834629174E-01  0.89157485216E+00  0.88000000000E+00 0.  1.
        -11    1    4    4    0    0  0.44299190389E-01 -0.16697977068E-01 -0.62475074635E-03  0.47348623441E-01  0.51100000000E-03 0.  1.
         11    1    4    4    0    0  0.63204747273E-01 -0.51619624996E-01 -0.12211491926E-02  0.81616040635E-01  0.51100000000E-03 0. -1.
</event>
<event>
 8    1  0.1177602E+005  0.1043930E+01  0.7957747E-01            NaN
         13   -1    0    0    0    0  0.00000000000E+00  0.00000000000E+00  0.74505805969E-08  0.10566000000E+00  0.10566000000E+00 0. -1.
     999900   -1    0    0    0    0 -0.00000000000E+00 -0.00000000000E+00 -0.74505805969E-08  0.93827000000E+00  0.93827000000E+00 0.  1.
     999902    2    1    2    0    0 -0.13827529793E-01  0.15801430281E-01 -0.11613627647E-01  0.10199349562E+01  0.10196526628E+01 0.  0.
     999903    2    3    3    0    0 -0.93323815586E-01 -0.76671896244E-01 -0.45995442845E-01  0.13086067091E+00  0.20518776757E-01 0.  0.
         14    1    1    2    0    0  0.13827529793E-01 -0.15801430281E-01  0.11613627647E-01  0.23995043785E-01  0.00000000000E+00 0. -1.
     999901    1    3    3    0    0  0.79496285792E-01  0.92473326524E-01  0.34381815198E-01  0.88907428530E+00  0.88000000000E+00 0. -1.
        -11    1    4    4    0    0 -0.22470546675E-01 -0.24935748619E-01 -0.47109944209E-02  0.33899433867E-01  0.51100000000E-03 0. -1.
         11    1    4    4    0    0 -0.70853268911E-01 -0.51736147625E-01 -0.41284448425E-01  0.96961237044E-01  0.51100000000E-03 0.  1.
</event>
<event>
 8    1  0.1177602E+005  0.1043930E+01  0.7957747E-01            NaN
         13   -1    0    0    0    0  0.00000000000E+00  0.00000000000E+00  0.74505805969E-08  0.10566000000E+00  0.10566000000E+00 0. -1.
     999900   -1    0    0    0    0 -0.00000000000E+00 -0.00000000000E+00 -0.74505805969E-08  0.93827000000E+00  0.93827000000E+00 0. -1.
     999902    2    1    2    0    0 -0.67811675286E-02  0.16177809985E-01 -0.15531037426E-01  0.10205009818E+01  0.10202320006E+01 0.  0.
     999903    2    3    3    0    0  0.63881911210E-01 -0.20217534633E-02  0.10973504906E+00  0.12863995721E+00  0.20529771856E-01 0.  0.
         14    1    1    2    0    0  0.67811675286E-02 -0.16177809985E-01  0.15531037426E-01  0.23429018172E-01  0.00000000000E+00 0. -1.
     999901    1    3    3    0    0 -0.70663078739E-01  0.18199563448E-01 -0.12526608649E+00  0.89186102462E+00  0.88000000000E+00 0. -1.
        -11    1    4    4    0    0  0.23709715669E-01  0.74117141984E-02  0.52455968271E-01  0.58042862203E-01  0.51100000000E-03 0.  1.
         11    1    4    4    0    0  0.40172195541E-01 -0.94334676617E-02  0.57279080788E-01  0.70597095009E-01  0.51100000000E-03 0. -1.
</event>
<event>
 8    1  0.1177602E+005  0.1043930E+01  0.7957747E-01            NaN
         13   -1    0    0    0    0  0.00000000000E+00  0.00000000000E+00  0.74505805969E-08  0.10566000000E+00  0.10566000000E+00 0.  1.
     999900   -1    0    0    0    0 -0.00000000000E+00 -0.00000000000E+00 -0.74505805969E-08  0.93827000000E+00  0.93827000000E+00 0.  1.
     999902    2    1    2    0    0  0.14413723265E-01  0.10209104417E-01  0.18064154956E-01  0.10186655007E+01  0.10183521529E+01 0.  0.
     999903    2    3    3    0    0  0.33569349922E-01 -0.98962523085E-01  0.74464047846E-01  0.12992125727E+00  0.20350833882E-01 0.  0.
         14    1    1    2    0    0 -0.14413723265E-01 -0.10209104417E-01 -0.18064154956E-01  0.25264499315E-01  0.00000000000E+00 0. -1.
     999901    1    3    3    0    0 -0.19155626657E-01  0.10917162750E+00 -0.56399892890E-01  0.88874424341E+00  0.88000000000E+00 0.  1.
        -11    1    4    4    0    0  0.20788559221E-01 -0.34794588469E-01  0.34673626452E-01  0.53341813557E-01  0.51100000000E-03 0.  1.
         11    1    4    4    0    0  0.12780790701E-01 -0.64167934616E-01  0.39790421394E-01  0.76579443713E-01  0.51100000000E-03 0. -1.
</event>
<event>
 8    1  0.1177602E+005  0.1043930E+01  0.7957747E-01            NaN
         13   -1    0    0    0    0  0.00000000000E+00  0.00000000000E+00  0.74505805969E-08  0.10566000000E+00  0.10566000000E+00 0.  1.
     999900   -1    0    0    0    0 -0.00000000000E+00 -0.00000000000E+00 -0.74505805969E-08  0.93827000000E+00  0.93827000000E+00 0.  1.
     999902    2    1    2    0    0 -0.29248604333E-01  0.52389033715E-02 -0.13179861223E-03  0.10142156207E+01  0.10137802430E+01 0.  0.
     999903    2    3    3    0    0 -0.87782401127E-01 -0.88392893125E-01 -0.15866943616E-01  0.12717519693E+00  0.20067817822E-01 0.  0.
         14    1    1    2    0    0  0.29248604333E-01 -0.52389033715E-02  0.13179861223E-03  0.29714379260E-01  0.00000000000E+00 0. -1.
     999901    1    3    3    0    0  0.58533796794E-01  0.93631796496E-01  0.15735145004E-01  0.88704042381E+00  0.88000000000E+00 0. -1.
        -11    1    4    4    0    0 -0.36483084280E-01 -0.25152221536E-01 -0.10637698943E-01  0.45574899305E-01  0.51100000000E-03 0.  1.
         11    1    4    4    0    0 -0.51299316846E-01 -0.63240671588E-01 -0.52292446735E-02  0.81600297626E-01  0.51100000000E-03 0. -1.
</event>
<event>
 8    1  0.1177602E+005  0.1043930E+01  0.7957747E-01            NaN
         13   -1    0    0    0    0  0.00000000000E+00  0.00000000000E+00  0.74505805969E-08  0.10566000000E+00  0.10566000000E+00 0.  1.
     999900   -1    0    0    0    0 -0.00000000000E+00 -0.00000000000E+00 -0.74505805969E-08  0.93827000000E+00  0.93827000000E+00 0. -1.
     999902    2    1    2    0    0 -0.80583445038E-02  0.20842075669E-01  0.12537334867E-01  0.10183074748E+01  0.10179850683E+01 0.  0.
     999903    2    3    3    0    0  0.10626564826E-01  0.11114296145E+00 -0.64003455573E-01  0.13018480957E+00  0.19645878913E-01 0.  0.
         14    1    1    2    0    0  0.80583445038E-02 -0.20842075669E-01 -0.12537334867E-01  0.25622525244E-01  0.00000000000E+00 0. -1.
     999901    1    3    3    0    0 -0.18684909330E-01 -0.90300885781E-01  0.76540790440E-01  0.88812266518E+00  0.88000000000E+00 0.  1.
        -11    1    4    4    0    0  0.20174567719E-02  0.24746459310E-01 -0.24182622455E-01  0.34662915775E-01  0.51100000000E-03 0. -1.
         11    1    4    4    0    0  0.86091080538E-02  0.86396502140E-01 -0.39820833119E-01  0.95521893798E-01  0.51100000000E-03 0.  1.
</event>
<event>
 8    1  0.1177602E+005  0.1043930E+01  0.7957747E-01            NaN
         13   -1    0    0    0    0  0.00000000000E+00  0.00000000000E+00  0.74505805969E-08  0.10566000000E+00  0.10566000000E+00 0.  1.
     999900   -1    0    0    0    0 -0.00000000000E+00 -0.00000000000E+00 -0.74505805969E-08  0.93827000000E+00  0.93827000000E+00 0. -1.
     999902    2    1    2    0    0  0.93268737334E-02 -0.14425788837E-01  0.14915621023E-01  0.10211798416E+01  0.10209263926E+01 0.  0.
     999903    2    3    3    0    0  0.10476377432E+00  0.56390123171E-01 -0.50590016746E-01  0.13077876120E+00  0.19708885929E-01 0.  0.
         14    1    1    2    0    0 -0.93268737334E-02  0.14425788837E-01 -0.14915621023E-01  0.22750158410E-01  0.00000000000E+00 0. -1.
     999901    1    3    3    0    0 -0.95436900586E-01 -0.70815912008E-01  0.65505637769E-01  0.89040108039E+00  0.88000000000E+00 0.  1.
        -11    1    4    4    0    0  0.89174497280E-01  0.39281715714E-01 -0.40603878999E-01  0.10556552593E+00  0.51100000000E-03 0.  1.
         11    1    4    4    0    0  0.15589277039E-01  0.17108407458E-01 -0.99861377472E-02  0.25213235263E-01  0.51100000000E-03 0. -1.
</event>
<event>
 8    1  0.1177602E+005  0.1043930E+01  0.7957747E-01            NaN
         13   -1    0    0    0    0  0.00000000000E+00  0.00000000000E+00  0.74505805969E-08  0.10566000000E+00  0.10566000000E+00 0. -1.
     999900   -1    0    0    0    0 -0.00000000000E+00 -0.00000000000E+00 -0.74505805969E-08  0.93827000000E+00  0.93827000000E+00 0.  1.
     999902    2    1    2    0    0 -0.95713374611E-02 -0.18923190896E-01 -0.11421223041E-01  0.10198438631E+01  0.10195593966E+01 0.  0.
     999903    2    3    3    0    0  0.61820795949E-01  0.89371665414E-01  0.63131700696E-01  0.12721698078E+00  0.19734314689E-01 0.  0.
         14    1    1    2    0    0  0.95713374611E-02  0.18923190896E-01  0.11421223041E-01  0.24086136889E-01  0.00000000000E+00 0. -1.
     999901    1    3    3    0    0 -0.71392133410E-01 -0.10829485631E+00 -0.74552923737E-01  0.89262688233E+00  0.88000000000E+00 0.  1.
        -11    1    4    4    0    0  0.63188644182E-02  0.13975477076E-01  0.21775315272E-02  0.15499831341E-01  0.51100000000E-03 0. -1.
         11    1    4    4    0    0  0.55501931531E-01  0.75396188338E-01  0.60954169169E-01  0.11171714944E+00  0.51100000000E-03 0.  1.
</event>
<event>
 8    1  0.1177602E+005  0.1043930E+01  0.7957747E-01            NaN
         13   -1    0    0    0    0  0.00000000000E+00  0.00000000000E+00  0.74505805969E-08  0.10566000000E+00  0.10566000000E+00 0.  1.
     999900   -1    0    0    0    0 -0.00000000000E+00 -0.00000000000E+00 -0.74505805969E-08  0.93827000000E+00  0.93827000000E+00 0.  1.
     999902    2    1    2    0    0  0.14013095892E-01 -0.23208525589E-02  0.18298760785E-01  0.10207654180E+01  0.10205025432E+01 0.  0.
     999903    2    3    3    0    0 -0.10730205352E+00  0.23108089572E-01 -0.63064128670E-01  0.12836196868E+00  0.21260201911E-01 0.  0.
         14    1    1    2    0    0 -0.14013095892E-01  0.23208525589E-02 -0.18298760785E-01  0.23164582002E-01  0.00000000000E+00 0. -1.
     999901    1    3    3    0    0  0.12131514941E+00 -0.25428942131E-01  0.81362889455E-01  0.89240344932E+00  0.88000000000E+00 0. -1.
        -11    1    4    4    0    0 -0.89367818435E-01  0.15437009922E-01 -0.59655344481E-01  0.10855380921E+00  0.51100000000E-03 0.  1.
         11    1    4    4    0    0 -0.17934235084E-01  0.76710796505E-02 -0.34087841892E-02  0.19808159472E-01  0.51100000000E-03 0. -1.
</event>
<event>
 8    1  0.1177602E+005  0.1043930E+01  0.7957747E-01            NaN
         13   -1    0    0    0    0  0.00000000000E+00  0.00000000000E+00  0.74505805969E-08  0.10566000000E+00  0.10566000000E+00 0.  1.
     999900   -1    0    0    0    0 -0.00000000000E+00 -0.00000000000E+00 -0.74505805969E-08  0.93827000000E+00  0.93827000000E+00 0.  1.
     999902    2    1    2    0    0  0.25671991880E-02  0.12093479753E-01  0.20263181846E-01  0.10201931236E+01  0.10199169427E+01 0.  0.
     999903    2    3    3    0    0  0.35075677842E-01  0.88453142037E-01  0.91191222041E-01  0.13344717004E+00  0.20929565275E-01 0.  0.
         14    1    1    2    0    0 -0.25671991880E-02 -0.12093479753E-01 -0.20263181846E-01  0.23736876432E-01  0.00000000000E+00 0. -1.
     999901    1    3    3    0    0 -0.32508478654E-01 -0.76359662284E-01 -0.70928040195E-01  0.88674595353E+00  0.88000000000E+00 0.  1.
        -11    1    4    4    0    0  0.11312428306E-02  0.22020392173E-01  0.14152483920E-01  0.26205558645E-01  0.51100000000E-03 0. -1.
         11    1    4    4    0    0  0.33944435011E-01  0.66432749864E-01  0.77038738121E-01  0.10724161140E+00  0.51100000000E-03 0.  1.
</event>
<event>
 8    1  0.1177602E+005  0.1043930E+01  0.7957747E-01            NaN
         13   -1    0    0    0    0  0.00000000000E+00  0.00000000000E+00  0.74505805969E-08  0.10566000000E+00  0.10566000000E+00 0. -1.
     999900   -1    0    0    0    0 -0.00000000000E+00 -0.00000000000E+00 -0.74505805969E-08  0.93827000000E+00  0.93827000000E+00 0. -1.
     999902    2    1    2    0    0 -0.56760368913E-02 -0.39689991160E-02  0.22890539068E-01  0.10200145839E+01  0.10197341831E+01 0.  0.
     999903    2    3    3    0    0 -0.49717727317E-01 -0.10272202343E+00  0.64168727067E-01  0.13243601322E+00  0.19950076657E-01 0.  0.
         14    1    1    2    0    0  0.56760368913E-02  0.39689991160E-02 -0.22890539068E-01  0.23915416107E-01  0.00000000000E+00 0.  1.
     999901    1    3    3    0    0  0.44041690425E-01  0.98753024312E-01 -0.41278187999E-01  0.88757857067E+00  0.88000000000E+00 0. -1.
        -11    1    4    4    0    0 -0.73781019505E-02 -0.24015832785E-01  0.22887098893E-01  0.33989366418E-01  0.51100000000E-03 0. -1.
         11    1    4    4    0    0 -0.42339625366E-01 -0.78706190643E-01  0.41281628173E-01  0.98446646806E-01  0.51100000000E-03 0.  1.
</event>
<event>
 8    1  0.1177602E+005  0.1043930E+01  0.7957747E-01            NaN
         13   -1    0    0    0    0  0.00000000000E+00  0.00000000000E+00  0.74505805969E-08  0.10566000000E+00  0.10566000000E+00 0.  1.
     999900   -1    0    0    0    0 -0.00000000000E+00 -0.00000000000E+00 -0.74505805969E-08  0.93827000000E+00  0.93827000000E+00 0. -1.
     999902    2    1    2    0    0  0.20283989829E-01  0.24938900283E-02 -0.12925088774E-01  0.10197490643E+01  0.10194623272E+01 0.  0.
     999903    2    3    3    0    0  0.78302292278E-01  0.51918946365E-01  0.88502087070E-01  0.13065040184E+00  0.20250484381E-01 0.  0.
         14    1    1    2    0    0 -0.20283989829E-01 -0.24938900283E-02  0.12925088774E-01  0.24180935686E-01  0.00000000000E+00 0.  1.
     999901    1    3    3    0    0 -0.58018302449E-01 -0.49425056337E-01 -0.10142717584E+00  0.88909866247E+00  0.88000000000E+00 0. -1.
        -11    1    4    4    0    0  0.42173581434E-01  0.15855780817E-01  0.41651457741E-01  0.61360588404E-01  0.51100000000E-03 0. -1.
         11    1    4    4    0    0  0.36128710844E-01  0.36063165548E-01  0.46850629328E-01  0.69289813436E-01  0.51100000000E-03 0.  1.
</event>
<event>
 8    1  0.1177602E+005  0.1043930E+01  0.7957747E-01            NaN
         13   -1    0    0    0    0  0.00000000000E+00  0.00000000000E+00  0.74505805969E-08  0.10566000000E+00  0.10566000000E+00 0. -1.
     999900   -1    0    0    0    0 -0.00000000000E+00 -0.00000000000E+00 -0.74505805969E-08  0.93827000000E+00  0.93827000000E+00 0.  1.
     999902    2    1    2    0    0  0.10996632449E-01  0.12951831327E-01 -0.83447370478E-02  0.10250009087E+01  0.10248261084E+01 0.  0.
     999903    2    3    3    0    0 -0.53189789354E-01 -0.91811855071E-01  0.76724903386E-01  0.13240235929E+00  0.19624054724E-01 0.  0.
         14    1    1    2    0    0 -0.10996632449E-01 -0.12951831327E-01  0.83447370478E-02  0.18929091271E-01  0.00000000000E+00 0. -1.
     999901    1    3    3    0    0  0.64186421803E-01  0.10476368640E+00 -0.85069640433E-01  0.89259854944E+00  0.88000000000E+00 0.  1.
        -11    1    4    4    0    0 -0.48753261163E-01 -0.91166586250E-01  0.73178429751E-01  0.12666321733E+00  0.51100000000E-03 0. -1.
         11    1    4    4    0    0 -0.44365281911E-02 -0.64526882165E-03  0.35464736348E-02  0.57391419641E-02  0.51100000000E-03 0.  1.
</event>
<event>
 8    1  0.1177602E+005  0.1043930E+01  0.7957747E-01            NaN
         13   -1    0    0    0    0  0.00000000000E+00  0.00000000000E+00  0.74505805969E-08  0.10566000000E+00  0.10566000000E+00 0.  1.
     999900   -1    0    0    0    0 -0.00000000000E+00 -0.00000000000E+00 -0.74505805969E-08  0.93827000000E+00  0.93827000000E+00 0.  1.
     999902    2    1    2    0    0  0.38795661921E-02  0.21729065426E-01 -0.67264214512E-02  0.10208551638E+01  0.10205943452E+01 0.  0.
     999903    2    3    3    0    0  0.35297199533E-02  0.85798779100E-02  0.12846839418E+00  0.13043354366E+00  0.20559858455E-01 0.  0.
         14    1    1    2    0    0 -0.38795661921E-02 -0.21729065426E-01  0.67264214512E-02  0.23074836157E-01  0.00000000000E+00 0. -1.
     999901    1    3    3    0    0  0.34984623881E-03  0.13149187516E-01 -0.13519481563E+00  0.89042162019E+00  0.88000000000E+00 0.  1.
        -11    1    4    4    0    0  0.71973199627E-02 -0.31000079327E-03  0.10221090087E+00  0.10246573521E+00  0.51100000000E-03 0.  1.
         11    1    4    4    0    0 -0.36676000095E-02  0.88898787033E-02  0.26257493310E-01  0.27967808443E-01  0.51100000000E-03 0. -1.
</event>
<event>
 8    1  0.1177602E+005  0.1043930E+01  0.7957747E-01            NaN
         13   -1    0    0    0    0  0.00000000000E+00  0.00000000000E+00  0.74505805969E-08  0.10566000000E+00  0.10566000000E+00 0.  1.
     999900   -1    0    0    0    0 -0.00000000000E+00 -0.00000000000E+00 -0.74505805969E-08  0.93827000000E+00  0.93827000000E+00 0. -1.
     999902    2    1    2    0    0 -0.10075168042E-01  0.16142332957E-01  0.15135019476E-01  0.10196163672E+01  0.10193264362E+01 0.  0.
     999903    2    3    3    0    0  0.99667870023E-01 -0.51907527798E-01 -0.56405213149E-01  0.12732027128E+00  0.20020680580E-01 0.  0.
         14    1    1    2    0    0  0.10075168042E-01 -0.16142332957E-01 -0.15135019476E-01  0.24313632779E-01  0.00000000000E+00 0.  1.
     999901    1    3    3    0    0 -0.10974303806E+00  0.68049860754E-01  0.71540232625E-01  0.89229609594E+00  0.88000000000E+00 0. -1.
        -11    1    4    4    0    0  0.34765947230E-01 -0.28543978139E-01 -0.25755379615E-01  0.51836574684E-01  0.51100000000E-03 0. -1.
         11    1    4    4    0    0  0.64901922793E-01 -0.23363549658E-01 -0.30649833535E-01  0.75483696594E-01  0.51100000000E-03 0.  1.
</event>
<event>
 7    1  0.1177602E+005  0.1043930E+01  0.7957747E-01            NaN
         13   -1    0    0    0    0  0.00000000000E+00  0.00000000000E+00  0.74505805969E-08  0.10566000000E+00  0.10566000000E+00 0.  1.
     999900   -1    0    0    0    0 -0.00000000000E+00 -0.00000000000E+00 -0.74505805969E-08  0.93827000000E+00  0.93827000000E+00 0.  1.
     999903    2    1    2    0    0  0.10160135103E+00  0.44748646166E-01  0.19437189834E-01  0.11457946374E+00  0.20624579915E-01 0.  0.
         14    1    1    2    0    0 -0.42034394477E-02 -0.24123484832E-02 -0.42392020446E-01  0.42668158220E-01  0.00000000000E+00 0. -1.
     999901    1    1    2    0    0 -0.97397911584E-01 -0.42336297682E-01  0.22954830612E-01  0.88668237804E+00  0.88000000000E+00 0. -1.
        -11    1    3    3    0    0  0.21308504737E-01  0.19047216472E-01  0.59945134085E-02  0.29206919410E-01  0.51100000000E-03 0.  1.
         11    1    3    3    0    0  0.80292846295E-01  0.25701429694E-01  0.13442676426E-01  0.85372544327E-01  0.51100000000E-03 0. -1.
</event>
<event>
 8    1  0.1177602E+005  0.1043930E+01  0.7957747E-01            NaN
         13   -1    0    0    0    0  0.00000000000E+00  0.00000000000E+00  0.74505805969E-08  0.10566000000E+00  0.10566000000E+00 0. -1.
     999900   -1    0    0    0    0 -0.00000000000E+00 -0.00000000000E+00 -0.74505805969E-08  0.93827000000E+00  0.93827000000E+00 0.  1.
     999902    2    1    2    0    0 -0.13664350990E-01 -0.14639299431E-01 -0.15342492075E-01  0.10187027203E+01  0.10183903067E+01 0.  0.
     999903    2    3    3    0    0  0.97547446379E-01 -0.78657818707E-01  0.21224526235E-01  0.12864453038E+00  0.19909242702E-01 0.  0.
         14    1    1    2    0    0  0.13664350990E-01  0.14639299431E-01  0.15342492075E-01  0.25227279657E-01  0.00000000000E+00 0.  1.
     999901    1    3    3    0    0 -0.11121179737E+00  0.64018519277E-01 -0.36567018310E-01  0.89005818996E+00  0.88000000000E+00 0.  1.
        -11    1    4    4    0    0  0.42224956099E-01 -0.34640187278E-01  0.19271035517E-01  0.57918247756E-01  0.51100000000E-03 0.  1.
         11    1    4    4    0    0  0.55322490280E-01 -0.44017631429E-01  0.19534907182E-02  0.70726282628E-01  0.51100000000E-03 0. -1.
</event>
<event>
 8    1  0.1177602E+005  0.1043930E+01  0.7957747E-01            NaN
         13   -1    0    0    0    0  0.00000000000E+00  0.00000000000E+00  0.74505805969E-08  0.10566000000E+00  0.10566000000E+00 0.  1.
     999900   -1    0    0    0    0 -0.00000000000E+00 -0.00000000000E+00 -0.74505805969E-08  0.93827000000E+00  0.93827000000E+00 0.  1.
     999902    2    1    2    0    0  0.13803258397E-01  0.11567206877E-01 -0.14639808654E-01  0.10207210747E+01  0.10204571809E+01 0.  0.
     999903    2    3    3    0    0  0.23667643513E-01  0.12516897380E+00  0.29264730507E-01  0.13227846195E+00  0.20340543068E-01 0.  0.
         14    1    1    2    0    0 -0.13803258397E-01 -0.11567206877E-01  0.14639808654E-01  0.23208925325E-01  0.00000000000E+00 0. -1.
     999901    1    3    3    0    0 -0.98643851160E-02 -0.11360176693E+00 -0.43904539160E-01  0.88844261272E+00  0.88000000000E+00 0.  1.
        -11    1    4    4    0    0  0.19660776805E-01  0.10250502876E+00  0.31816574752E-01  0.10911637190E+00  0.51100000000E-03 0. -1.
         11    1    4    4    0    0  0.40068667074E-02  0.22663945041E-01 -0.25518442453E-02  0.23162090054E-01  0.51100000000E-03 0.  1.
</event>
<event>
 8    1  0.1177602E+005  0.1043930E+01  0.7957747E-01            NaN
         13   -1    0    0    0    0  0.00000000000E+00  0.00000000000E+00  0.74505805969E-08  0.10566000000E+00  0.10566000000E+00 0. -1.
     999900   -1    0    0    0    0 -0.00000000000E+00 -0.00000000000E+00 -0.74505805969E-08  0.93827000000E+00  0.93827000000E+00 0. -1.
     999902    2    1    2    0    0  0.20682180470E-01  0.10995669315E-01  0.29270043548E-02  0.10203243929E+01  0.10200512938E+01 0.  0.
     999903    2    3    3    0    0 -0.10603285923E+00 -0.30686408452E-01  0.62288063166E-01  0.12829421840E+00  0.19874122940E-01 0.  0.
         14    1    1    2    0    0 -0.20682180470E-01 -0.10995669315E-01 -0.29270043548E-02  0.23605607113E-01  0.00000000000E+00 0.  1.
     999901    1    3    3    0    0  0.12671503970E+00  0.41682077767E-01 -0.59361058811E-01  0.89203017449E+00  0.88000000000E+00 0.  1.
        -11    1    4    4    0    0 -0.35670589219E-01 -0.61278369098E-02  0.11023004912E-01  0.37837931745E-01  0.51100000000E-03 0. -1.
         11    1    4    4    0    0 -0.70362270006E-01 -0.24558571542E-01  0.51265058254E-01  0.90456286655E-01  0.51100000000E-03 0.  1.
</event>
<event>
 8    1  0.1177602E+005  0.1043930E+01  0.7957747E-01            NaN
         13   -1    0    0    0    0  0.00000000000E+00  0.00000000000E+00  0.74505805969E-08  0.10566000000E+00  0.10566000000E+00 0. -1.
     999900   -1    0    0    0    0 -0.00000000000E+00 -0.00000000000E+00 -0.74505805969E-08  0.93827000000E+00  0.93827000000E+00 0.  1.
     999902    2    1    2    0    0  0.14980369066E-01 -0.27450587181E-02  0.18398235938E-01  0.10200460746E+01  0.10197664206E+01 0.  0.
     999903    2    3    3    0    0  0.81075490183E-01 -0.67534659092E-01 -0.73289919399E-01  0.13045460932E+00  0.22645695398E-01 0.  0.
         14    1    1    2    0    0 -0.14980369066E-01  0.27450587181E-02 -0.18398235938E-01  0.23883925354E-01  0.00000000000E+00 0.  1.
     999901    1    3    3    0    0 -0.66095121118E-01  0.64789600374E-01  0.91688155337E-01  0.88959146533E+00  0.88000000000E+00 0. -1.
        -11    1    4    4    0    0  0.31103423131E-01 -0.40099590872E-01 -0.30976502333E-01  0.59457589393E-01  0.51100000000E-03 0.  1.
         11    1    4    4    0    0  0.49972067052E-01 -0.27435068220E-01 -0.42313417066E-01  0.70997019927E-01  0.51100000000E-03 0. -1.
</event>
<event>
 8    1  0.1177602E+005  0.1043930E+01  0.7957747E-01            NaN
         13   -1    0    0    0    0  0.00000000000E+00  0.00000000000E+00  0.74505805969E-08  0.10566000000E+00  0.10566000000E+00 0.  1.
     999900   -1    0    0    0    0 -0.00000000000E+00 -0.00000000000E+00 -0.74505805969E-08  0.93827000000E+00  0.93827000000E+00 0. -1.
     999902    2    1    2    0    0  0.27269257955E-03 -0.19237187609E-01  0.15269544534E-01  0.10193677782E+01  0.10190718152E+01 0.  0.
     999903    2    3    3    0    0 -0.20287972305E-01 -0.88948316785E-01 -0.90474782287E-01  0.13006229352E+00  0.20176944423E-01 0.  0.
         14    1    1    2    0    0 -0.27269257955E-03  0.19237187609E-01 -0.15269544534E-01  0.24562221777E-01  0.00000000000E+00 0. -1.
     999901    1    3    3    0    0  0.20560664885E-01  0.69711129176E-01  0.10574432682E+00  0.88930548470E+00  0.88000000000E+00 0. -1.
        -11    1    4    4    0    0  0.31821618740E-02 -0.70293761034E-02 -0.11629133388E-01  0.13965534252E-01  0.51100000000E-03 0. -1.
         11    1    4    4    0    0 -0.23470134179E-01 -0.81918940681E-01 -0.78845648899E-01  0.11609675927E+00  0.51100000000E-03 0.  1.
</event>
<event>
 8    1  0.1177602E+005  0.1043930E+01  0.7957747E-01            NaN
         13   -1    0    0    0    0  0.00000000000E+00  0.00000000000E+00  0.74505805969E-08  0.10566000000E+00  0.10566000000E+00 0. -1.
     999900   -1    0    0    0    0 -0.00000000000E+00 -0.00000000000E+00 -0.74505805969E-08  0.93827000000E+00  0.93827000000E+00 0.  1.
     999902    2    1    2    0    0 -0.93927730930E-04 -0.15260050599E-01  0.19226311329E-01  0.10193835336E+01  0.10190879547E+01 0.  0.
     999903    2    3    3    0    0 -0.12480058502E+00 -0.16805766220E-01 -0.23011468825E-01  0.12958683225E+00  0.20139503385E-01 0.  0.
         14    1    1    2    0    0  0.93927730930E-04  0.15260050599E-01 -0.19226311329E-01  0.24546466426E-01  0.00000000000E+00 0.  1.
     999901    1    3    3    0    0  0.12470665729E+00  0.15457156208E-02  0.42237780154E-01  0.88979670132E+00  0.88000000000E+00 0.  1.
        -11    1    4    4    0    0 -0.34853446287E-01  0.41312943783E-02 -0.83018908054E-02  0.36069555352E-01  0.51100000000E-03 0.  1.
         11    1    4    4    0    0 -0.89947138732E-01 -0.20937060598E-01 -0.14709578020E-01  0.93517276901E-01  0.51100000000E-03 0. -1.
</event>
<event>
 8    1  0.1177602E+005  0.1043930E+01  0.7957747E-01            NaN
         13   -1    0    0    0    0  0.00000000000E+00  0.00000000000E+00  0.74505805969E-08  0.10566000000E+00  0.10566000000E+00 0. -1.
     999900   -1    0    0    0    0 -0.00000000000E+00 -0.00000000000E+00 -0.74505805969E-08  0.93827000000E+00  0.93827000000E+00 0.  1.
     999902    2    1    2    0    0 -0.52077136662E-02  0.21373093767E-01 -0.42971153302E-02  0.10215158389E+01  0.10212699028E+01 0.  0.
     999903    2    3    3    0    0 -0.70831080026E-01  0.32080253538E-01 -0.10623355125E+00  0.13313973246E+00  0.19860422511E-01 0.  0.
         14    1    1    2    0    0  0.52077136662E-02 -0.21373093767E-01  0.42971153302E-02  0.22414161125E-01  0.00000000000E+00 0. -1.
     999901    1    3    3    0    0  0.65623366360E-01 -0.10707159771E-01  0.10193643592E+00  0.88837610642E+00  0.88000000000E+00 0. -1.
        -11    1    4    4    0    0 -0.19418853172E-01  0.16210623327E-01 -0.24046743111E-01  0.34905345471E-01  0.51100000000E-03 0.  1.
         11    1    4    4    0    0 -0.51412226853E-01  0.15869630210E-01 -0.82186808143E-01  0.98234386988E-01  0.51100000000E-03 0. -1.
</event>
<event>
 7    1  0.1177602E+005  0.1043930E+01  0.7957747E-01            NaN
         13   -1    0    0    0    0  0.00000000000E+00  0.00000000000E+00  0.74505805969E-08  0.10566000000E+00  0.10566000000E+00 0.  1.
     999900   -1    0    0    0    0 -0.00000000000E+00 -0.00000000000E+00 -0.74505805969E-08  0.93827000000E+00  0.93827000000E+00 0.  1.
     999903    2    1    2    0    0 -0.93590360426E-01  0.39451595934E-01  0.19934775939E-01  0.10541826612E+00  0.20000788829E-01 0.  0.
         14    1    1    2    0    0  0.54298299215E-01  0.12305481552E-01 -0.60883378656E-02  0.56007124831E-01  0.00000000000E+00 0. -1.
     999901    1    1    2    0    0  0.39292061211E-01 -0.51757077486E-01 -0.13846438074E-01  0.88250460905E+00  0.88000000000E+00 0.  1.
        -11    1    3    3    0    0 -0.46690185408E-01  0.23414563497E-01  0.67493894473E-03  0.52239179365E-01  0.51100000000E-03 0.  1.
         11    1    3    3    0    0 -0.46900175018E-01  0.16037032437E-01  0.19259836994E-01  0.53179086756E-01  0.51100000000E-03 0. -1.
</event>
<event>
 8    1  0.1177602E+005  0.1043930E+01  0.7957747E-01            NaN
         13   -1    0    0    0    0  0.00000000000E+00  0.00000000000E+00  0.74505805969E-08  0.10566000000E+00  0.10566000000E+00 0. -1.
     999900   -1    0    0    0    0 -0.00000000000E+00 -0.00000000000E+00 -0.74505805969E-08  0.93827000000E+00  0.93827000000E+00 0. -1.
     999902    2    1    2    0    0  0.54525629266E-02 -0.24270901042E-02  0.23142009474E-01  0.10200307571E+01  0.10197507399E+01 0.  0.
     999903    2    3    3    0    0 -0.73045521667E-01 -0.64294181043E-02  0.10842294128E+00  0.13242115528E+00  0.20070937128E-01 0.  0.
         14    1    1    2    0    0 -0.54525629266E-02  0.24270901042E-02 -0.23142009474E-01  0.23899242903E-01  0.00000000000E+00 0.  1.
     999901    1    3    3    0    0  0.78498084594E-01  0.40023280001E-02 -0.85280931801E-01  0.88760960182E+00  0.88000000000E+00 0. -1.
        -11    1    4    4    0    0 -0.26298056832E-01 -0.56136595363E-02  0.56331777231E-01  0.62423002279E-01  0.51100000000E-03 0.  1.
         11    1    4    4    0    0 -0.46747464836E-01 -0.81575856798E-03  0.52091164044E-01  0.69998152997E-01  0.51100000000E-03 0. -1.
</event>
<event>
 8    1  0.1177602E+005  0.1043930E+01  0.7957747E-01            NaN
         13   -1    0    0    0    0  0.00000000000E+00  0.00000000000E+00  0.74505805969E-08  0.10566000000E+00  0.10566000000E+00 0. -1.
     999900   -1    0    0    0    0 -0.00000000000E+00 -0.00000000000E+00 -0.74505805969E-08  0.93827000000E+00  0.93827000000E+00 0.  1.
     999902    2    1    2    0    0  0.10947975845E-02  0.70222136920E-02 -0.24938920025E-01  0.10179981702E+01  0.10176678312E+01 0.  0.
     999903    2    3    3    0    0  0.11219729024E+00  0.60558143383E-01 -0.58176204575E-02  0.12919252001E+00  0.20033518193E-01 0.  0.
         14    1    1    2    0    0 -0.10947975845E-02 -0.70222136920E-02  0.24938920025E-01  0.25931829841E-01  0.00000000000E+00 0. -1.
     999901    1    3    3    0    0 -0.11110249266E+00 -0.53535929691E-01 -0.19121299567E-01  0.88880565015E+00  0.88000000000E+00 0.  1.
        -11    1    4    4    0    0  0.59741285880E-01  0.26516661720E-01 -0.11618646635E-01  0.66388317180E-01  0.51100000000E-03 0. -1.
         11    1    4    4    0    0  0.52456004360E-01  0.34041481663E-01  0.58010261773E-02  0.62804202829E-01  0.51100000000E-03 0.  1.
</event>
<event>
 8    1  0.1177602E+005  0.1043930E+01  0.7957747E-01            NaN
         13   -1    0    0    0    0  0.00000000000E+00  0.00000000000E+00  0.74505805969E-08  0.10566000000E+00  0.10566000000E+00 0.  1.
     999900   -1    0    0    0    0 -0.00000000000E+00 -0.00000000000E+00 -0.74505805969E-08  0.93827000000E+00  0.93827000000E+00 0. -1.
     999902    2    1    2    0    0  0.27298320241E-02  0.23703432223E-01  0.35597166956E-02  0.10198058158E+01  0.10195204390E+01 0.  0.
     999903    2    3    3    0    0 -0.11096730977E+00  0.37037242517E-01  0.55743580014E-01  0.13085813106E+00  0.18193476317E-01 0.  0.
         14    1    1    2    0    0 -0.27298320241E-02 -0.23703432223E-01 -0.35597166956E-02  0.24124184235E-01  0.00000000000E+00 0. -1.
     999901    1    3    3    0    0  0.11369714180E+00 -0.13333810294E-01 -0.52183863318E-01  0.88894768470E+00  0.88000000000E+00 0. -1.
        -11    1    4    4    0    0 -0.37505970830E-01  0.86577326905E-02  0.27009032588E-01  0.47025558430E-01  0.51100000000E-03 0. -1.
         11    1    4    4    0    0 -0.73461338943E-01  0.28379509826E-01  0.28734547425E-01  0.83832572631E-01  0.51100000000E-03 0.  1.
</event>
<event>
 8    1  0.1177602E+005  0.1043930E+01  0.7957747E-01            NaN
         13   -1    0    0    0    0  0.00000000000E+00  0.00000000000E+00  0.74505805969E-08  0.10566000000E+00  0.10566000000E+00 0. -1.
     999900   -1    0    0    0    0 -0.00000000000E+00 -0.00000000000E+00 -0.74505805969E-08  0.93827000000E+00  0.93827000000E+00 0.  1.
     999902    2    1    2    0    0 -0.57935655870E-02 -0.23746634863E-02  0.23134066698E-01  0.10199635762E+01  0.10196819638E+01 0.  0.
     999903    2    3    3    0    0  0.12893584925E-01  0.81788272533E-01 -0.95406253601E-01  0.12784003264E+00  0.19625357667E-01 0.  0.
         14    1    1    2    0    0  0.57935655870E-02  0.23746634863E-02 -0.23134066698E-01  0.23966423823E-01  0.00000000000E+00 0.  1.
     999901    1    3    3    0    0 -0.18687150512E-01 -0.84162936020E-01  0.11854032030E+00  0.89212354354E+00  0.88000000000E+00 0. -1.
        -11    1    4    4    0    0  0.10449862183E-01  0.50027026216E-01 -0.44401383218E-01  0.67702636022E-01  0.51100000000E-03 0. -1.
         11    1    4    4    0    0  0.24437227417E-02  0.31761246318E-01 -0.51004870382E-01  0.60137396620E-01  0.51100000000E-03 0.  1.
</event>
<event>
 8    1  0.1177602E+005  0.1043930E+01  0.7957747E-01            NaN
         13   -1    0    0    0    0  0.00000000000E+00  0.00000000000E+00  0.74505805969E-08  0.10566000000E+00  0.10566000000E+00 0.  1.
     999900   -1    0    0    0    0 -0.00000000000E+00 -0.00000000000E+00 -0.74505805969E-08  0.93827000000E+00  0.93827000000E+00 0.  1.
     999902    2    1    2    0    0 -0.18552343578E-01 -0.14329215990E-01 -0.51592882897E-02  0.10199272056E+01  0.10196447276E+01 0.  0.
     999903    2    3    3    0    0 -0.26346309419E-01  0.74022163714E-01  0.10061447313E+00  0.12916640673E+00  0.19679422856E-01 0.  0.
         14    1    1    2    0    0  0.18552343578E-01  0.14329215990E-01  0.51592882897E-02  0.24002794395E-01  0.00000000000E+00 0.  1.
     999901    1    3    3    0    0  0.77939658413E-02 -0.88351379705E-01 -0.10577376142E+00  0.89076079887E+00  0.88000000000E+00 0.  1.
        -11    1    4    4    0    0 -0.59451720394E-02  0.10181199632E-01  0.60573465131E-02  0.13264782859E-01  0.51100000000E-03 0.  1.
         11    1    4    4    0    0 -0.20401137380E-01  0.63840964082E-01  0.94557126619E-01  0.11590162387E+00  0.51100000000E-03 0. -1.
</event>
<event>
 8    1  0.1177602E+005  0.1043930E+01  0.7957747E-01            NaN
         13   -1    0    0    0    0  0.00000000000E+00  0.00000000000E+00  0.74505805969E-08  0.10566000000E+00  0.10566000000E+00 0.  1.
     999900   -1    0    0    0    0 -0.00000000000E+00 -0.00000000000E+00 -0.74505805969E-08  0.93827000000E+00  0.93827000000E+00 0. -1.
     999902    2    1    2    0    0 -0.20047777982E-02  0.12224691557E-01  0.19936894009E-01  0.10204578471E+01  0.10201878630E+01 0.  0.
     999903    2    3    3    0    0 -0.14406173234E-01 -0.18371879274E-01  0.12950889846E+00  0.13304815093E+00  0.19600813991E-01 0.  0.
         14    1    1    2    0    0  0.20047777982E-02 -0.12224691557E-01 -0.19936894009E-01  0.23472152871E-01  0.00000000000E+00 0. -1.
     999901    1    3    3    0    0  0.12401395436E-01  0.30596570831E-01 -0.10957200445E+00  0.88740969620E+00  0.88000000000E+00 0. -1.
        -11    1    4    4    0    0 -0.40884423690E-02 -0.18158522940E-01  0.61441629748E-01  0.64201108272E-01  0.51100000000E-03 0. -1.
         11    1    4    4    0    0 -0.10317730865E-01 -0.21335633409E-03  0.68067268713E-01  0.68847042654E-01  0.51100000000E-03 0.  1.
</event>
<event>
 8    1  0.1177602E+005  0.1043930E+01  0.7957747E-01            NaN
         13   -1    0    0    0    0  0.00000000000E+00  0.00000000000E+00  0.74505805969E-08  0.10566000000E+00  0.10566000000E+00 0. -1.
     999900   -1    0    0    0    0 -0.00000000000E+00 -0.00000000000E+00 -0.74505805969E-08  0.93827000000E+00  0.93827000000E+00 0. -1.
     999902    2    1    2    0    0 -0.30877308720E-02  0.13796613123E-01 -0.18186109178E-01  0.10208949141E+01  0.10206350035E+01 0.  0.
     999903    2    3    3    0    0 -0.33054064248E-01 -0.11975939937E+00  0.28361215309E-01  0.12909793999E+00  0.20664817324E-01 0.  0.
         14    1    1    2    0    0  0.30877308720E-02 -0.13796613123E-01  0.18186109178E-01  0.23035085905E-01  0.00000000000E+00 0. -1.
     999901    1    3    3    0    0  0.29966333376E-01  0.13355601249E+00 -0.46547324487E-01  0.89179697411E+00  0.88000000000E+00 0. -1.
        -11    1    4    4    0    0 -0.16675249950E-01 -0.91303341625E-01  0.17055149471E-01  0.94368974760E-01  0.51100000000E-03 0.  1.
         11    1    4    4    0    0 -0.16378814298E-01 -0.28456057744E-01  0.11306065837E-01  0.34728965228E-01  0.51100000000E-03 0. -1.
</event>
<event>
 8    1  0.1177602E+005  0.1043930E+01  0.7957747E-01            NaN
         13   -1    0    0    0    0  0.00000000000E+00  0.00000000000E+00  0.74505805969E-08  0.10566000000E+00  0.10566000000E+00 0.  1.
     999900   -1    0    0    0    0 -0.00000000000E+00 -0.00000000000E+00 -0.74505805969E-08  0.93827000000E+00  0.93827000000E+00 0. -1.
     999902    2    1    2    0    0  0.19166274779E-01 -0.10191405767E-01  0.91725541638E-02  0.10203642072E+01  0.10200920393E+01 0.  0.
     999903    2    3    3    0    0 -0.64429042936E-01  0.10335249486E+00  0.37060040891E-01  0.12870389832E+00  0.18931641355E-01 0.  0.
         14    1    1    2    0    0 -0.19166274779E-01  0.10191405767E-01 -0.91725541638E-02  0.23565792800E-01  0.00000000000E+00 0. -1.
     999901    1    3    3    0    0  0.83595317715E-01 -0.11354390063E+00 -0.27887486728E-01  0.89166030888E+00  0.88000000000E+00 0.  1.
        -11    1    4    4    0    0 -0.41778384492E-01  0.80401091479E-01  0.22751399531E-01  0.93421925817E-01  0.51100000000E-03 0.  1.
         11    1    4    4    0    0 -0.22650658444E-01  0.22951403383E-01  0.14308641361E-01  0.35281972504E-01  0.51100000000E-03 0. -1.
</event>
<event>
 8    1  0.1177602E+005  0.1043930E+01  0.7957747E-01            NaN
         13   -1    0    0    0    0  0.00000000000E+00  0.00000000000E+00  0.74505805969E-08  0.10566000000E+00  0.10566000000E+00 0. -1.
     999900   -1    0    0    0    0 -0.00000000000E+00 -0.00000000000E+00 -0.74505805969E-08  0.93827000000E+00  0.93827000000E+00 0. -1.
     999902    2    1    2    0    0  0.75074640251E-03  0.21618812819E-01 -0.93378850767E-02  0.10203687440E+01  0.10200966821E+01 0.  0.
     999903    2    3    3    0    0 -0.46599149604E-02 -0.58650190502E-01 -0.11461466288E+00  0.13044987796E+00  0.20471689210E-01 0.  0.
         14    1    1    2    0    0 -0.75074640251E-03 -0.21618812819E-01  0.93378850767E-02  0.23561256027E-01  0.00000000000E+00 0. -1.
     999901    1    3    3    0    0  0.54106613629E-02  0.80269003321E-01  0.10527677780E+00  0.88991886602E+00  0.88000000000E+00 0.  1.
        -11    1    4    4    0    0 -0.35898796063E-03 -0.94402256727E-02 -0.38980203096E-01  0.40111894589E-01  0.51100000000E-03 0.  1.
         11    1    4    4    0    0 -0.43009269998E-02 -0.49209964830E-01 -0.75634459780E-01  0.90337983367E-01  0.51100000000E-03 0. -1.
</event>
<event>
 8    1  0.1177602E+005  0.1043930E+01  0.7957747E-01            NaN
         13   -1    0    0    0    0  0.00000000000E+00  0.00000000000E+00  0.74505805969E-08  0.10566000000E+00  0.10566000000E+00 0. -1.
     999900   -1    0    0    0    0 -0.00000000000E+00 -0.00000000000E+00 -0.74505805969E-08  0.93827000000E+00  0.93827000000E+00 0.  1.
     999902    2    1    2    0    0  0.20530259962E-01  0.78997479287E-02 -0.88992352511E-02  0.10202003987E+01  0.10199243891E+01 0.  0.
     999903    2    3    3    0    0  0.10195458799E+00  0.73036087242E-01  0.39028173769E-01  0.13274916033E+00  0.19238845288E-01 0.  0.
         14    1    1    2    0    0 -0.20530259962E-01 -0.78997479287E-02  0.88992352511E-02  0.23729601335E-01  0.00000000000E+00 0. -1.
     999901    1    3    3    0    0 -0.81424328027E-01 -0.65136339313E-01 -0.47927409020E-01  0.88745123834E+00  0.88000000000E+00 0.  1.
        -11    1    4    4    0    0  0.61375382886E-01  0.55164964853E-01  0.24434764720E-01  0.86066426785E-01  0.51100000000E-03 0.  1.
         11    1    4    4    0    0  0.40579205103E-01  0.17871122389E-01  0.14593409049E-01  0.46682733542E-01  0.51100000000E-03 0. -1.
</event>
<event>
 8    1  0.1177602E+005  0.1043930E+01  0.7957747E-01            NaN
         13   -1    0    0    0    0  0.00000000000E+00  0.00000000000E+00  0.74505805969E-08  0.10566000000E+00  0.10566000000E+00 0. -1.
     999900   -1    0    0    0    0 -0.00000000000E+00 -0.00000000000E+00 -0.74505805969E-08  0.93827000000E+00  0.93827000000E+00 0. -1.
     999902    2    1    2    0    0 -0.63149112228E-02 -0.21553145355E-01  0.12138320624E-01  0.10184005071E+01  0.10180804673E+01 0.  0.
     999903    2    3    3    0    0 -0.67296295631E-01  0.10353746871E+00  0.24516972299E-01  0.12737883400E+00  0.19377476298E-01 0.  0.
         14    1    1    2    0    0  0.63149112228E-02  0.21553145355E-01 -0.12138320624E-01  0.25529492866E-01  0.00000000000E+00 0.  1.
     999901    1    3    3    0    0  0.60981384408E-01 -0.12509061407E+00 -0.12378651676E-01  0.89102167313E+00  0.88000000000E+00 0.  1.
        -11    1    4    4    0    0 -0.25693044738E-01  0.48737766613E-01  0.19285462096E-01  0.58375445279E-01  0.51100000000E-03 0. -1.
         11    1    4    4    0    0 -0.41603250892E-01  0.54799702102E-01  0.52315102034E-02  0.69003388723E-01  0.51100000000E-03 0.  1.
</event>
<event>
 8    1  0.1177602E+005  0.1043930E+01  0.7957747E-01            NaN
         13   -1    0    0    0    0  0.00000000000E+00  0.00000000000E+00  0.74505805969E-08  0.10566000000E+00  0.10566000000E+00 0. -1.
     999900   -1    0    0    0    0 -0.00000000000E+00 -0.00000000000E+00 -0.74505805969E-08  0.93827000000E+00  0.93827000000E+00 0.  1.
     999902    2    1    2    0    0  0.15653778934E-01 -0.26006137419E-01  0.34557446849E-03  0.10135741208E+01  0.10131194495E+01 0.  0.
     999903    2    3    3    0    0  0.92880264411E-01  0.22511127478E-01 -0.78569489283E-01  0.12534811224E+00  0.20136787695E-01 0.  0.
         14    1    1    2    0    0 -0.15653778934E-01  0.26006137419E-01 -0.34557446849E-03  0.30355879168E-01  0.00000000000E+00 0. -1.
     999901    1    3    3    0    0 -0.77226485477E-01 -0.48517264896E-01  0.78915063751E-01  0.88822600859E+00  0.88000000000E+00 0. -1.
        -11    1    4    4    0    0  0.31410753732E-01  0.37547529776E-02 -0.37559307187E-01  0.49109024601E-01  0.51100000000E-03 0.  1.
         11    1    4    4    0    0  0.61469510679E-01  0.18756374500E-01 -0.41010182096E-01  0.76239087639E-01  0.51100000000E-03 0. -1.
</event>
<event>
 8    1  0.1177602E+005  0.1043930E+01  0.7957747E-01            NaN
         13   -1    0    0    0    0  0.00000000000E+00  0.00000000000E+00  0.74505805969E-08  0.10566000000E+00  0.10566000000E+00 0. -1.
     999900   -1    0    0    0    0 -0.00000000000E+00 -0.00000000000E+00 -0.74505805969E-08  0.93827000000E+00  0.93827000000E+00 0.  1.
     999902    2    1    2    0    0 -0.12277814282E-01  0.19366345884E-01  0.46017247490E-02  0.10205424831E+01  0.10202744650E+01 0.  0.
     999903    2    3    3    0    0 -0.21943684637E-02 -0.11923803467E+00  0.45281254449E-01  0.12870860040E+00  0.17116881890E-01 0.  0.
         14    1    1    2    0    0  0.12277814282E-01 -0.19366345884E-01 -0.46017247490E-02  0.23387516908E-01  0.00000000000E+00 0.  1.
     999901    1    3    3    0    0 -0.10083445818E-01  0.13860438056E+00 -0.40679529700E-01  0.89183388270E+00  0.88000000000E+00 0.  1.
        -11    1    4    4    0    0  0.23967470727E-02 -0.91615554838E-01  0.28130976063E-01  0.95868489192E-01  0.51100000000E-03 0.  1.
         11    1    4    4    0    0 -0.45911155364E-02 -0.27622479835E-01  0.17150278386E-01  0.32840111203E-01  0.51100000000E-03 0. -1.
</event>
<event>
 8    1  0.1177602E+005  0.1043930E+01  0.7957747E-01            NaN
         13   -1    0    0    0    0  0.00000000000E+00  0.00000000000E+00  0.74505805969E-08  0.10566000000E+00  0.10566000000E+00 0.  1.
     999900   -1    0    0    0    0 -0.00000000000E+00 -0.00000000000E+00 -0.74505805969E-08  0.93827000000E+00  0.93827000000E+00 0.  1.
     999902    2    1    2    0    0 -0.17886518747E-01 -0.69388891988E-02 -0.13793191232E-01  0.10203010377E+01  0.10200273916E+01 0.  0.
     999903    2    3    3    0    0 -0.95362006316E-01 -0.65063788384E-01 -0.63475934178E-01  0.13359402291E+00  0.22157615648E-01 0.  0.
         14    1    1    2    0    0  0.17886518747E-01  0.69388891988E-02  0.13793191232E-01  0.23628962325E-01  0.00000000000E+00 0. -1.
     999901    1    3    3    0    0  0.77475487569E-01  0.58124899185E-01  0.49682742946E-01  0.88670701476E+00  0.88000000000E+00 0. -1.
        -11    1    4    4    0    0 -0.24910713878E-01 -0.21312681581E-01 -0.77899896535E-02  0.33700432073E-01  0.51100000000E-03 0.  1.
         11    1    4    4    0    0 -0.70451292438E-01 -0.43751106803E-01 -0.55685944525E-01  0.99893590841E-01  0.51100000000E-03 0. -1.
</event>
<event>
 8    1  0.1177602E+005  0.1043930E+01  0.7957747E-01            NaN
         13   -1    0    0    0    0  0.00000000000E+00  0.00000000000E+00  0.74505805969E-08  0.10566000000E+00  0.10566000000E+00 0.  1.
     999900   -1    0    0    0    0 -0.00000000000E+00 -0.00000000000E+00 -0.74505805969E-08  0.93827000000E+00  0.93827000000E+00 0. -1.
     999902    2    1    2    0    0 -0.25076071906E-02  0.22781670801E-01 -0.58898894319E-02  0.10202660313E+01  0.10199915643E+01 0.  0.
     999903    2    3    3    0    0 -0.10287844517E+00  0.50945150545E-01 -0.63942052280E-01  0.13221336374E+00  0.14574109091E-01 0.  0.
         14    1    1    2    0    0  0.25076071906E-02 -0.22781670801E-01  0.58898894319E-02  0.23663968725E-01  0.00000000000E+00 0. -1.
     999901    1    3    3    0    0  0.10037083798E+00 -0.28163479744E-01  0.58052162848E-01  0.88805266754E+00  0.88000000000E+00 0.  1.
        -11    1    4    4    0    0 -0.43951819652E-01  0.25063223487E-01 -0.20671232193E-01  0.54657923339E-01  0.51100000000E-03 0.  1.
         11    1    4    4    0    0 -0.58926625520E-01  0.25881927058E-01 -0.43270820087E-01  0.77555440399E-01  0.51100000000E-03 0. -1.
</event>
<event>
 8    1  0.1177602E+005  0.1043930E+01  0.7957747E-01            NaN
         13   -1    0    0    0    0  0.00000000000E+00  0.00000000000E+00  0.74505805969E-08  0.10566000000E+00  0.10566000000E+00 0.  1.
     999900   -1    0    0    0    0 -0.00000000000E+00 -0.00000000000E+00 -0.74505805969E-08  0.93827000000E+00  0.93827000000E+00 0. -1.
     999902    2    1    2    0    0 -0.17625547782E-01 -0.12917385520E-01  0.95593068896E-02  0.10200783935E+01  0.10197995047E+01 0.  0.
     999903    2    3    3    0    0  0.11753493098E+00 -0.43001930322E-01  0.25832276580E-01  0.12910238689E+00  0.18343766664E-01 0.  0.
         14    1    1    2    0    0  0.17625547782E-01  0.12917385520E-01 -0.95593068896E-02  0.23851606477E-01  0.00000000000E+00 0. -1.
     999901    1    3    3    0    0 -0.13516047876E+00  0.30084544802E-01 -0.16272969690E-01  0.89097600663E+00  0.88000000000E+00 0. -1.
        -11    1    4    4    0    0  0.62804667095E-01 -0.14671094318E-01  0.18098575927E-01  0.66988706429E-01  0.51100000000E-03 0.  1.
         11    1    4    4    0    0  0.54730263885E-01 -0.28330836004E-01  0.77337006524E-02  0.62113680461E-01  0.51100000000E-03 0. -1.
</event>
<event>
 8    1  0.1177602E+005  0.1043930E+01  0.7957747E-01            NaN
         13   -1    0    0    0    0  0.00000000000E+00  0.00000000000E+00  0.74505805969E-08  0.10566000000E+00  0.10566000000E+00 0. -1.
     999900   -1    0    0    0    0 -0.00000000000E+00 -0.00000000000E+00 -0.74505805969E-08  0.93827000000E+00  0.93827000000E+00 0. -1.
     999902    2    1    2    0    0  0.22820379449E-01  0.92316256985E-03  0.63339998391E-02  0.10202289135E+01  0.10199535746E+01 0.  0.
     999903    2    3    3    0    0 -0.11228479423E+00  0.53622511318E-01  0.23555265459E-01  0.12819348746E+00  0.19886451695E-01 0.  0.
         14    1    1    2    0    0 -0.22820379449E-01 -0.92316256985E-03 -0.63339998391E-02  0.23701086500E-01  0.00000000000E+00 0. -1.
     999901    1    3    3    0    0  0.13510517368E+00 -0.52699348748E-01 -0.17221265620E-01  0.89203542604E+00  0.88000000000E+00 0.  1.
        -11    1    4    4    0    0 -0.35727830530E-01  0.97468993841E-02  0.70869069313E-03  0.37043802255E-01  0.51100000000E-03 0.  1.
         11    1    4    4    0    0 -0.76556963703E-01  0.43875611934E-01  0.22846574766E-01  0.91149685208E-01  0.51100000000E-03 0. -1.
</event>
<event>
 8    1  0.1177602E+005  0.1043930E+01  0.7957747E-01            NaN
         13   -1    0    0    0    0  0.00000000000E+00  0.00000000000E+00  0.74505805969E-08  0.10566000000E+00  0.10566000000E+00 0.  1.
     999900   -1    0    0    0    0 -0.00000000000E+00 -0.00000000000E+00 -0.74505805969E-08  0.93827000000E+00  0.93827000000E+00 0.  1.
     999902    2    1    2    0    0 -0.16172239958E-01 -0.11960489268E-01 -0.11972869012E-01  0.10205217912E+01  0.10202532931E+01 0.  0.
     999903    2    3    3    0    0 -0.99839368532E-01 -0.83772424985E-01 -0.23168902858E-01  0.13357055592E+00  0.17848715711E-01 0.  0.
         14    1    1    2    0    0  0.16172239958E-01  0.11960489268E-01  0.11972869012E-01  0.23408208842E-01  0.00000000000E+00 0.  1.
     999901    1    3    3    0    0  0.83667128574E-01  0.71811935717E-01  0.11196033846E-01  0.88695123524E+00  0.88000000000E+00 0.  1.
        -11    1    4    4    0    0 -0.73261272762E-01 -0.60740157568E-01 -0.24846781309E-01  0.98357533979E-01  0.51100000000E-03 0. -1.
         11    1    4    4    0    0 -0.26578095770E-01 -0.23032267417E-01  0.16778784509E-02  0.35213021941E-01  0.51100000000E-03 0.  1.
</event>
<event>
 8    1  0.1177602E+005  0.1043930E+01  0.7957747E-01            NaN
         13   -1    0    0    0    0  0.00000000000E+00  0.00000000000E+00  0.74505805969E-08  0.10566000000E+00  0.10566000000E+00 0. -1.
     999900   -1    0    0    0    0 -0.00000000000E+00 -0.00000000000E+00 -0.74505805969E-08  0.93827000000E+00  0.93827000000E+00 0. -1.
     999902    2    1    2    0    0  0.85753612671E-02  0.26574782863E-02 -0.22213639285E-01  0.10199707683E+01  0.10196893269E+01 0.  0.
     999903    2    3    3    0    0  0.72909172236E-01  0.33290111742E-01 -0.10453396134E+00  0.13326121448E+00  0.20179773935E-01 0.  0.
         14    1    1    2    0    0 -0.85753612671E-02 -0.26574782863E-02  0.22213639285E-01  0.23959231665E-01  0.00000000000E+00 0. -1.
     999901    1    3    3    0    0 -0.64333810969E-01 -0.30632633456E-01  0.82320322057E-01  0.88670955385E+00  0.88000000000E+00 0.  1.
        -11    1    4    4    0    0  0.40553863785E-01  0.12028373679E-01 -0.67638093255E-01  0.79777631085E-01  0.51100000000E-03 0.  1.
         11    1    4    4    0    0  0.32355308450E-01  0.21261738063E-01 -0.36895868086E-01  0.53483583399E-01  0.51100000000E-03 0. -1.
</event>
<event>
 8    1  0.1177602E+005  0.1043930E+01  0.7957747E-01            NaN
         13   -1    0    0    0    0  0.00000000000E+00  0.00000000000E+00  0.74505805969E-08  0.10566000000E+00  0.10566000000E+00 0. -1.
     999900   -1    0    0    0    0 -0.00000000000E+00 -0.00000000000E+00 -0.74505805969E-08  0.93827000000E+00  0.93827000000E+00 0. -1.
     999902    2    1    2    0    0  0.83027692706E-02  0.21078291435E-01 -0.12253993474E-01  0.10181736279E+01  0.10178478009E+01 0.  0.
     999903    2    3    3    0    0 -0.12272366602E+00 -0.18445046533E-01  0.19190952229E-01  0.12704018919E+00  0.19224959758E-01 0.  0.
         14    1    1    2    0    0 -0.83027692706E-02 -0.21078291435E-01  0.12253993474E-01  0.25756372094E-01  0.00000000000E+00 0. -1.
     999901    1    3    3    0    0  0.13102643529E+00  0.39523337968E-01 -0.31444945704E-01  0.89113343872E+00  0.88000000000E+00 0. -1.
        -11    1    4    4    0    0 -0.31947161429E-01  0.33088316655E-02  0.25787151663E-02  0.32225461723E-01  0.51100000000E-03 0. -1.
         11    1    4    4    0    0 -0.90776504595E-01 -0.21753878199E-01  0.16612237063E-01  0.94814727466E-01  0.51100000000E-03 0.  1.
</event>
<event>
 8    1  0.1177602E+005  0.1043930E+01  0.7957747E-01            NaN
         13   -1    0    0    0    0  0.00000000000E+00  0.00000000000E+00  0.74505805969E-08  0.10566000000E+00  0.10566000000E+00 0.  1.
     999900   -1    0    0    0    0 -0.00000000000E+00 -0.00000000000E+00 -0.74505805969E-08  0.93827000000E+00  0.93827000000E+00 0. -1.
     999902    2    1    2    0    0  0.43112558723E-02  0.17460890786E-01 -0.15587857787E-01  0.10201297701E+01  0.10198520956E+01 0.  0.
     999903    2    3    3    0    0 -0.74766039743E-01  0.52147461710E-01 -0.94342445591E-01  0.13240308804E+00  0.17909835897E-01 0.  0.
         14    1    1    2    0    0 -0.43112558723E-02 -0.17460890786E-01  0.15587857787E-01  0.23800229928E-01  0.00000000000E+00 0.  1.
     999901    1    3    3    0    0  0.79077295615E-01 -0.34686570923E-01  0.78754587804E-01  0.88772668203E+00  0.88000000000E+00 0.  1.
        -11    1    4    4    0    0 -0.39916527176E-01  0.21165408373E-01 -0.36372672405E-01  0.58004621129E-01  0.51100000000E-03 0.  1.
         11    1    4    4    0    0 -0.34849512567E-01  0.30982053337E-01 -0.57969773186E-01  0.74398466915E-01  0.51100000000E-03 0. -1.
</event>
<event>
 8    1  0.1177602E+005  0.1043930E+01  0.7957747E-01            NaN
         13   -1    0    0    0    0  0.00000000000E+00  0.00000000000E+00  0.74505805969E-08  0.10566000000E+00  0.10566000000E+00 0.  1.
     999900   -1    0    0    0    0 -0.00000000000E+00 -0.00000000000E+00 -0.74505805969E-08  0.93827000000E+00  0.93827000000E+00 0.  1.
     999902    2    1    2    0    0  0.12638590642E-01 -0.19724122215E-01 -0.61578938841E-02  0.10197082200E+01  0.10194205017E+01 0.  0.
     999903    2    3    3    0    0  0.84601119590E-01 -0.44686921607E-01  0.87298840197E-01  0.13148757843E+00  0.22663304745E-01 0.  0.
         14    1    1    2    0    0 -0.12638590642E-01  0.19724122215E-01  0.61578938841E-02  0.24221780027E-01  0.00000000000E+00 0.  1.
     999901    1    3    3    0    0 -0.71962528948E-01  0.24962799392E-01 -0.93456734081E-01  0.88822064155E+00  0.88000000000E+00 0.  1.
        -11    1    4    4    0    0  0.36790253140E-01 -0.70217155647E-02  0.33462114940E-01  0.50227497179E-01  0.51100000000E-03 0. -1.
         11    1    4    4    0    0  0.47810866450E-01 -0.37665206042E-01  0.53836725257E-01  0.81260081247E-01  0.51100000000E-03 0.  1.
</event>
<event>
 8    1  0.1177602E+005  0.1043930E+01  0.7957747E-01            NaN
         13   -1    0    0    0    0  0.00000000000E+00  0.00000000000E+00  0.74505805969E-08  0.10566000000E+00  0.10566000000E+00 0.  1.
     999900   -1    0    0    0    0 -0.00000000000E+00 -0.00000000000E+00 -0.74505805969E-08  0.93827000000E+00  0.93827000000E+00 0.  1.
     999902    2    1    2    0    0 -0.22047576200E-01 -0.16408730956E-01 -0.10959846433E-01  0.10143418216E+01  0.10139101887E+01 0.  0.
     999903    2    3    3    0    0  0.27441937830E-01  0.11412358081E+00 -0.30804174580E-01  0.12311699374E+00  0.20776075834E-01 0.  0.
         14    1    1    2    0    0  0.22047576200E-01  0.16408730956E-01  0.10959846433E-01  0.29588178412E-01  0.00000000000E+00 0.  1.
     999901    1    3    3    0    0 -0.49489514030E-01 -0.13053231177E+00  0.19844328147E-01  0.89122482785E+00  0.88000000000E+00 0. -1.
        -11    1    4    4    0    0  0.13420905351E-01  0.20437289727E-01 -0.71028533417E-02  0.25465960779E-01  0.51100000000E-03 0. -1.
         11    1    4    4    0    0  0.14021032479E-01  0.93686291084E-01 -0.23701321238E-01  0.97651032960E-01  0.51100000000E-03 0.  1.
</event>
<event>
 8    1  0.1177602E+005  0.1043930E+01  0.7957747E-01            NaN
         13   -1    0    0    0    0  0.00000000000E+00  0.00000000000E+00  0.74505805969E-08  0.10566000000E+00  0.10566000000E+00 0. -1.
     999900   -1    0    0    0    0 -0.00000000000E+00 -0.00000000000E+00 -0.74505805969E-08  0.93827000000E+00  0.93827000000E+00 0.  1.
     999902    2    1    2    0    0 -0.24535401278E-01 -0.40627575093E-03  0.95899431299E-03  0.10193725033E+01  0.10190766555E+01 0.  0.
     999903    2    3    3    0    0 -0.10439532751E+00 -0.66468935321E-01  0.42423172232E-01  0.13232055391E+00  0.19811604555E-01 0.  0.
         14    1    1    2    0    0  0.24535401278E-01  0.40627575093E-03 -0.95899431299E-03  0.24557496737E-01  0.00000000000E+00 0.  1.
     999901    1    3    3    0    0  0.79859926232E-01  0.66062659571E-01 -0.41464177919E-01  0.88705194936E+00  0.88000000000E+00 0.  1.
        -11    1    4    4    0    0 -0.25866743902E-01 -0.26522577786E-01  0.15802874064E-01  0.40280609755E-01  0.51100000000E-03 0. -1.
         11    1    4    4    0    0 -0.78528583609E-01 -0.39946357535E-01  0.26620298167E-01  0.92039944152E-01  0.51100000000E-03 0.  1.
</event>
<event>
 8    1  0.1177602E+005  0.1043930E+01  0.7957747E-01            NaN
         13   -1    0    0    0    0  0.00000000000E+00  0.00000000000E+00  0.74505805969E-08  0.10566000000E+00  0.10566000000E+00 0.  1.
     999900   -1    0    0    0    0 -0.00000000000E+00 -0.00000000000E+00 -0.74505805969E-08  0.93827000000E+00  0.93827000000E+00 0.  1.
     999902    2    1    2    0    0 -0.65560034673E-02 -0.21110862490E-01  0.77691942257E-02  0.10204990360E+01  0.10202300095E+01 0.  0.
     999903    2    3    3    0    0 -0.27574286311E-02  0.46348277952E-01 -0.11861586474E+00  0.12890588440E+00  0.19779721466E-01 0.  0.
         14    1    1    2    0    0  0.65560034673E-02  0.21110862490E-01 -0.77691942257E-02  0.23430964031E-01  0.00000000000E+00 0.  1.
     999901    1    3    3    0    0 -0.37985748362E-02 -0.67459140441E-01  0.12638505897E+00  0.89159315157E+00  0.88000000000E+00 0. -1.
        -11    1    4    4    0    0  0.35983751294E-02  0.19680645432E-01 -0.29352138605E-01  0.35525839467E-01  0.51100000000E-03 0. -1.
         11    1    4    4    0    0 -0.63558037605E-02  0.26667632520E-01 -0.89263726139E-01  0.93380044929E-01  0.51100000000E-03 0.  1.
</event>
<event>
 8    1  0.1177602E+005  0.1043930E+01  0.7957747E-01            NaN
         13   -1    0    0    0    0  0.00000000000E+00  0.00000000000E+00  0.74505805969E-08  0.10566000000E+00  0.10566000000E+00 0. -1.
     999900   -1    0    0    0    0 -0.00000000000E+00 -0.00000000000E+00 -0.74505805969E-08  0.93827000000E+00  0.93827000000E+00 0. -1.
     999902    2    1    2    0    0  0.12821751253E-01  0.10218809116E-01  0.16007534330E-01  0.10210157573E+01  0.10207585973E+01 0.  0.
     999903    2    3    3    0    0  0.18603755843E-01 -0.12780547503E+00  0.43001476332E-03  0.13010229698E+00  0.15687051610E-01 0.  0.
         14    1    1    2    0    0 -0.12821751253E-01 -0.10218809116E-01 -0.16007534330E-01  0.22914242738E-01  0.00000000000E+00 0.  1.
     999901    1    3    3    0    0 -0.57820045905E-02  0.13802428415E+00  0.15577519567E-01  0.89091346028E+00  0.88000000000E+00 0. -1.
        -11    1    4    4    0    0  0.52276876670E-02 -0.62454508465E-01 -0.66169364356E-02  0.63023323578E-01  0.51100000000E-03 0.  1.
         11    1    4    4    0    0  0.13376068176E-01 -0.65350966565E-01  0.70469511989E-02  0.67078973405E-01  0.51100000000E-03 0. -1.
</event>
<event>
 8    1  0.1177602E+005  0.1043930E+01  0.7957747E-01            NaN
         13   -1    0    0    0    0  0.00000000000E+00  0.00000000000E+00  0.74505805969E-08  0.10566000000E+00  0.10566000000E+00 0.  1.
     999900   -1    0    0    0    0 -0.00000000000E+00 -0.00000000000E+00 -0.74505805969E-08  0.93827000000E+00  0.93827000000E+00 0.  1.
     999902    2    1    2    0    0 -0.47983104587E-02 -0.28835446774E-02  0.22236128470E-01  0.10210000191E+01  0.10207425018E+01 0.  0.
     999903    2    3    3    0    0 -0.61062266591E-01  0.22816142512E-01 -0.10959209664E+00  0.12903321055E+00  0.19747531972E-01 0.  0.
         14    1    1    2    0    0  0.47983104587E-02  0.28835446774E-02 -0.22236128470E-01  0.22929980865E-01  0.00000000000E+00 0. -1.
     999901    1    3    3    0    0  0.56263956133E-01 -0.25699687189E-01  0.13182822511E+00  0.89196680858E+00  0.88000000000E+00 0. -1.
        -11    1    4    4    0    0 -0.16071093255E-01 -0.14858407248E-02 -0.35581782362E-01  0.39074443286E-01  0.51100000000E-03 0. -1.
         11    1    4    4    0    0 -0.44991173337E-01  0.24301983237E-01 -0.74010314276E-01  0.89958767264E-01  0.51100000000E-03 0.  1.
</event>
<event>
 8    1  0.1177602E+005  0.1043930E+01  0.7957747E-01            NaN
         13   -1    0    0    0    0  0.00000000000E+00  0.00000000000E+00  0.74505805969E-08  0.10566000000E+00  0.10566000000E+00 0. -1.
     999900   -1    0    0    0    0 -0.00000000000E+00 -0.00000000000E+00 -0.74505805969E-08  0.93827000000E+00  0.93827000000E+00 0.  1.
     999902    2    1    2    0    0  0.16212996919E-01  0.17380578652E-01 -0.12844010538E-02  0.10201267341E+01  0.10198489879E+01 0.  0.
     999903    2    3    3    0    0 -0.59804559420E-01 -0.80841161902E-01  0.76758067304E-01  0.12798503788E+00  0.19403356424E-01 0.  0.
         14    1    1    2    0    0 -0.16212996919E-01 -0.17380578652E-01  0.12844010538E-02  0.23803265941E-01  0.00000000000E+00 0.  1.
     999901    1    3    3    0    0  0.76017556339E-01  0.98221740554E-01 -0.78042468358E-01  0.89214169618E+00  0.88000000000E+00 0.  1.
        -11    1    4    4    0    0 -0.99904978768E-02 -0.20888946186E-01  0.95101217243E-02  0.25037205451E-01  0.51100000000E-03 0.  1.
         11    1    4    4    0    0 -0.49814061543E-01 -0.59952215716E-01  0.67247945580E-01  0.10294783243E+00  0.51100000000E-03 0. -1.
</event>
<event>
 8    1  0.1177602E+005  0.1043930E+01  0.7957747E-01            NaN
         13   -1    0    0    0    0  0.00000000000E+00  0.00000000000E+00  0.74505805969E-08  0.10566000000E+00  0.10566000000E+00 0. -1.
     999900   -1    0    0    0    0 -0.00000000000E+00 -0.00000000000E+00 -0.74505805969E-08  0.93827000000E+00  0.93827000000E+00 0. -1.
     999902    2    1    2    0    0  0.17517584450E-01 -0.64784372836E-02  0.14342807280E-01  0.10203810715E+01  0.10201092976E+01 0.  0.
     999903    2    3    3    0    0  0.72176211270E-01  0.10380242808E+00 -0.28677292551E-01  0.13077432478E+00  0.17181017556E-01 0.  0.
         14    1    1    2    0    0 -0.17517584450E-01  0.64784372836E-02 -0.14342807280E-01  0.23548928538E-01  0.00000000000E+00 0.  1.
     999901    1    3    3    0    0 -0.54658626821E-01 -0.11028086537E+00  0.43020099831E-01  0.88960674668E+00  0.88000000000E+00 0.  1.
        -11    1    4    4    0    0  0.65032302098E-02  0.18164997699E-01 -0.83149912687E-03  0.19318686714E-01  0.51100000000E-03 0.  1.
         11    1    4    4    0    0  0.65672981061E-01  0.85637430385E-01 -0.27845793424E-01  0.11145563807E+00  0.51100000000E-03 0. -1.
</event>
<event>
 8    1  0.1177602E+005  0.1043930E+01  0.7957747E-01            NaN
         13   -1    0    0    0    0  0.00000000000E+00  0.00000000000E+00  0.74505805969E-08  0.10566000000E+00  0.10566000000E+00 0.  1.
     999900   -1    0    0    0    0 -0.00000000000E+00 -0.00000000000E+00 -0.74505805969E-08  0.93827000000E+00  0.93827000000E+00 0.  1.
     999902    2    1    2    0    0 -0.20643858305E-01  0.10665690716E-01  0.55268475555E-02  0.10200454467E+01  0.10197657777E+01 0.  0.
     999903    2    3    3    0    0  0.10616831608E+00  0.67058505283E-01 -0.14193795666E-01  0.12895040074E+00  0.25655166023E-01 0.  0.
         14    1    1    2    0    0  0.20643858305E-01 -0.10665690716E-01 -0.55268475555E-02  0.23884553336E-01  0.00000000000E+00 0.  1.
     999901    1    3    3    0    0 -0.12681217439E+00 -0.56392814567E-01  0.19720643221E-01  0.89109504593E+00  0.88000000000E+00 0. -1.
        -11    1    4    4    0    0  0.37113996442E-01  0.10166459724E-01 -0.76545789145E-02  0.39238493021E-01  0.51100000000E-03 0.  1.
         11    1    4    4    0    0  0.69054319642E-01  0.56892045559E-01 -0.65392167514E-02  0.89711907715E-01  0.51100000000E-03 0. -1.
</event>
<event>
 8    1  0.1177602E+005  0.1043930E+01  0.7957747E-01            NaN
         13   -1    0    0    0    0  0.00000000000E+00  0.00000000000E+00  0.74505805969E-08  0.10566000000E+00  0.10566000000E+00 0.  1.
     999900   -1    0    0    0    0 -0.00000000000E+00 -0.00000000000E+00 -0.74505805969E-08  0.93827000000E+00  0.93827000000E+00 0.  1.
     999902    2    1    2    0    0  0.14457264461E-01 -0.14808843948E-01 -0.10411982647E-01  0.10207627011E+01  0.10204997640E+01 0.  0.
     999903    2    3    3    0    0  0.27938519633E-01  0.71546586219E-02  0.12529835772E+00  0.12998695147E+00  0.19109659445E-01 0.  0.
         14    1    1    2    0    0 -0.14457264461E-01  0.14808843948E-01  0.10411982647E-01  0.23167298880E-01  0.00000000000E+00 0.  1.
     999901    1    3    3    0    0 -0.13481255172E-01 -0.21963502570E-01 -0.13571034037E+00  0.89077574965E+00  0.88000000000E+00 0.  1.
        -11    1    4    4    0    0 -0.91272802299E-03  0.82328407537E-04  0.33170203211E-01  0.33186794851E-01  0.51100000000E-03 0. -1.
         11    1    4    4    0    0  0.28851247656E-01  0.70723302143E-02  0.92128154512E-01  0.96800156616E-01  0.51100000000E-03 0.  1.
</event>
<event>
 8    1  0.1177602E+005  0.1043930E+01  0.7957747E-01            NaN
         13   -1    0    0    0    0  0.00000000000E+00  0.00000000000E+00  0.74505805969E-08  0.10566000000E+00  0.10566000000E+00 0. -1.
     999900   -1    0    0    0    0 -0.00000000000E+00 -0.00000000000E+00 -0.74505805969E-08  0.93827000000E+00  0.93827000000E+00 0.  1.
     999902    2    1    2    0    0 -0.51928774586E-02  0.22667076131E-01  0.25552785945E-02  0.10205357322E+01  0.10202675575E+01 0.  0.
     999903    2    3    3    0    0  0.14873737041E-01 -0.11738229999E+00  0.45273395439E-01  0.12821217303E+00  0.19719243727E-01 0.  0.
         14    1    1    2    0    0  0.51928774586E-02 -0.22667076131E-01 -0.25552785945E-02  0.23394267788E-01  0.00000000000E+00 0. -1.
     999901    1    3    3    0    0 -0.20066614500E-01  0.14004937612E+00 -0.42718116844E-01  0.89232355918E+00  0.88000000000E+00 0. -1.
        -11    1    4    4    0    0 -0.36067994424E-02 -0.47950698347E-01  0.19083317830E-01  0.51736955985E-01  0.51100000000E-03 0.  1.
         11    1    4    4    0    0  0.18480536484E-01 -0.69431601644E-01  0.26190077609E-01  0.76475217043E-01  0.51100000000E-03 0. -1.
</event>
<event>
 8    1  0.1177602E+005  0.1043930E+01  0.7957747E-01            NaN
         13   -1    0    0    0    0  0.00000000000E+00  0.00000000000E+00  0.74505805969E-08  0.10566000000E+00  0.10566000000E+00 0.  1.
     999900   -1    0    0    0    0 -0.00000000000E+00 -0.00000000000E+00 -0.74505805969E-08  0.93827000000E+00  0.93827000000E+00 0. -1.
     999902    2    1    2    0    0 -0.14658097083E-01 -0.18094201050E-01  0.10889842547E-02  0.10206180758E+01  0.10203518074E+01 0.  0.
     999903    2    3    3    0    0 -0.12396951945E+00 -0.15314667059E-01 -0.40028939336E-01  0.13289773895E+00  0.21366147368E-01 0.  0.
         14    1    1    2    0    0  0.14658097083E-01  0.18094201050E-01 -0.10889842547E-02  0.23311924169E-01  0.00000000000E+00 0.  1.
     999901    1    3    3    0    0  0.10931142237E+00 -0.27795339916E-02  0.41117923590E-01  0.88772033688E+00  0.88000000000E+00 0. -1.
        -11    1    4    4    0    0 -0.51086787415E-01  0.15216860335E-02 -0.23666248352E-01  0.56325196926E-01  0.51100000000E-03 0. -1.
         11    1    4    4    0    0 -0.72882732039E-01 -0.16836353092E-01 -0.16362690983E-01  0.76572542025E-01  0.51100000000E-03 0.  1.
</event>
<event>
 8    1  0.1177602E+005  0.1043930E+01  0.7957747E-01            NaN
         13   -1    0    0    0    0  0.00000000000E+00  0.00000000000E+00  0.74505805969E-08  0.10566000000E+00  0.10566000000E+00 0. -1.
     999900   -1    0    0    0    0 -0.00000000000E+00 -0.00000000000E+00 -0.74505805969E-08  0.93827000000E+00  0.93827000000E+00 0.  1.
     999902    2    1    2    0    0 -0.20871350811E-02  0.13615935600E-01 -0.19611875302E-01  0.10199638679E+01  0.10196822624E+01 0.  0.
     999903    2    3    3    0    0 -0.10910183202E+00  0.45726181408E-01 -0.56217919970E-01  0.13214450803E+00  0.17539186447E-01 0.  0.
         14    1    1    2    0    0  0.20871350811E-02 -0.13615935600E-01  0.19611875302E-01  0.23966132103E-01  0.00000000000E+00 0. -1.
     999901    1    3    3    0    0  0.10701469694E+00 -0.32110245808E-01  0.36606044668E-01  0.88781935987E+00  0.88000000000E+00 0. -1.
        -11    1    4    4    0    0 -0.62082844034E-01  0.16636798457E-01 -0.31486840773E-01  0.71573352926E-01  0.51100000000E-03 0. -1.
         11    1    4    4    0    0 -0.47018987984E-01  0.29089382951E-01 -0.24731079197E-01  0.60571155105E-01  0.51100000000E-03 0.  1.
</event>
<event>
 8    1  0.1177602E+005  0.1043930E+01  0.7957747E-01            NaN
         13   -1    0    0    0    0  0.00000000000E+00  0.00000000000E+00  0.74505805969E-08  0.10566000000E+00  0.10566000000E+00 0.  1.
     999900   -1    0    0    0    0 -0.00000000000E+00 -0.00000000000E+00 -0.74505805969E-08  0.93827000000E+00  0.93827000000E+00 0. -1.
     999902    2    1    2    0    0 -0.33658101624E-02 -0.17016756516E-01  0.17011356904E-01  0.10196342196E+01  0.10193447194E+01 0.  0.
     999903    2    3    3    0    0  0.32206700918E-01 -0.93508458468E-01  0.86328889400E-01  0.13288662063E+00  0.20617308459E-01 0.  0.
         14    1    1    2    0    0  0.33658101624E-02  0.17016756516E-01 -0.17011356904E-01  0.24295780376E-01  0.00000000000E+00 0. -1.
     999901    1    3    3    0    0 -0.35572511080E-01  0.76491701952E-01 -0.69317532496E-01  0.88674759899E+00  0.88000000000E+00 0. -1.
        -11    1    4    4    0    0  0.19397231854E-01 -0.80282251628E-01  0.69780828553E-01  0.10812547195E+00  0.51100000000E-03 0.  1.
         11    1    4    4    0    0  0.12809469064E-01 -0.13226206840E-01  0.16548060847E-01  0.24761148678E-01  0.51100000000E-03 0. -1.
</event>
<event>
 8    1  0.1177602E+005  0.1043930E+01  0.7957747E-01            NaN
         13   -1    0    0    0    0  0.00000000000E+00  0.00000000000E+00  0.74505805969E-08  0.10566000000E+00  0.10566000000E+00 0. -1.
     999900   -1    0    0    0    0 -0.00000000000E+00 -0.00000000000E+00 -0.74505805969E-08  0.93827000000E+00  0.93827000000E+00 0. -1.
     999902    2    1    2    0    0  0.99498299895E-02 -0.15727413897E-01 -0.14133809970E-01  0.10205608911E+01  0.10202932996E+01 0.  0.
     999903    2    3    3    0    0 -0.19599083856E-02 -0.85540216493E-01 -0.10052150906E+00  0.13349916621E+00  0.19911898874E-01 0.  0.
         14    1    1    2    0    0 -0.99498299895E-02  0.15727413897E-01  0.14133809970E-01  0.23369108861E-01  0.00000000000E+00 0. -1.
     999901    1    3    3    0    0  0.11909738375E-01  0.69812802596E-01  0.86387699093E-01  0.88706172493E+00  0.88000000000E+00 0.  1.
        -11    1    4    4    0    0 -0.16659453605E-02 -0.49044510967E-01 -0.42338301962E-01  0.64814599929E-01  0.51100000000E-03 0. -1.
         11    1    4    4    0    0 -0.29396302509E-03 -0.36495705526E-01 -0.58183207100E-01  0.68684566284E-01  0.51100000000E-03 0.  1.
</event>
<event>
 8    1  0.1177602E+005  0.1043930E+01  0.7957747E-01            NaN
         13   -1    0    0    0    0  0.00000000000E+00  0.00000000000E+00  0.74505805969E-08  0.10566000000E+00  0.10566000000E+00 0. -1.
     999900   -1    0    0    0    0 -0.00000000000E+00 -0.00000000000E+00 -0.74505805969E-08  0.93827000000E+00  0.93827000000E+00 0.  1.
     999902    2    1    2    0    0  0.18730826145E-01  0.13080355500E-01 -0.13551101013E-01  0.10173673968E+01  0.10170205742E+01 0.  0.
     999903    2    3    3    0    0  0.50395166839E-01 -0.57422892901E-01 -0.10265840396E+00  0.12949722055E+00  0.19842397959E-01 0.  0.
         14    1    1    2    0    0 -0.18730826145E-01 -0.13080355500E-01  0.13551101013E-01  0.26562603163E-01  0.00000000000E+00 0. -1.
     999901    1    3    3    0    0 -0.31664340693E-01  0.70503248402E-01  0.89107302943E-01  0.88787017629E+00  0.88000000000E+00 0. -1.
        -11    1    4    4    0    0 -0.62940893413E-03 -0.70605953884E-02 -0.72359861519E-02  0.10142424732E-01  0.51100000000E-03 0. -1.
         11    1    4    4    0    0  0.51024575773E-01 -0.50362297513E-01 -0.95422417805E-01  0.11935479582E+00  0.51100000000E-03 0.  1.
</event>
<event>
 8    1  0.1177602E+005  0.1043930E+01  0.7957747E-01            NaN
         13   -1    0    0    0    0  0.00000000000E+00  0.00000000000E+00  0.74505805969E-08  0.10566000000E+00  0.10566000000E+00 0. -1.
     999900   -1    0    0    0    0 -0.00000000000E+00 -0.00000000000E+00 -0.74505805969E-08  0.93827000000E+00  0.93827000000E+00 0. -1.
     999902    2    1    2    0    0  0.57583591941E-03 -0.18211308946E-01 -0.13698087320E-01  0.10211348041E+01  0.10208803393E+01 0.  0.
     999903    2    3    3    0    0 -0.10140442139E+00 -0.82898572225E-01  0.32698359451E-02  0.13272480564E+00  0.21216791738E-01 0.  0.
         14    1    1    2    0    0 -0.57583591941E-03  0.18211308946E-01  0.13698087320E-01  0.22795195914E-01  0.00000000000E+00 0. -1.
     999901    1    3    3    0    0  0.10198025731E+00  0.64687263279E-01 -0.16967923265E-01  0.88840999844E+00  0.88000000000E+00 0.  1.
        -11    1    4    4    0    0 -0.18740388014E-01 -0.10318385519E-01  0.73940430169E-02  0.22640764470E-01  0.51100000000E-03 0.  1.
         11    1    4    4    0    0 -0.82664033377E-01 -0.72580186705E-01 -0.41242070718E-02  0.11008404117E+00  0.51100000000E-03 0. -1.
</event>
<event>
 8    1  0.1177602E+005  0.1043930E+01  0.7957747E-01            NaN
         13   -1    0    0    0    0  0.00000000000E+00  0.00000000000E+00  0.74505805969E-08  0.10566000000E+00  0.10566000000E+00 0. -1.
     999900   -1    0    0    0    0 -0.00000000000E+00 -0.00000000000E+00 -0.74505805969E-08  0.93827000000E+00  0.93827000000E+00 0. -1.
     999902    2    1    2    0    0 -0.22318754335E-01 -0.21671412901E-02 -0.10335286667E-01  0.10192390817E+01  0.10189399709E+01 0.  0.
     999903    2    3    3    0    0  0.85513696130E-01 -0.73935768534E-01 -0.57797175819E-01  0.12849152814E+00  0.19760292947E-01 0.  0.
         14    1    1    2    0    0  0.22318754335E-01  0.21671412901E-02  0.10335286667E-01  0.24690918309E-01  0.00000000000E+00 0. -1.
     999901    1    3    3    0    0 -0.10783245047E+00  0.71768627244E-01  0.47461889152E-01  0.89074755355E+00  0.88000000000E+00 0. -1.
        -11    1    4    4    0    0  0.29109520647E-01 -0.13632167014E-01 -0.14705874055E-01  0.35351435933E-01  0.51100000000E-03 0.  1.
         11    1    4    4    0    0  0.56404175483E-01 -0.60303601520E-01 -0.43091301764E-01  0.93140092211E-01  0.51100000000E-03 0. -1.
</event>
<event>
 8    1  0.1177602E+005  0.1043930E+01  0.7957747E-01            NaN
         13   -1    0    0    0    0  0.00000000000E+00  0.00000000000E+00  0.74505805969E-08  0.10566000000E+00  0.10566000000E+00 0. -1.
     999900   -1    0    0    0    0 -0.00000000000E+00 -0.00000000000E+00 -0.74505805969E-08  0.93827000000E+00  0.93827000000E+00 0.  1.
     999902    2    1    2    0    0 -0.83657090638E-03  0.23835244890E-01  0.10832002473E-02  0.10200554932E+01  0.10197760623E+01 0.  0.
     999903    2    3    3    0    0 -0.28800318034E-01  0.16124541883E-01 -0.12478277544E+00  0.13062664847E+00  0.20077875196E-01 0.  0.
         14    1    1    2    0    0  0.83657090638E-03 -0.23835244890E-01 -0.10832002473E-02  0.23874506752E-01  0.00000000000E+00 0. -1.
     999901    1    3    3    0    0  0.27963747128E-01  0.77107030069E-02  0.12586597569E+00  0.88942884478E+00  0.88000000000E+00 0. -1.
        -11    1    4    4    0    0 -0.18129810106E-01  0.18022943497E-01 -0.64646671728E-01  0.69519564105E-01  0.51100000000E-03 0. -1.
         11    1    4    4    0    0 -0.10670507928E-01 -0.18984016139E-02 -0.60136103715E-01  0.61107084361E-01  0.51100000000E-03 0.  1.
</event>
<event>
 8    1  0.1177602E+005  0.1043930E+01  0.7957747E-01            NaN
         13   -1    0    0    0    0  0.00000000000E+00  0.00000000000E+00  0.74505805969E-08  0.10566000000E+00  0.10566000000E+00 0.  1.
     999900   -1    0    0    0    0 -0.00000000000E+00 -0.00000000000E+00 -0.74505805969E-08  0.93827000000E+00  0.93827000000E+00 0.  1.
     999902    2    1    2    0    0 -0.92496224846E-02  0.19800327242E-02 -0.14836765985E-01  0.10263343849E+01  0.10261835430E+01 0.  0.
     999903    2    3    3    0    0 -0.88077774792E-01  0.85576031302E-01  0.55401301497E-01  0.13608972488E+00  0.19239476745E-01 0.  0.
         14    1    1    2    0    0  0.92496224846E-02 -0.19800327242E-02  0.14836765985E-01  0.17595615095E-01  0.00000000000E+00 0.  1.
     999901    1    3    3    0    0  0.78828152307E-01 -0.83595998577E-01 -0.70238067482E-01  0.89024466002E+00  0.88000000000E+00 0. -1.
        -11    1    4    4    0    0 -0.26539385639E-01  0.27834440683E-01  0.79489649753E-02  0.39275211564E-01  0.51100000000E-03 0.  1.
         11    1    4    4    0    0 -0.61538389153E-01  0.57741590618E-01  0.47452336522E-01  0.96814513318E-01  0.51100000000E-03 0. -1.
</event>
<event>
 8    1  0.1177602E+005  0.1043930E+01  0.7957747E-01            NaN
         13   -1    0    0    0    0  0.00000000000E+00  0.00000000000E+00  0.74505805969E-08  0.10566000000E+00  0.10566000000E+00 0. -1.
     999900   -1    0    0    0    0 -0.00000000000E+00 -0.00000000000E+00 -0.74505805969E-08  0.93827000000E+00  0.93827000000E+00 0. -1.
     999902    2    1    2    0    0 -0.52087974551E-02  0.27453682998E-01  0.72197582399E-02  0.10150689330E+01  0.10146585522E+01 0.  0.
     999903    2    3    3    0    0  0.11465894705E-01 -0.89527697891E-01 -0.80660452570E-01  0.12283263003E+00  0.20858354683E-01 0.  0.
         14    1    1    2    0    0  0.52087974551E-02 -0.27453682998E-01 -0.72197582399E-02  0.28861067030E-01  0.00000000000E+00 0. -1.
     999901    1    3    3    0    0 -0.16674692160E-01  0.11698138089E+00  0.87880210809E-01  0.89223630294E+00  0.88000000000E+00 0.  1.
        -11    1    4    4    0    0  0.11121468886E-01 -0.83418757010E-01 -0.80833036927E-01  0.11669026125E+00  0.51100000000E-03 0. -1.
         11    1    4    4    0    0  0.34442581939E-03 -0.61089408810E-02  0.17258435729E-03  0.61423687771E-02  0.51100000000E-03 0.  1.
</event>
<event>
 8    1  0.1177602E+005  0.1043930E+01  0.7957747E-01            NaN
         13   -1    0    0    0    0  0.00000000000E+00  0.00000000000E+00  0.74505805969E-08  0.10566000000E+00  0.10566000000E+00 0.  1.
     999900   -1    0    0    0    0 -0.00000000000E+00 -0.00000000000E+00 -0.74505805969E-08  0.93827000000E+00  0.93827000000E+00 0. -1.
     999902    2    1    2    0    0  0.21286060910E-01  0.15692977694E-03 -0.95303483270E-02  0.10206072953E+01  0.10203407777E+01 0.  0.
     999903    2    3    3    0    0 -0.92513665446E-01 -0.93021653512E-02 -0.88067007984E-01  0.12976058619E+00  0.20897446202E-01 0.  0.
         14    1    1    2    0    0 -0.21286060910E-01 -0.15692977694E-03  0.95303483270E-02  0.23322704716E-01  0.00000000000E+00 0.  1.
     999901    1    3    3    0    0  0.11379972636E+00  0.94590951281E-02  0.78536659657E-01  0.89084670910E+00  0.88000000000E+00 0.  1.
        -11    1    4    4    0    0 -0.77487801532E-01 -0.83810735578E-03 -0.66302322992E-01  0.10198686663E+00  0.51100000000E-03 0. -1.
         11    1    4    4    0    0 -0.15025863914E-01 -0.84640579954E-02 -0.21764684992E-01  0.27773719555E-01  0.51100000000E-03 0.  1.
</event>
<event>
 8    1  0.1177602E+005  0.1043930E+01  0.7957747E-01            NaN
         13   -1    0    0    0    0  0.00000000000E+00  0.00000000000E+00  0.74505805969E-08  0.10566000000E+00  0.10566000000E+00 0. -1.
     999900   -1    0    0    0    0 -0.00000000000E+00 -0.00000000000E+00 -0.74505805969E-08  0.93827000000E+00  0.93827000000E+00 0.  1.
     999902    2    1    2    0    0  0.65703171020E-02 -0.19285200417E-02 -0.23477627158E-01  0.10194741779E+01  0.10191808045E+01 0.  0.
     999903    2    3    3    0    0  0.56636914490E-01  0.82340976360E-01  0.77857313936E-01  0.12825210544E+00  0.19976604961E-01 0.  0.
         14    1    1    2    0    0 -0.65703171020E-02  0.19285200417E-02  0.23477627158E-01  0.24455822074E-01  0.00000000000E+00 0. -1.
     999901    1    3    3    0    0 -0.50066597388E-01 -0.84269496402E-01 -0.10133494109E+00  0.89122207248E+00  0.88000000000E+00 0.  1.
        -11    1    4    4    0    0  0.27950352216E-01  0.24727019354E-01  0.24458140207E-01  0.44621849116E-01  0.51100000000E-03 0.  1.
         11    1    4    4    0    0  0.28686562273E-01  0.57613957006E-01  0.53399173730E-01  0.83630256324E-01  0.51100000000E-03 0. -1.
</event>
<event>
 7    1  0.1177602E+005  0.1043930E+01  0.7957747E-01            NaN
         13   -1    0    0    0    0  0.00000000000E+00  0.00000000000E+00  0.74505805969E-08  0.10566000000E+00  0.10566000000E+00 0. -1.
     999900   -1    0    0    0    0 -0.00000000000E+00 -0.00000000000E+00 -0.74505805969E-08  0.93827000000E+00  0.93827000000E+00 0. -1.
     999903    2    1    2    0    0  0.59577925002E-01 -0.80238796046E-01  0.16486421759E-01  0.10327928125E+00  0.20174595300E-01 0.  0.
         14    1    1    2    0    0 -0.22074237670E-01 -0.14230213795E-01  0.45605059396E-01  0.52626917028E-01  0.00000000000E+00 0. -1.
     999901    1    1    2    0    0 -0.37503687332E-01  0.94469009841E-01 -0.62091481156E-01  0.88802380172E+00  0.88000000000E+00 0. -1.
        -11    1    3    3    0    0  0.42116313415E-01 -0.67373938136E-01  0.18208927668E-01  0.81515995752E-01  0.51100000000E-03 0.  1.
         11    1    3    3    0    0  0.17461611587E-01 -0.12864857910E-01 -0.17225059085E-02  0.21763285503E-01  0.51100000000E-03 0. -1.
</event>
<event>
 8    1  0.1177602E+005  0.1043930E+01  0.7957747E-01            NaN
         13   -1    0    0    0    0  0.00000000000E+00  0.00000000000E+00  0.74505805969E-08  0.10566000000E+00  0.10566000000E+00 0. -1.
     999900   -1    0    0    0    0 -0.00000000000E+00 -0.00000000000E+00 -0.74505805969E-08  0.93827000000E+00  0.93827000000E+00 0. -1.
     999902    2    1    2    0    0 -0.36264214100E-02  0.22549144073E-01 -0.40541145767E-02  0.10207340806E+01  0.10204704859E+01 0.  0.
     999903    2    3    3    0    0  0.72688113794E-01 -0.94282783439E-01  0.43849888634E-01  0.12845138938E+00  0.20103272388E-01 0.  0.
         14    1    1    2    0    0  0.36264214100E-02 -0.22549144073E-01  0.40541145767E-02  0.23195919375E-01  0.00000000000E+00 0. -1.
     999901    1    3    3    0    0 -0.76314535204E-01  0.11683192751E+00 -0.47904003211E-01  0.89228269124E+00  0.88000000000E+00 0. -1.
        -11    1    4    4    0    0  0.31668950003E-01 -0.35366241572E-01  0.77830550114E-02  0.48109567692E-01  0.51100000000E-03 0.  1.
         11    1    4    4    0    0  0.41019163791E-01 -0.58916541867E-01  0.36066833623E-01  0.80341821688E-01  0.51100000000E-03 0. -1.
</event>
<event>
 8    1  0.1177602E+005  0.1043930E+01  0.7957747E-01            NaN
         13   -1    0    0    0    0  0.00000000000E+00  0.00000000000E+00  0.74505805969E-08  0.10566000000E+00  0.10566000000E+00 0.  1.
     999900   -1    0    0    0    0 -0.00000000000E+00 -0.00000000000E+00 -0.74505805969E-08  0.93827000000E+00  0.93827000000E+00 0. -1.
     999902    2    1    2    0    0  0.21228776137E-01  0.21685832648E-02  0.10542673042E-01  0.10201284949E+01  0.10198507903E+01 0.  0.
     999903    2    3    3    0    0  0.64420001915E-01 -0.11302600384E+00  0.27021745441E-02  0.13153592894E+00  0.19224584882E-01 0.  0.
         14    1    1    2    0    0 -0.21228776137E-01 -0.21685832648E-02 -0.10542673042E-01  0.23801505089E-01  0.00000000000E+00 0.  1.
     999901    1    3    3    0    0 -0.43191225778E-01  0.11519458710E+00  0.78404984975E-02  0.88859256597E+00  0.88000000000E+00 0.  1.
        -11    1    4    4    0    0  0.20408549077E-01 -0.23365451378E-01 -0.46958751081E-02  0.31380974451E-01  0.51100000000E-03 0.  1.
         11    1    4    4    0    0  0.44011452838E-01 -0.89660552462E-01  0.73980496522E-02  0.10015495449E+00  0.51100000000E-03 0. -1.
</event>
<event>
 8    1  0.1177602E+005  0.1043930E+01  0.7957747E-01            NaN
         13   -1    0    0    0    0  0.00000000000E+00  0.00000000000E+00  0.74505805969E-08  0.10566000000E+00  0.10566000000E+00 0.  1.
     999900   -1    0    0    0    0 -0.00000000000E+00 -0.00000000000E+00 -0.74505805969E-08  0.93827000000E+00  0.93827000000E+00 0.  1.
     999902    2    1    2    0    0 -0.16555836154E-01  0.31920955095E-02 -0.15395145698E-01  0.10210980992E+01  0.10208428050E+01 0.  0.
     999903    2    3    3    0    0  0.95047109764E-01  0.46682755018E-01  0.70618620610E-01  0.12882850818E+00  0.19913870882E-01 0.  0.
         14    1    1    2    0    0  0.16555836154E-01 -0.31920955095E-02  0.15395145698E-01  0.22831900831E-01  0.00000000000E+00 0.  1.
     999901    1    3    3    0    0 -0.11160294592E+00 -0.43490659508E-01 -0.86013766308E-01  0.89226959098E+00  0.88000000000E+00 0.  1.
        -11    1    4    4    0    0  0.42170449295E-01  0.30892222022E-01  0.39037283484E-01  0.65244515463E-01  0.51100000000E-03 0. -1.
         11    1    4    4    0    0  0.52876660470E-01  0.15790532996E-01  0.31581337126E-01  0.63583992722E-01  0.51100000000E-03 0.  1.
</event>
<event>
 8    1  0.1177602E+005  0.1043930E+01  0.7957747E-01            NaN
         13   -1    0    0    0    0  0.00000000000E+00  0.00000000000E+00  0.74505805969E-08  0.10566000000E+00  0.10566000000E+00 0. -1.
     999900   -1    0    0    0    0 -0.00000000000E+00 -0.00000000000E+00 -0.74505805969E-08  0.93827000000E+00  0.93827000000E+00 0. -1.
     999902    2    1    2    0    0  0.11297196681E-01 -0.91078342028E-02 -0.18816239890E-01  0.10201680518E+01  0.10198912804E+01 0.  0.
     999903    2    3    3    0    0  0.17438745255E-01 -0.86892104048E-01  0.91751852464E-01  0.12982350376E+00  0.24112074054E-01 0.  0.
         14    1    1    2    0    0 -0.11297196681E-01  0.91078342028E-02  0.18816239890E-01  0.23761948159E-01  0.00000000000E+00 0. -1.
     999901    1    3    3    0    0 -0.61415485742E-02  0.77784269846E-01 -0.11056809235E+00  0.89034454808E+00  0.88000000000E+00 0. -1.
        -11    1    4    4    0    0  0.42578445132E-02 -0.68633383474E-01  0.62683213627E-01  0.93049002996E-01  0.51100000000E-03 0. -1.
         11    1    4    4    0    0  0.13180900742E-01 -0.18258720574E-01  0.29068638837E-01  0.36774500761E-01  0.51100000000E-03 0.  1.
</event>
<event>
 8    1  0.1177602E+005  0.1043930E+01  0.7957747E-01            NaN
         13   -1    0    0    0    0  0.00000000000E+00  0.00000000000E+00  0.74505805969E-08  0.10566000000E+00  0.10566000000E+00 0. -1.
     999900   -1    0    0    0    0 -0.00000000000E+00 -0.00000000000E+00 -0.74505805969E-08  0.93827000000E+00  0.93827000000E+00 0. -1.
     999902    2    1    2    0    0 -0.14624952643E-02  0.62238505060E-02 -0.21746960548E-01  0.10212627218E+01  0.10210111368E+01 0.  0.
     999903    2    3    3    0    0  0.72467713722E-01 -0.92051537216E-01 -0.57810691411E-01  0.13197968457E+00  0.18748494938E-01 0.  0.
         14    1    1    2    0    0  0.14624952643E-02 -0.62238505060E-02  0.21746960548E-01  0.22667278192E-01  0.00000000000E+00 0. -1.
     999901    1    3    3    0    0 -0.73930208986E-01  0.98275387722E-01  0.36063730863E-01  0.88928303724E+00  0.88000000000E+00 0.  1.
        -11    1    4    4    0    0  0.24862116603E-01 -0.46359725098E-01 -0.23753007127E-01  0.57721879922E-01  0.51100000000E-03 0.  1.
         11    1    4    4    0    0  0.47605597119E-01 -0.45691812118E-01 -0.34057684285E-01  0.74257804651E-01  0.51100000000E-03 0. -1.
</event>
<event>
 8    1  0.1177602E+005  0.1043930E+01  0.7957747E-01            NaN
         13   -1    0    0    0    0  0.00000000000E+00  0.00000000000E+00  0.74505805969E-08  0.10566000000E+00  0.10566000000E+00 0.  1.
     999900   -1    0    0    0    0 -0.00000000000E+00 -0.00000000000E+00 -0.74505805969E-08  0.93827000000E+00  0.93827000000E+00 0.  1.
     999902    2    1    2    0    0 -0.15870432536E-02 -0.22765467327E-02  0.23198236037E-01  0.10205663632E+01  0.10202988984E+01 0.  0.
     999903    2    3    3    0    0 -0.85592031853E-01 -0.97538274405E-01 -0.15119947381E-02  0.13110459873E+00  0.18612328976E-01 0.  0.
         14    1    1    2    0    0  0.15870432536E-02  0.22765467327E-02 -0.23198236037E-01  0.23363636843E-01  0.00000000000E+00 0. -1.
     999901    1    3    3    0    0  0.84004988599E-01  0.95261727673E-01  0.24710230775E-01  0.88946176442E+00  0.88000000000E+00 0.  1.
        -11    1    4    4    0    0 -0.10042769021E-01 -0.53797567739E-02 -0.34678721875E-02  0.11919993752E-01  0.51100000000E-03 0.  1.
         11    1    4    4    0    0 -0.75549262832E-01 -0.92158517632E-01  0.19558774495E-02  0.11918460498E+00  0.51100000000E-03 0. -1.
</event>
<event>
 8    1  0.1177602E+005  0.1043930E+01  0.7957747E-01            NaN
         13   -1    0    0    0    0  0.00000000000E+00  0.00000000000E+00  0.74505805969E-08  0.10566000000E+00  0.10566000000E+00 0.  1.
     999900   -1    0    0    0    0 -0.00000000000E+00 -0.00000000000E+00 -0.74505805969E-08  0.93827000000E+00  0.93827000000E+00 0.  1.
     999902    2    1    2    0    0 -0.71444815960E-02  0.20334204427E-01 -0.10885567846E-01  0.10197842121E+01  0.10194983179E+01 0.  0.
     999903    2    3    3    0    0  0.35700108409E-01  0.12139037308E+00  0.31679193775E-01  0.13194426758E+00  0.19889645873E-01 0.  0.
         14    1    1    2    0    0  0.71444815960E-02 -0.20334204427E-01  0.10885567846E-01  0.24145787920E-01  0.00000000000E+00 0.  1.
     999901    1    3    3    0    0 -0.42844590005E-01 -0.10105616865E+00 -0.42564761621E-01  0.88783994450E+00  0.88000000000E+00 0.  1.
        -11    1    4    4    0    0  0.14432524010E-01  0.68923551304E-01  0.91564898229E-02  0.71013069927E-01  0.51100000000E-03 0.  1.
         11    1    4    4    0    0  0.21267584399E-01  0.52466821774E-01  0.22522703952E-01  0.60931197654E-01  0.51100000000E-03 0. -1.
</event>
<event>
 8    1  0.1177602E+005  0.1043930E+01  0.7957747E-01            NaN
         13   -1    0    0    0    0  0.00000000000E+00  0.00000000000E+00  0.74505805969E-08  0.10566000000E+00  0.10566000000E+00 0.  1.
     999900   -1    0    0    0    0 -0.00000000000E+00 -0.00000000000E+00 -0.74505805969E-08  0.93827000000E+00  0.93827000000E+00 0.  1.
     999902    2    1    2    0    0  0.84901670902E-02  0.16844282243E-01 -0.13002895547E-01  0.10210195641E+01  0.10207624906E+01 0.  0.
     999903    2    3    3    0    0 -0.21180345325E-01  0.82542346795E-01  0.97645587878E-01  0.13116583347E+00  0.20198242385E-01 0.  0.
         14    1    1    2    0    0 -0.84901670902E-02 -0.16844282243E-01  0.13002895547E-01  0.22910435921E-01  0.00000000000E+00 0.  1.
     999901    1    3    3    0    0  0.29670512415E-01 -0.65698064553E-01 -0.11064848343E+00  0.88985373061E+00  0.88000000000E+00 0.  1.
        -11    1    4    4    0    0 -0.10544550422E-01  0.68809375119E-01  0.83826083976E-01  0.10896325584E+00  0.51100000000E-03 0.  1.
         11    1    4    4    0    0 -0.10635794903E-01  0.13732971676E-01  0.13819503903E-01  0.22202577629E-01  0.51100000000E-03 0. -1.
</event>
<event>
 8    1  0.1177602E+005  0.1043930E+01  0.7957747E-01            NaN
         13   -1    0    0    0    0  0.00000000000E+00  0.00000000000E+00  0.74505805969E-08  0.10566000000E+00  0.10566000000E+00 0. -1.
     999900   -1    0    0    0    0 -0.00000000000E+00 -0.00000000000E+00 -0.74505805969E-08  0.93827000000E+00  0.93827000000E+00 0.  1.
     999902    2    1    2    0    0  0.94659744122E-03 -0.11501965194E-01  0.20396844285E-01  0.10204945033E+01  0.10202253715E+01 0.  0.
     999903    2    3    3    0    0 -0.40891740328E-01  0.10074542454E+00  0.70175293138E-01  0.13098462869E+00  0.20263913569E-01 0.  0.
         14    1    1    2    0    0 -0.94659744122E-03  0.11501965194E-01 -0.20396844285E-01  0.23435496726E-01  0.00000000000E+00 0.  1.
     999901    1    3    3    0    0  0.41838337769E-01 -0.11224738974E+00 -0.49778448854E-01  0.88950987458E+00  0.88000000000E+00 0. -1.
        -11    1    4    4    0    0 -0.80796879887E-02  0.30373196020E-01  0.30455246477E-01  0.43767517104E-01  0.51100000000E-03 0. -1.
         11    1    4    4    0    0 -0.32812052340E-01  0.70372228522E-01  0.39720046661E-01  0.87217111587E-01  0.51100000000E-03 0.  1.
</event>
<event>
 8    1  0.1177602E+005  0.1043930E+01  0.7957747E-01            NaN
         13   -1    0    0    0    0  0.00000000000E+00  0.00000000000E+00  0.74505805969E-08  0.10566000000E+00  0.10566000000E+00 0. -1.
     999900   -1    0    0    0    0 -0.00000000000E+00 -0.00000000000E+00 -0.74505805969E-08  0.93827000000E+00  0.93827000000E+00 0. -1.
     999902    2    1    2    0    0  0.21342656143E-01  0.11613614560E-01 -0.24285390506E-02  0.10195110972E+01  0.10192186195E+01 0.  0.
     999903    2    3    3    0    0  0.11404280585E+00  0.40366304108E-01  0.50442444386E-01  0.13259769901E+00  0.20062639728E-01 0.  0.
         14    1    1    2    0    0 -0.21342656143E-01 -0.11613614560E-01  0.24285390506E-02  0.24418902848E-01  0.00000000000E+00 0. -1.
     999901    1    3    3    0    0 -0.92700149711E-01 -0.28752689548E-01 -0.52870983437E-01  0.88691339814E+00  0.88000000000E+00 0. -1.
        -11    1    4    4    0    0  0.40801655452E-01  0.56463879267E-02  0.21974610414E-01  0.46688343385E-01  0.51100000000E-03 0. -1.
         11    1    4    4    0    0  0.73241150402E-01  0.34719916181E-01  0.28467833973E-01  0.85909355625E-01  0.51100000000E-03 0.  1.
</event>
<event>
 8    1  0.1177602E+005  0.1043930E+01  0.7957747E-01            NaN
         13   -1    0    0    0    0  0.00000000000E+00  0.00000000000E+00  0.74505805969E-08  0.10566000000E+00  0.10566000000E+00 0. -1.
     999900   -1    0    0    0    0 -0.00000000000E+00 -0.00000000000E+00 -0.74505805969E-08  0.93827000000E+00  0.93827000000E+00 0. -1.
     999902    2    1    2    0    0 -0.18343696610E-01  0.57462396722E-02  0.13568948095E-01  0.10204007240E+01  0.10201294088E+01 0.  0.
     999903    2    3    3    0    0  0.79131419989E-01  0.78854577887E-01  0.64373623114E-01  0.13055391559E+00  0.20506960764E-01 0.  0.
         14    1    1    2    0    0  0.18343696610E-01 -0.57462396722E-02 -0.13568948095E-01  0.23529275979E-01  0.00000000000E+00 0.  1.
     999901    1    3    3    0    0 -0.97475116599E-01 -0.73108338215E-01 -0.50804675019E-01  0.88984680843E+00  0.88000000000E+00 0.  1.
        -11    1    4    4    0    0  0.42014109811E-01  0.28212149928E-01  0.32388326644E-01  0.60086401545E-01  0.51100000000E-03 0.  1.
         11    1    4    4    0    0  0.37117310178E-01  0.50642427959E-01  0.31985296470E-01  0.70467514045E-01  0.51100000000E-03 0. -1.
</event>
<event>
 8    1  0.1177602E+005  0.1043930E+01  0.7957747E-01            NaN
         13   -1    0    0    0    0  0.00000000000E+00  0.00000000000E+00  0.74505805969E-08  0.10566000000E+00  0.10566000000E+00 0.  1.
     999900   -1    0    0    0    0 -0.00000000000E+00 -0.00000000000E+00 -0.74505805969E-08  0.93827000000E+00  0.93827000000E+00 0. -1.
     999902    2    1    2    0    0 -0.23391952517E-01 -0.21016989898E-02  0.35215552070E-02  0.10201812751E+01  0.10199048153E+01 0.  0.
     999903    2    3    3    0    0  0.84869953731E-01 -0.17607686532E-01  0.93393413408E-01  0.12886874472E+00  0.19284294816E-01 0.  0.
         14    1    1    2    0    0  0.23391952517E-01  0.21016989898E-02 -0.35215552070E-02  0.23748724856E-01  0.00000000000E+00 0.  1.
     999901    1    3    3    0    0 -0.10826190625E+00  0.15505987542E-01 -0.89871858201E-01  0.89131253042E+00  0.88000000000E+00 0. -1.
        -11    1    4    4    0    0  0.53065601544E-01 -0.16146599122E-01  0.70224197827E-01  0.89489495539E-01  0.51100000000E-03 0. -1.
         11    1    4    4    0    0  0.31804352186E-01 -0.14610874099E-02  0.23169215581E-01  0.39379249181E-01  0.51100000000E-03 0.  1.
</event>
<event>
 8    1  0.1177602E+005  0.1043930E+01  0.7957747E-01            NaN
         13   -1    0    0    0    0  0.00000000000E+00  0.00000000000E+00  0.74505805969E-08  0.10566000000E+00  0.10566000000E+00 0.  1.
     999900   -1    0    0    0    0 -0.00000000000E+00 -0.00000000000E+00 -0.74505805969E-08  0.93827000000E+00  0.93827000000E+00 0. -1.
     999902    2    1    2    0    0 -0.18427696622E-01  0.78909343184E-02  0.13610161817E-01  0.10197001970E+01  0.10194122858E+01 0.  0.
     999903    2    3    3    0    0  0.61963214562E-01 -0.10651764520E+00 -0.29649372779E-01  0.12761084668E+00  0.14832201021E-01 0.  0.
         14    1    1    2    0    0  0.18427696622E-01 -0.78909343184E-02 -0.13610161817E-01  0.24229802968E-01  0.00000000000E+00 0. -1.
     999901    1    3    3    0    0 -0.80390911184E-01  0.11440857952E+00  0.43259534596E-01  0.89208935035E+00  0.88000000000E+00 0.  1.
        -11    1    4    4    0    0  0.25292186123E-01 -0.48548296746E-01 -0.60906778685E-02  0.55081660048E-01  0.51100000000E-03 0.  1.
         11    1    4    4    0    0  0.36671028439E-01 -0.57969348457E-01 -0.23558694910E-01  0.72529186636E-01  0.51100000000E-03 0. -1.
</event>
<event>
 8    1  0.1177602E+005  0.1043930E+01  0.7957747E-01            NaN
         13   -1    0    0    0    0  0.00000000000E+00  0.00000000000E+00  0.74505805969E-08  0.10566000000E+00  0.10566000000E+00 0. -1.
     999900   -1    0    0    0    0 -0.00000000000E+00 -0.00000000000E+00 -0.74505805969E-08  0.93827000000E+00  0.93827000000E+00 0. -1.
     999902    2    1    2    0    0 -0.96965078520E-02 -0.17500806605E-01 -0.74977106711E-02  0.10225637612E+01  0.10223405154E+01 0.  0.
     999903    2    3    3    0    0  0.10655753442E+00 -0.69935700594E-02  0.73466249983E-01  0.13117127338E+00  0.20129453822E-01 0.  0.
         14    1    1    2    0    0  0.96965078520E-02  0.17500806605E-01  0.74977106711E-02  0.21366238828E-01  0.00000000000E+00 0.  1.
     999901    1    3    3    0    0 -0.11625404227E+00 -0.10507236546E-01 -0.80963960654E-01  0.89139248779E+00  0.88000000000E+00 0.  1.
        -11    1    4    4    0    0  0.93952228041E-01 -0.11544584420E-01  0.68601598854E-01  0.11690482911E+00  0.51100000000E-03 0. -1.
         11    1    4    4    0    0  0.12605306375E-01  0.45510143607E-02  0.48646511289E-02  0.14266444271E-01  0.51100000000E-03 0.  1.
</event>
<event>
 8    1  0.1177602E+005  0.1043930E+01  0.7957747E-01            NaN
         13   -1    0    0    0    0  0.00000000000E+00  0.00000000000E+00  0.74505805969E-08  0.10566000000E+00  0.10566000000E+00 0.  1.
     999900   -1    0    0    0    0 -0.00000000000E+00 -0.00000000000E+00 -0.74505805969E-08  0.93827000000E+00  0.93827000000E+00 0.  1.
     999902    2    1    2    0    0 -0.10303215898E-02  0.80901632587E-02  0.22560601611E-01  0.10199405638E+01  0.10196584039E+01 0.  0.
     999903    2    3    3    0    0  0.15162374527E-01 -0.12676233127E+00  0.65586005446E-03  0.12925138323E+00  0.20171853714E-01 0.  0.
         14    1    1    2    0    0  0.10303215898E-02 -0.80901632587E-02 -0.22560601611E-01  0.23989436199E-01  0.00000000000E+00 0. -1.
     999901    1    3    3    0    0 -0.16192696116E-01  0.13485249453E+00  0.21904741556E-01  0.89068918057E+00  0.88000000000E+00 0.  1.
        -11    1    4    4    0    0  0.50588315274E-02 -0.89694881486E-01  0.77734274635E-02  0.90174557591E-01  0.51100000000E-03 0.  1.
         11    1    4    4    0    0  0.10103542999E-01 -0.37067449788E-01 -0.71175674090E-02  0.39076825635E-01  0.51100000000E-03 0. -1.
</event>
<event>
 8    1  0.1177602E+005  0.1043930E+01  0.7957747E-01            NaN
         13   -1    0    0    0    0  0.00000000000E+00  0.00000000000E+00  0.74505805969E-08  0.10566000000E+00  0.10566000000E+00 0. -1.
     999900   -1    0    0    0    0 -0.00000000000E+00 -0.00000000000E+00 -0.74505805969E-08  0.93827000000E+00  0.93827000000E+00 0. -1.
     999902    2    1    2    0    0 -0.13810485489E-01 -0.64274330784E-02  0.18452417528E-01  0.10200023357E+01  0.10197216442E+01 0.  0.
     999903    2    3    3    0    0 -0.12434705325E+00 -0.18145100718E-01 -0.33408082574E-01  0.13149507743E+00  0.19581140805E-01 0.  0.
         14    1    1    2    0    0  0.13810485489E-01  0.64274330784E-02 -0.18452417528E-01  0.23927664283E-01  0.00000000000E+00 0. -1.
     999901    1    3    3    0    0  0.11053656777E+00  0.11717667639E-01  0.51860500102E-01  0.88850725828E+00  0.88000000000E+00 0.  1.
        -11    1    4    4    0    0 -0.45587045875E-01  0.25541384785E-02 -0.14284433673E-01  0.47843584119E-01  0.51100000000E-03 0. -1.
         11    1    4    4    0    0 -0.78760007379E-01 -0.20699239196E-01 -0.19123648900E-01  0.83651493316E-01  0.51100000000E-03 0.  1.
</event>
<event>
 8    1  0.1177602E+005  0.1043930E+01  0.7957747E-01            NaN
         13   -1    0    0    0    0  0.00000000000E+00  0.00000000000E+00  0.74505805969E-08  0.10566000000E+00  0.10566000000E+00 0.  1.
     999900   -1    0    0    0    0 -0.00000000000E+00 -0.00000000000E+00 -0.74505805969E-08  0.93827000000E+00  0.93827000000E+00 0.  1.
     999902    2    1    2    0    0 -0.12528695724E-01 -0.20411217240E-01 -0.41600021987E-02  0.10196217375E+01  0.10193319361E+01 0.  0.
     999903    2    3    3    0    0 -0.10285819913E+00 -0.65748775144E-01 -0.48193071740E-01  0.13274303977E+00  0.19885469132E-01 0.  0.
         14    1    1    2    0    0  0.12528695724E-01  0.20411217240E-01  0.41600021987E-02  0.24308262465E-01  0.00000000000E+00 0. -1.
     999901    1    3    3    0    0  0.90329503402E-01  0.45337557904E-01  0.44033069541E-01  0.88687869777E+00  0.88000000000E+00 0. -1.
        -11    1    4    4    0    0 -0.93712540665E-01 -0.65820351778E-01 -0.44974568638E-01  0.12303386498E+00  0.51100000000E-03 0. -1.
         11    1    4    4    0    0 -0.91456584604E-02  0.71576633121E-04 -0.32185031022E-02  0.97091747903E-02  0.51100000000E-03 0.  1.
</event>
<event>
 8    1  0.1177602E+005  0.1043930E+01  0.7957747E-01            NaN
         13   -1    0    0    0    0  0.00000000000E+00  0.00000000000E+00  0.74505805969E-08  0.10566000000E+00  0.10566000000E+00 0.  1.
     999900   -1    0    0    0    0 -0.00000000000E+00 -0.00000000000E+00 -0.74505805969E-08  0.93827000000E+00  0.93827000000E+00 0. -1.
     999902    2    1    2    0    0  0.36812223490E-03  0.22323164589E-01 -0.17408072359E-02  0.10215360365E+01  0.10212905484E+01 0.  0.
     999903    2    3    3    0    0  0.90320821728E-01  0.84110163761E-01  0.47012449049E-01  0.13345608435E+00  0.19182950760E-01 0.  0.
         14    1    1    2    0    0 -0.36812223490E-03 -0.22323164589E-01  0.17408072359E-02  0.22393963497E-01  0.00000000000E+00 0.  1.
     999901    1    3    3    0    0 -0.89952699493E-01 -0.61786999172E-01 -0.48753256284E-01  0.88807995215E+00  0.88000000000E+00 0. -1.
        -11    1    4    4    0    0  0.47071377523E-01  0.50874330886E-01  0.17720549308E-01  0.71541534187E-01  0.51100000000E-03 0.  1.
         11    1    4    4    0    0  0.43249444204E-01  0.33235832875E-01  0.29291899740E-01  0.61914550166E-01  0.51100000000E-03 0. -1.
</event>
<event>
 8    1  0.1177602E+005  0.1043930E+01  0.7957747E-01            NaN
         13   -1    0    0    0    0  0.00000000000E+00  0.00000000000E+00  0.74505805969E-08  0.10566000000E+00  0.10566000000E+00 0.  1.
     999900   -1    0    0    0    0 -0.00000000000E+00 -0.00000000000E+00 -0.74505805969E-08  0.93827000000E+00  0.93827000000E+00 0.  1.
     999902    2    1    2    0    0  0.13688853258E-01  0.13110132946E-01 -0.15028509666E-01  0.10197408208E+01  0.10194538857E+01 0.  0.
     999903    2    3    3    0    0 -0.28590873982E-01 -0.58221470516E-01  0.10786590397E+00  0.12734023252E+00  0.19321073393E-01 0.  0.
         14    1    1    2    0    0 -0.13688853258E-01 -0.13110132946E-01  0.15028509666E-01  0.24189179237E-01  0.00000000000E+00 0.  1.
     999901    1    3    3    0    0  0.42279727240E-01  0.71331603461E-01 -0.12289441363E+00  0.89240058824E+00  0.88000000000E+00 0.  1.
        -11    1    4    4    0    0 -0.25436792597E-01 -0.45204008544E-01  0.69662586344E-01  0.86853726824E-01  0.51100000000E-03 0. -1.
         11    1    4    4    0    0 -0.31540813845E-02 -0.13017461972E-01  0.38203317621E-01  0.40486505700E-01  0.51100000000E-03 0.  1.
</event>
<event>
 8    1  0.1177602E+005  0.1043930E+01  0.7957747E-01            NaN
         13   -1    0    0    0    0  0.00000000000E+00  0.00000000000E+00  0.74505805969E-08  0.10566000000E+00  0.10566000000E+00 0.  1.
     999900   -1    0    0    0    0 -0.00000000000E+00 -0.00000000000E+00 -0.74505805969E-08  0.93827000000E+00  0.93827000000E+00 0.  1.
     999902    2    1    2    0    0  0.12126271417E-01  0.15372170334E-01  0.48322016980E-02  0.10237631893E+01  0.10235645400E+01 0.  0.
     999903    2    3    3    0    0 -0.97617864065E-02  0.98530433270E-01  0.90170729035E-01  0.13546310039E+00  0.20394912056E-01 0.  0.
         14    1    1    2    0    0 -0.12126271417E-01 -0.15372170334E-01 -0.48322016980E-02  0.20166810668E-01  0.00000000000E+00 0.  1.
     999901    1    3    3    0    0  0.21888057824E-01 -0.83158262936E-01 -0.85338527337E-01  0.88830008894E+00  0.88000000000E+00 0.  1.
        -11    1    4    4    0    0 -0.64478421112E-02  0.36602704306E-01  0.46891635164E-01  0.59836604179E-01  0.51100000000E-03 0. -1.
         11    1    4    4    0    0 -0.33139442953E-02  0.61927728964E-01  0.43279093871E-01  0.75626496209E-01  0.51100000000E-03 0.  1.
</event>
<event>
 8    1  0.1177602E+005  0.1043930E+01  0.7957747E-01            NaN
         13   -1    0    0    0    0  0.00000000000E+00  0.00000000000E+00  0.74505805969E-08  0.10566000000E+00  0.10566000000E+00 0.  1.
     999900   -1    0    0    0    0 -0.00000000000E+00 -0.00000000000E+00 -0.74505805969E-08  0.93827000000E+00  0.93827000000E+00 0. -1.
     999902    2    1    2    0    0  0.72941652923E-02 -0.18061314854E-01 -0.15528369542E-01  0.10190192352E+01  0.10187147076E+01 0.  0.
     999903    2    3    3    0    0  0.51296487298E-01 -0.11894376129E+00 -0.15440733873E-01  0.13216328298E+00  0.21207761426E-01 0.  0.
         14    1    1    2    0    0 -0.72941652923E-02  0.18061314854E-01  0.15528369542E-01  0.24910764785E-01  0.00000000000E+00 0.  1.
     999901    1    3    3    0    0 -0.44002322006E-01  0.10088244644E+00 -0.87635669596E-04  0.88685595224E+00  0.88000000000E+00 0.  1.
        -11    1    4    4    0    0  0.83766642207E-02 -0.10813864422E-01 -0.73694329770E-02  0.15545990821E-01  0.51100000000E-03 0. -1.
         11    1    4    4    0    0  0.42919823077E-01 -0.10812989687E+00 -0.80713008956E-02  0.11661729215E+00  0.51100000000E-03 0.  1.
</event>
<event>
 8    1  0.1197065E+005  0.1043930E+01  0.7957747E-01            NaN
         13   -1    0    0    0    0  0.00000000000E+00  0.00000000000E+00  0.74505805969E-08  0.10566000000E+00  0.10566000000E+00 0. -1.
     999900   -1    0    0    0    0 -0.00000000000E+00 -0.00000000000E+00 -0.74505805969E-08  0.93827000000E+00  0.93827000000E+00 0.  1.
     999902    2    1    2    0    0 -0.37448646615E-03 -0.24626376336E-01 -0.10763853494E-01  0.10170513990E+01  0.10166961635E+01 0.  0.
     999903    2    3    3    0    0 -0.84060829542E-01  0.49285748492E-01 -0.79973840578E-01  0.12730063132E+00  0.17729283398E-01 0.  0.
         14    1    1    2    0    0  0.37448646615E-03  0.24626376336E-01  0.10763853494E-01  0.26878601035E-01  0.00000000000E+00 0. -1.
     999901    1    3    3    0    0  0.83686343076E-01 -0.73912124828E-01  0.69209987084E-01  0.88975076765E+00  0.88000000000E+00 0. -1.
        -11    1    4    4    0    0 -0.30413985912E-01  0.13317090199E-01 -0.17925680227E-01  0.37735216483E-01  0.51100000000E-03 0.  1.
         11    1    4    4    0    0 -0.53646843630E-01  0.35968658293E-01 -0.62048160351E-01  0.89565414836E-01  0.51100000000E-03 0. -1.
</event>
<event>
 8    1  0.1177602E+005  0.1043930E+01  0.7957747E-01            NaN
         13   -1    0    0    0    0  0.00000000000E+00  0.00000000000E+00  0.74505805969E-08  0.10566000000E+00  0.10566000000E+00 0. -1.
     999900   -1    0    0    0    0 -0.00000000000E+00 -0.00000000000E+00 -0.74505805969E-08  0.93827000000E+00  0.93827000000E+00 0.  1.
     999902    2    1    2    0    0  0.83452170639E-02 -0.21121703757E-01  0.60135561387E-02  0.10204367696E+01  0.10201662947E+01 0.  0.
     999903    2    3    3    0    0  0.11019395130E+00  0.59200695574E-01  0.31430348531E-01  0.13056550596E+00  0.20299144783E-01 0.  0.
         14    1    1    2    0    0 -0.83452170639E-02  0.21121703757E-01 -0.60135561387E-02  0.23493230406E-01  0.00000000000E+00 0.  1.
     999901    1    3    3    0    0 -0.10184873424E+00 -0.80322399332E-01 -0.25416792392E-01  0.88987126363E+00  0.88000000000E+00 0. -1.
        -11    1    4    4    0    0  0.51054659061E-01  0.27314925021E-01  0.24993764588E-01  0.63068476516E-01  0.51100000000E-03 0.  1.
         11    1    4    4    0    0  0.59139292240E-01  0.31885770553E-01  0.64365839433E-02  0.67497029448E-01  0.51100000000E-03 0. -1.
</event>
<event>
 8    1  0.1177602E+005  0.1043930E+01  0.7957747E-01            NaN
         13   -1    0    0    0    0  0.00000000000E+00  0.00000000000E+00  0.74505805969E-08  0.10566000000E+00  0.10566000000E+00 0.  1.
     999900   -1    0    0    0    0 -0.00000000000E+00 -0.00000000000E+00 -0.74505805969E-08  0.93827000000E+00  0.93827000000E+00 0.  1.
     999902    2    1    2    0    0 -0.57774659045E-03 -0.19597227446E-01 -0.15920727172E-01  0.10186742152E+01  0.10183610862E+01 0.  0.
     999903    2    3    3    0    0  0.22392716836E-01 -0.11733165398E+00  0.48467225200E-01  0.13062834430E+00  0.21131531505E-01 0.  0.
         14    1    1    2    0    0  0.57774659045E-03  0.19597227446E-01  0.15920727172E-01  0.25255784849E-01  0.00000000000E+00 0.  1.
     999901    1    3    3    0    0 -0.22970463426E-01  0.97734426534E-01 -0.64387952372E-01  0.88804587085E+00  0.88000000000E+00 0.  1.
        -11    1    4    4    0    0  0.80149919228E-02 -0.23788126884E-01  0.19057341096E-01  0.31520762155E-01  0.51100000000E-03 0. -1.
         11    1    4    4    0    0  0.14377724913E-01 -0.93543527096E-01  0.29409884105E-01  0.99107582148E-01  0.51100000000E-03 0.  1.
</event>
<event>
 8    1  0.1177602E+005  0.1043930E+01  0.7957747E-01            NaN
         13   -1    0    0    0    0  0.00000000000E+00  0.00000000000E+00  0.74505805969E-08  0.10566000000E+00  0.10566000000E+00 0. -1.
     999900   -1    0    0    0    0 -0.00000000000E+00 -0.00000000000E+00 -0.74505805969E-08  0.93827000000E+00  0.93827000000E+00 0.  1.
     999902    2    1    2    0    0  0.65786215844E-02 -0.19644082482E-01  0.12034872029E-01  0.10199715697E+01  0.10196901473E+01 0.  0.
     999903    2    3    3    0    0 -0.89848697306E-01 -0.62689392298E-01 -0.67262478410E-01  0.13011810067E+00  0.20093053675E-01 0.  0.
         14    1    1    2    0    0 -0.65786215844E-02  0.19644082482E-01 -0.12034872029E-01  0.23958430318E-01  0.00000000000E+00 0.  1.
     999901    1    3    3    0    0  0.96427318891E-01  0.43045309816E-01  0.79297350439E-01  0.88985346901E+00  0.88000000000E+00 0. -1.
        -11    1    4    4    0    0 -0.24856109916E-01 -0.71211267810E-02 -0.16437782232E-01  0.30643081642E-01  0.51100000000E-03 0.  1.
         11    1    4    4    0    0 -0.64992587390E-01 -0.55568265517E-01 -0.50824696178E-01  0.99475019029E-01  0.51100000000E-03 0. -1.
</event>
<event>
 8    1  0.1177602E+005  0.1043930E+01  0.7957747E-01            NaN
         13   -1    0    0    0    0  0.00000000000E+00  0.00000000000E+00  0.74505805969E-08  0.10566000000E+00  0.10566000000E+00 0.  1.
     999900   -1    0    0    0    0 -0.00000000000E+00 -0.00000000000E+00 -0.74505805969E-08  0.93827000000E+00  0.93827000000E+00 0. -1.
     999902    2    1    2    0    0 -0.50593273549E-03 -0.12386385022E-01 -0.23561107657E-01  0.10173066213E+01  0.10169581886E+01 0.  0.
     999903    2    3    3    0    0 -0.20823957440E-01  0.10188452063E+00  0.66576786470E-01  0.12512082112E+00  0.20215306883E-01 0.  0.
         14    1    1    2    0    0  0.50593273549E-03  0.12386385022E-01  0.23561107657E-01  0.26623378746E-01  0.00000000000E+00 0.  1.
     999901    1    3    3    0    0  0.20318024705E-01 -0.11427090566E+00 -0.90137894127E-01  0.89218580014E+00  0.88000000000E+00 0. -1.
        -11    1    4    4    0    0 -0.59692615550E-02  0.32427100777E-01  0.32647270448E-01  0.46403171626E-01  0.51100000000E-03 0. -1.
         11    1    4    4    0    0 -0.14854695885E-01  0.69457419856E-01  0.33929516022E-01  0.78717649491E-01  0.51100000000E-03 0.  1.
</event>
<event>
 8    1  0.1177602E+005  0.1043930E+01  0.7957747E-01            NaN
         13   -1    0    0    0    0  0.00000000000E+00  0.00000000000E+00  0.74505805969E-08  0.10566000000E+00  0.10566000000E+00 0. -1.
     999900   -1    0    0    0    0 -0.00000000000E+00 -0.00000000000E+00 -0.74505805969E-08  0.93827000000E+00  0.93827000000E+00 0. -1.
     999902    2    1    2    0    0  0.15734252028E-01  0.70953253033E-02  0.15833976710E-01  0.10205072515E+01  0.10202384159E+01 0.  0.
     999903    2    3    3    0    0  0.90386271463E-01  0.20973895625E-01 -0.90284427812E-01  0.13088561593E+00  0.19240171163E-01 0.  0.
         14    1    1    2    0    0 -0.15734252028E-01 -0.70953253033E-02 -0.15833976710E-01  0.23422748483E-01  0.00000000000E+00 0.  1.
     999901    1    3    3    0    0 -0.74652019435E-01 -0.13878570322E-01  0.10611840452E+00  0.88962163558E+00  0.88000000000E+00 0.  1.
        -11    1    4    4    0    0  0.66447304606E-01  0.65956053603E-02 -0.61583164830E-01  0.90837732309E-01  0.51100000000E-03 0. -1.
         11    1    4    4    0    0  0.23938966857E-01  0.14378290265E-01 -0.28701262982E-01  0.40047883625E-01  0.51100000000E-03 0.  1.
</event>
<event>
 8    1  0.1177602E+005  0.1043930E+01  0.7957747E-01            NaN
         13   -1    0    0    0    0  0.00000000000E+00  0.00000000000E+00  0.74505805969E-08  0.10566000000E+00  0.10566000000E+00 0. -1.
     999900   -1    0    0    0    0 -0.00000000000E+00 -0.00000000000E+00 -0.74505805969E-08  0.93827000000E+00  0.93827000000E+00 0. -1.
     999902    2    1    2    0    0 -0.13682995297E-01  0.17733484908E-01  0.65602128782E-02  0.10205903933E+01  0.10203234848E+01 0.  0.
     999903    2    3    3    0    0 -0.37453585556E-01  0.41931204343E-01  0.11878322645E+00  0.13281532306E+00  0.19221295079E-01 0.  0.
         14    1    1    2    0    0  0.13682995297E-01 -0.17733484908E-01 -0.65602128782E-02  0.23339606686E-01  0.00000000000E+00 0. -1.
     999901    1    3    3    0    0  0.23770590260E-01 -0.24197719435E-01 -0.11222301357E+00  0.88777507025E+00  0.88000000000E+00 0. -1.
        -11    1    4    4    0    0 -0.92981890852E-02  0.93920899865E-03  0.24350814721E-01  0.26087578124E-01  0.51100000000E-03 0. -1.
         11    1    4    4    0    0 -0.28155396471E-01  0.40991995344E-01  0.94432411732E-01  0.10672774494E+00  0.51100000000E-03 0.  1.
</event>
<event>
 8    1  0.1177602E+005  0.1043930E+01  0.7957747E-01            NaN
         13   -1    0    0    0    0  0.00000000000E+00  0.00000000000E+00  0.74505805969E-08  0.10566000000E+00  0.10566000000E+00 0.  1.
     999900   -1    0    0    0    0 -0.00000000000E+00 -0.00000000000E+00 -0.74505805969E-08  0.93827000000E+00  0.93827000000E+00 0.  1.
     999902    2    1    2    0    0 -0.74472327445E-02  0.51381383505E-02 -0.16353776580E-01  0.10252402234E+01  0.10250698551E+01 0.  0.
     999903    2    3    3    0    0 -0.25391559299E-01 -0.12142602218E+00  0.46026861484E-01  0.13381898201E+00  0.20000945508E-01 0.  0.
         14    1    1    2    0    0  0.74472327445E-02 -0.51381383505E-02  0.16353776580E-01  0.18689776609E-01  0.00000000000E+00 0.  1.
     999901    1    3    3    0    0  0.17944326555E-01  0.12656416053E+00 -0.62380638063E-01  0.89142124138E+00  0.88000000000E+00 0. -1.
        -11    1    4    4    0    0 -0.20337454463E-01 -0.66077558808E-01  0.33577624130E-01  0.76860742875E-01  0.51100000000E-03 0.  1.
         11    1    4    4    0    0 -0.50541048367E-02 -0.55348463372E-01  0.12449237354E-01  0.56958239132E-01  0.51100000000E-03 0. -1.
</event>
<event>
 8    1  0.1177602E+005  0.1043930E+01  0.7957747E-01            NaN
         13   -1    0    0    0    0  0.00000000000E+00  0.00000000000E+00  0.74505805969E-08  0.10566000000E+00  0.10566000000E+00 0. -1.
     999900   -1    0    0    0    0 -0.00000000000E+00 -0.00000000000E+00 -0.74505805969E-08  0.93827000000E+00  0.93827000000E+00 0.  1.
     999902    2    1    2    0    0  0.15904608552E-01  0.54772257760E-02  0.17747348378E-01  0.10194774960E+01  0.10191842032E+01 0.  0.
     999903    2    3    3    0    0  0.18002644837E-01  0.59708734775E-01 -0.11067031294E+00  0.12850243799E+00  0.19383760601E-01 0.  0.
         14    1    1    2    0    0 -0.15904608552E-01 -0.54772257760E-02 -0.17747348378E-01  0.24452503959E-01  0.00000000000E+00 0.  1.
     999901    1    3    3    0    0 -0.20980362853E-02 -0.54231508999E-01  0.12841766132E+00  0.89097505805E+00  0.88000000000E+00 0. -1.
        -11    1    4    4    0    0  0.58783707478E-02  0.18891580246E-02 -0.11723728248E-01  0.13260131437E-01  0.51100000000E-03 0.  1.
         11    1    4    4    0    0  0.12124274089E-01  0.57819576750E-01 -0.98946584690E-01  0.11524230656E+00  0.51100000000E-03 0. -1.
</event>
<event>
 8    1  0.1177602E+005  0.1043930E+01  0.7957747E-01            NaN
         13   -1    0    0    0    0  0.00000000000E+00  0.00000000000E+00  0.74505805969E-08  0.10566000000E+00  0.10566000000E+00 0. -1.
     999900   -1    0    0    0    0 -0.00000000000E+00 -0.00000000000E+00 -0.74505805969E-08  0.93827000000E+00  0.93827000000E+00 0. -1.
     999902    2    1    2    0    0 -0.59708278124E-02 -0.18146759624E-01 -0.99129947091E-02  0.10224073809E+01  0.10221808203E+01 0.  0.
     999903    2    3    3    0    0  0.98784685152E-01  0.77218973045E-01 -0.31295146254E-01  0.13082141370E+00  0.20338935216E-01 0.  0.
         14    1    1    2    0    0  0.59708278124E-02  0.18146759624E-01  0.99129947091E-02  0.21522619119E-01  0.00000000000E+00 0. -1.
     999901    1    3    3    0    0 -0.10475551296E+00 -0.95365732669E-01  0.21382151545E-01  0.89158596718E+00  0.88000000000E+00 0. -1.
        -11    1    4    4    0    0  0.44474959934E-01  0.33627459208E-01 -0.24315610508E-01  0.60830404481E-01  0.51100000000E-03 0. -1.
         11    1    4    4    0    0  0.54309725218E-01  0.43591513836E-01 -0.69795357459E-02  0.69991009222E-01  0.51100000000E-03 0.  1.
</event>
<event>
 8    1  0.1177602E+005  0.1043930E+01  0.7957747E-01            NaN
         13   -1    0    0    0    0  0.00000000000E+00  0.00000000000E+00  0.74505805969E-08  0.10566000000E+00  0.10566000000E+00 0.  1.
     999900   -1    0    0    0    0 -0.00000000000E+00 -0.00000000000E+00 -0.74505805969E-08  0.93827000000E+00  0.93827000000E+00 0.  1.
     999902    2    1    2    0    0 -0.18049015265E-02  0.23423348489E-01  0.56599960178E-02  0.10197650154E+01  0.10194786610E+01 0.  0.
     999903    2    3    3    0    0 -0.86635957919E-01 -0.92293929931E-01  0.76364961279E-03  0.12813125045E+00  0.19826131120E-01 0.  0.
         14    1    1    2    0    0  0.18049015265E-02 -0.23423348489E-01 -0.56599960178E-02  0.24164984562E-01  0.00000000000E+00 0. -1.
     999901    1    3    3    0    0  0.84831056393E-01  0.11571727842E+00  0.48963464050E-02  0.89163376499E+00  0.88000000000E+00 0.  1.
        -11    1    4    4    0    0 -0.53905630249E-01 -0.70698035768E-01 -0.69456037450E-04  0.88906103160E-01  0.51100000000E-03 0. -1.
         11    1    4    4    0    0 -0.32730327670E-01 -0.21595894163E-01  0.83310565024E-03  0.39225147292E-01  0.51100000000E-03 0.  1.
</event>
<event>
 8    1  0.1177602E+005  0.1043930E+01  0.7957747E-01            NaN
         13   -1    0    0    0    0  0.00000000000E+00  0.00000000000E+00  0.74505805969E-08  0.10566000000E+00  0.10566000000E+00 0.  1.
     999900   -1    0    0    0    0 -0.00000000000E+00 -0.00000000000E+00 -0.74505805969E-08  0.93827000000E+00  0.93827000000E+00 0. -1.
     999902    2    1    2    0    0 -0.27416706541E-03  0.23857097074E-01  0.30516818026E-02  0.10198769542E+01  0.10195932781E+01 0.  0.
     999903    2    3    3    0    0  0.11939321390E-01  0.62753980344E-01 -0.11292694411E+00  0.13133141320E+00  0.20367521777E-01 0.  0.
         14    1    1    2    0    0  0.27416706541E-03 -0.23857097074E-01 -0.30516818026E-02  0.24053045758E-01  0.00000000000E+00 0. -1.
     999901    1    3    3    0    0 -0.12213488456E-01 -0.38896883270E-01  0.11597862592E+00  0.88854554104E+00  0.88000000000E+00 0.  1.
        -11    1    4    4    0    0  0.15906613730E-01  0.33416523874E-01 -0.70007694917E-01  0.79189790357E-01  0.51100000000E-03 0. -1.
         11    1    4    4    0    0 -0.39672923399E-02  0.29337456470E-01 -0.42919249196E-01  0.52141622848E-01  0.51100000000E-03 0.  1.
</event>
<event>
 8    1  0.1177602E+005  0.1043930E+01  0.7957747E-01            NaN
         13   -1    0    0    0    0  0.00000000000E+00  0.00000000000E+00  0.74505805969E-08  0.10566000000E+00  0.10566000000E+00 0.  1.
     999900   -1    0    0    0    0 -0.00000000000E+00 -0.00000000000E+00 -0.74505805969E-08  0.93827000000E+00  0.93827000000E+00 0. -1.
     999902    2    1    2    0    0  0.17470569769E-01 -0.35017310802E-02  0.35758059882E-02  0.10257566867E+01  0.10255956859E+01 0.  0.
     999903    2    3    3    0    0  0.96833404384E-01  0.91904746721E-01 -0.21341645765E-01  0.13670003217E+00  0.20205006231E-01 0.  0.
         14    1    1    2    0    0 -0.17470569769E-01  0.35017310802E-02 -0.35758059882E-02  0.18173313322E-01  0.00000000000E+00 0.  1.
     999901    1    3    3    0    0 -0.79362834614E-01 -0.95406477801E-01  0.24917451753E-01  0.88905665451E+00  0.88000000000E+00 0.  1.
        -11    1    4    4    0    0  0.51299000786E-01  0.46936702686E-01 -0.97856858930E-03  0.69540349856E-01  0.51100000000E-03 0.  1.
         11    1    4    4    0    0  0.45534403598E-01  0.44968044035E-01 -0.20363077176E-01  0.67159682313E-01  0.51100000000E-03 0. -1.
</event>
<event>
 8    1  0.1177602E+005  0.1043930E+01  0.7957747E-01            NaN
         13   -1    0    0    0    0  0.00000000000E+00  0.00000000000E+00  0.74505805969E-08  0.10566000000E+00  0.10566000000E+00 0.  1.
     999900   -1    0    0    0    0 -0.00000000000E+00 -0.00000000000E+00 -0.74505805969E-08  0.93827000000E+00  0.93827000000E+00 0.  1.
     999902    2    1    2    0    0 -0.17130098458E-01  0.11248033708E-02 -0.16218314553E-01  0.10203134977E+01  0.10200401435E+01 0.  0.
     999903    2    3    3    0    0  0.66152286325E-01 -0.10927688724E+00  0.26440386073E-02  0.12931390323E+00  0.19938193484E-01 0.  0.
         14    1    1    2    0    0  0.17130098458E-01 -0.11248033708E-02  0.16218314553E-01  0.23616502339E-01  0.00000000000E+00 0.  1.
     999901    1    3    3    0    0 -0.83282384782E-01  0.11040169061E+00 -0.18862353161E-01  0.89099959443E+00  0.88000000000E+00 0.  1.
        -11    1    4    4    0    0  0.47641899609E-01 -0.93323961377E-01  0.37215331199E-02  0.10484857317E+00  0.51100000000E-03 0.  1.
         11    1    4    4    0    0  0.18510386715E-01 -0.15952925858E-01 -0.10774945126E-02  0.24465330065E-01  0.51100000000E-03 0. -1.
</event>
<event>
 8    1  0.1177602E+005  0.1043930E+01  0.7957747E-01            NaN
         13   -1    0    0    0    0  0.00000000000E+00  0.00000000000E+00  0.74505805969E-08  0.10566000000E+00  0.10566000000E+00 0.  1.
     999900   -1    0    0    0    0 -0.00000000000E+00 -0.00000000000E+00 -0.74505805969E-08  0.93827000000E+00  0.93827000000E+00 0. -1.
     999902    2    1    2    0    0 -0.22569553427E-01  0.32394077114E-02  0.66246814463E-02  0.10201862659E+01  0.10199099236E+01 0.  0.
     999903    2    3    3    0    0 -0.10100550609E-01  0.69264895608E-01 -0.10800924205E+00  0.13021111036E+00  0.19730433516E-01 0.  0.
         14    1    1    2    0    0  0.22569553427E-01 -0.32394077114E-02 -0.66246814463E-02  0.23743734088E-01  0.00000000000E+00 0. -1.
     999901    1    3    3    0    0 -0.12469002818E-01 -0.66025487897E-01  0.11463392350E+00  0.88997515555E+00  0.88000000000E+00 0.  1.
        -11    1    4    4    0    0  0.20034222198E-02  0.33479101397E-01 -0.63615987987E-01  0.71917445585E-01  0.51100000000E-03 0. -1.
         11    1    4    4    0    0 -0.12103972829E-01  0.35785794211E-01 -0.44393254063E-01  0.58293664775E-01  0.51100000000E-03 0.  1.
</event>
<event>
 8    1  0.1177602E+005  0.1043930E+01  0.7957747E-01            NaN
         13   -1    0    0    0    0  0.00000000000E+00  0.00000000000E+00  0.74505805969E-08  0.10566000000E+00  0.10566000000E+00 0. -1.
     999900   -1    0    0    0    0 -0.00000000000E+00 -0.00000000000E+00 -0.74505805969E-08  0.93827000000E+00  0.93827000000E+00 0. -1.
     999902    2    1    2    0    0 -0.20687523856E-01 -0.59829555496E-02  0.85885471772E-02  0.10207452519E+01  0.10204819140E+01 0.  0.
     999903    2    3    3    0    0 -0.16019987447E-01 -0.12911683651E+00 -0.96572518042E-02  0.13197270076E+00  0.19893058251E-01 0.  0.
         14    1    1    2    0    0  0.20687523856E-01  0.59829555496E-02 -0.85885471772E-02  0.23184748069E-01  0.00000000000E+00 0.  1.
     999901    1    3    3    0    0 -0.46675364090E-02  0.12313388096E+00  0.18245798981E-01  0.88877255117E+00  0.88000000000E+00 0.  1.
        -11    1    4    4    0    0 -0.58484260058E-02 -0.47202317446E-01 -0.13160990967E-01  0.49353172778E-01  0.51100000000E-03 0.  1.
         11    1    4    4    0    0 -0.10171561441E-01 -0.81914519059E-01  0.35037391629E-02  0.82619527982E-01  0.51100000000E-03 0. -1.
</event>
<event>
 8    1  0.1177602E+005  0.1043930E+01  0.7957747E-01            NaN
         13   -1    0    0    0    0  0.00000000000E+00  0.00000000000E+00  0.74505805969E-08  0.10566000000E+00  0.10566000000E+00 0. -1.
     999900   -1    0    0    0    0 -0.00000000000E+00 -0.00000000000E+00 -0.74505805969E-08  0.93827000000E+00  0.93827000000E+00 0.  1.
     999902    2    1    2    0    0  0.16366184339E-03 -0.61576126538E-02 -0.23553128545E-01  0.10195847162E+01  0.10192940207E+01 0.  0.
     999903    2    3    3    0    0 -0.55242504430E-01  0.31539391962E-01 -0.11431505845E+00  0.13238201370E+00  0.20263203612E-01 0.  0.
         14    1    1    2    0    0 -0.16366184339E-03  0.61576126538E-02  0.23553128545E-01  0.24345283795E-01  0.00000000000E+00 0. -1.
     999901    1    3    3    0    0  0.55406166273E-01 -0.37697004616E-01  0.90761929906E-01  0.88720270251E+00  0.88000000000E+00 0. -1.
        -11    1    4    4    0    0 -0.30220664394E-01  0.23821660266E-01 -0.51213318195E-01  0.64061104704E-01  0.51100000000E-03 0. -1.
         11    1    4    4    0    0 -0.25021840035E-01  0.77177316957E-02 -0.63101740256E-01  0.68320908993E-01  0.51100000000E-03 0.  1.
</event>
<event>
 8    1  0.1177602E+005  0.1043930E+01  0.7957747E-01            NaN
         13   -1    0    0    0    0  0.00000000000E+00  0.00000000000E+00  0.74505805969E-08  0.10566000000E+00  0.10566000000E+00 0.  1.
     999900   -1    0    0    0    0 -0.00000000000E+00 -0.00000000000E+00 -0.74505805969E-08  0.93827000000E+00  0.93827000000E+00 0.  1.
     999902    2    1    2    0    0 -0.14028845949E-01  0.74279056212E-02  0.19968225872E-01  0.10184209360E+01  0.10181014147E+01 0.  0.
     999903    2    3    3    0    0  0.63736962288E-02 -0.40099682748E-01 -0.11722083544E+00  0.12629091527E+00  0.23665638777E-01 0.  0.
         14    1    1    2    0    0  0.14028845949E-01 -0.74279056212E-02 -0.19968225872E-01  0.25509063978E-01  0.00000000000E+00 0. -1.
     999901    1    3    3    0    0 -0.20402542177E-01  0.47527588369E-01  0.13718906131E+00  0.89213002075E+00  0.88000000000E+00 0. -1.
        -11    1    4    4    0    0 -0.82480767987E-02 -0.17205694671E-01 -0.59680450900E-01  0.62658471420E-01  0.51100000000E-03 0. -1.
         11    1    4    4    0    0  0.14621773028E-01 -0.22893988078E-01 -0.57540384538E-01  0.63632443850E-01  0.51100000000E-03 0.  1.
</event>
<event>
 8    1  0.1177602E+005  0.1043930E+01  0.7957747E-01            NaN
         13   -1    0    0    0    0  0.00000000000E+00  0.00000000000E+00  0.74505805969E-08  0.10566000000E+00  0.10566000000E+00 0.  1.
     999900   -1    0    0    0    0 -0.00000000000E+00 -0.00000000000E+00 -0.74505805969E-08  0.93827000000E+00  0.93827000000E+00 0. -1.
     999902    2    1    2    0    0  0.45589784596E-02  0.80127789828E-02  0.21666530129E-01  0.10203837171E+01  0.10201120049E+01 0.  0.
     999903    2    3    3    0    0 -0.66902196934E-01  0.43383198499E-02  0.11314541717E+00  0.13275283207E+00  0.18074955714E-01 0.  0.
         14    1    1    2    0    0 -0.45589784596E-02 -0.80127789828E-02 -0.21666530129E-01  0.23546282922E-01  0.00000000000E+00 0. -1.
     999901    1    3    3    0    0  0.71461175394E-01  0.36744591330E-02 -0.91478887039E-01  0.88763088500E+00  0.88000000000E+00 0. -1.
        -11    1    4    4    0    0 -0.23026505993E-01 -0.66818453176E-02  0.44254123075E-01  0.50334437170E-01  0.51100000000E-03 0. -1.
         11    1    4    4    0    0 -0.43875690942E-01  0.11020165167E-01  0.68891294093E-01  0.82418394905E-01  0.51100000000E-03 0.  1.
</event>
<event>
 8    1  0.1177602E+005  0.1043930E+01  0.7957747E-01            NaN
         13   -1    0    0    0    0  0.00000000000E+00  0.00000000000E+00  0.74505805969E-08  0.10566000000E+00  0.10566000000E+00 0.  1.
     999900   -1    0    0    0    0 -0.00000000000E+00 -0.00000000000E+00 -0.74505805969E-08  0.93827000000E+00  0.93827000000E+00 0.  1.
     999902    2    1    2    0    0 -0.19775940658E-01  0.10440279588E-01  0.87300311574E-02  0.10199237360E+01  0.10196411754E+01 0.  0.
     999903    2    3    3    0    0 -0.30102039543E-01  0.32612170687E-01  0.12279789911E+00  0.13222463182E+00  0.20840891864E-01 0.  0.
         14    1    1    2    0    0  0.19775940658E-01 -0.10440279588E-01 -0.87300311574E-02  0.24006263991E-01  0.00000000000E+00 0. -1.
     999901    1    3    3    0    0  0.10326098885E-01 -0.22171891099E-01 -0.11406786795E+00  0.88769910419E+00  0.88000000000E+00 0.  1.
        -11    1    4    4    0    0 -0.20750887111E-01  0.33723446194E-01  0.98952389068E-01  0.10658192418E+00  0.51100000000E-03 0. -1.
         11    1    4    4    0    0 -0.93511524319E-02 -0.11112755072E-02  0.23845510041E-01  0.25642707641E-01  0.51100000000E-03 0.  1.
</event>
<event>
 8    1  0.1177602E+005  0.1043930E+01  0.7957747E-01            NaN
         13   -1    0    0    0    0  0.00000000000E+00  0.00000000000E+00  0.74505805969E-08  0.10566000000E+00  0.10566000000E+00 0. -1.
     999900   -1    0    0    0    0 -0.00000000000E+00 -0.00000000000E+00 -0.74505805969E-08  0.93827000000E+00  0.93827000000E+00 0.  1.
     999902    2    1    2    0    0 -0.93292691275E-02  0.19463730386E-01 -0.64412821954E-02  0.10214052985E+01  0.10211569035E+01 0.  0.
     999903    2    3    3    0    0 -0.45971293223E-01 -0.27335679534E-01 -0.11915705302E+00  0.13222721299E+00  0.20616338062E-01 0.  0.
         14    1    1    2    0    0  0.93292691275E-02 -0.19463730386E-01  0.64412821954E-02  0.22524701537E-01  0.00000000000E+00 0. -1.
     999901    1    3    3    0    0  0.36642024095E-01  0.46799409920E-01  0.11271577082E+00  0.88917808548E+00  0.88000000000E+00 0. -1.
        -11    1    4    4    0    0 -0.32148966973E-01 -0.24878545733E-01 -0.68473807304E-01  0.79633042909E-01  0.51100000000E-03 0.  1.
         11    1    4    4    0    0 -0.13822326249E-01 -0.24571338011E-02 -0.50683245711E-01  0.52594170079E-01  0.51100000000E-03 0. -1.
</event>
<event>
 8    1  0.1177602E+005  0.1043930E+01  0.7957747E-01            NaN
         13   -1    0    0    0    0  0.00000000000E+00  0.00000000000E+00  0.74505805969E-08  0.10566000000E+00  0.10566000000E+00 0.  1.
     999900   -1    0    0    0    0 -0.00000000000E+00 -0.00000000000E+00 -0.74505805969E-08  0.93827000000E+00  0.93827000000E+00 0. -1.
     999902    2    1    2    0    0 -0.24165859390E-01 -0.48582853595E-02 -0.10122733250E-02  0.10192598481E+01  0.10189612464E+01 0.  0.
     999903    2    3    3    0    0  0.34633520044E-01 -0.47508043945E-01 -0.11335340167E+00  0.12914923811E+00  0.19340038333E-01 0.  0.
         14    1    1    2    0    0  0.24165859390E-01  0.48582853595E-02  0.10122733250E-02  0.24670151884E-01  0.00000000000E+00 0.  1.
     999901    1    3    3    0    0 -0.58799379434E-01  0.42649758585E-01  0.11234112835E+00  0.89011061001E+00  0.88000000000E+00 0.  1.
        -11    1    4    4    0    0  0.23375663810E-01 -0.20288122093E-01 -0.72020912915E-01  0.78391980296E-01  0.51100000000E-03 0.  1.
         11    1    4    4    0    0  0.11257856233E-01 -0.27219921851E-01 -0.41332488760E-01  0.50757257813E-01  0.51100000000E-03 0. -1.
</event>
<event>
 8    1  0.1177602E+005  0.1043930E+01  0.7957747E-01            NaN
         13   -1    0    0    0    0  0.00000000000E+00  0.00000000000E+00  0.74505805969E-08  0.10566000000E+00  0.10566000000E+00 0. -1.
     999900   -1    0    0    0    0 -0.00000000000E+00 -0.00000000000E+00 -0.74505805969E-08  0.93827000000E+00  0.93827000000E+00 0. -1.
     999902    2    1    2    0    0  0.18733613944E-01 -0.61933641622E-04 -0.14762718458E-01  0.10200785853E+01  0.10197997010E+01 0.  0.
     999903    2    3    3    0    0  0.84577139719E-01 -0.31394464387E-01 -0.96065670787E-01  0.13332762396E+00  0.20217251300E-01 0.  0.
         14    1    1    2    0    0 -0.18733613944E-01  0.61933641622E-04  0.14762718458E-01  0.23851414705E-01  0.00000000000E+00 0. -1.
     999901    1    3    3    0    0 -0.65843525775E-01  0.31332530745E-01  0.81302952329E-01  0.88675096133E+00  0.88000000000E+00 0.  1.
        -11    1    4    4    0    0  0.48378576806E-01 -0.25380232300E-01 -0.47085882317E-01  0.72124782980E-01  0.51100000000E-03 0.  1.
         11    1    4    4    0    0  0.36198562913E-01 -0.60142320872E-02 -0.48979788469E-01  0.61202840980E-01  0.51100000000E-03 0. -1.
</event>
<event>
 8    1  0.1177602E+005  0.1043930E+01  0.7957747E-01            NaN
         13   -1    0    0    0    0  0.00000000000E+00  0.00000000000E+00  0.74505805969E-08  0.10566000000E+00  0.10566000000E+00 0. -1.
     999900   -1    0    0    0    0 -0.00000000000E+00 -0.00000000000E+00 -0.74505805969E-08  0.93827000000E+00  0.93827000000E+00 0.  1.
     999902    2    1    2    0    0  0.71360023249E-02  0.21514490915E-01 -0.72021222196E-02  0.10201462574E+01  0.10198689720E+01 0.  0.
     999903    2    3    3    0    0 -0.94374125704E-01 -0.33665406346E-01 -0.79783345188E-01  0.12963114741E+00  0.19975410468E-01 0.  0.
         14    1    1    2    0    0 -0.71360023249E-02 -0.21514490915E-01  0.72021222196E-02  0.23783742619E-01  0.00000000000E+00 0. -1.
     999901    1    3    3    0    0  0.10151012803E+00  0.55179897260E-01  0.72581222968E-01  0.89051510997E+00  0.88000000000E+00 0.  1.
        -11    1    4    4    0    0 -0.53400787402E-01 -0.26706048630E-01 -0.55355978719E-01  0.81421143627E-01  0.51100000000E-03 0. -1.
         11    1    4    4    0    0 -0.40973338302E-01 -0.69593577153E-02 -0.24427366469E-01  0.48210003785E-01  0.51100000000E-03 0.  1.
</event>
<event>
 8    1  0.1177602E+005  0.1043930E+01  0.7957747E-01            NaN
         13   -1    0    0    0    0  0.00000000000E+00  0.00000000000E+00  0.74505805969E-08  0.10566000000E+00  0.10566000000E+00 0.  1.
     999900   -1    0    0    0    0 -0.00000000000E+00 -0.00000000000E+00 -0.74505805969E-08  0.93827000000E+00  0.93827000000E+00 0. -1.
     999902    2    1    2    0    0  0.22308392668E-01  0.96496739643E-03 -0.54260187714E-02  0.10209509394E+01  0.10206923060E+01 0.  0.
     999903    2    3    3    0    0 -0.47922263330E-01 -0.99791393459E-01  0.65138223417E-01  0.12962411857E+00  0.17451602596E-01 0.  0.
         14    1    1    2    0    0 -0.22308392668E-01 -0.96496739643E-03  0.54260187714E-02  0.22979060581E-01  0.00000000000E+00 0.  1.
     999901    1    3    3    0    0  0.70230655998E-01  0.10075636086E+00 -0.70564242188E-01  0.89132682085E+00  0.88000000000E+00 0. -1.
        -11    1    4    4    0    0 -0.29569969386E-01 -0.67140606119E-01  0.52013514965E-01  0.89932813475E-01  0.51100000000E-03 0.  1.
         11    1    4    4    0    0 -0.18352293944E-01 -0.32650787340E-01  0.13124708451E-01  0.39691305092E-01  0.51100000000E-03 0. -1.
</event>
<event>
 8    1  0.1177602E+005  0.1043930E+01  0.7957747E-01            NaN
         13   -1    0    0    0    0  0.00000000000E+00  0.00000000000E+00  0.74505805969E-08  0.10566000000E+00  0.10566000000E+00 0. -1.
     999900   -1    0    0    0    0 -0.00000000000E+00 -0.00000000000E+00 -0.74505805969E-08  0.93827000000E+00  0.93827000000E+00 0.  1.
     999902    2    1    2    0    0 -0.54198419217E-02  0.15412459942E-02  0.22921242145E-01  0.10203263251E+01  0.10200532713E+01 0.  0.
     999903    2    3    3    0    0 -0.61130761246E-01  0.59283916998E-01  0.10054467281E+00  0.13327315899E+00  0.20023758140E-01 0.  0.
         14    1    1    2    0    0  0.54198419217E-02 -0.15412459942E-02 -0.22921242145E-01  0.23603674865E-01  0.00000000000E+00 0.  1.
     999901    1    3    3    0    0  0.55710919324E-01 -0.57742671004E-01 -0.77623430668E-01  0.88705316615E+00  0.88000000000E+00 0.  1.
        -11    1    4    4    0    0 -0.47857655715E-01  0.47525672457E-01  0.65625854267E-01  0.94106634316E-01  0.51100000000E-03 0.  1.
         11    1    4    4    0    0 -0.13273105531E-01  0.11758244541E-01  0.34918818545E-01  0.39166524670E-01  0.51100000000E-03 0. -1.
</event>
<event>
 8    1  0.1177602E+005  0.1043930E+01  0.7957747E-01            NaN
         13   -1    0    0    0    0  0.00000000000E+00  0.00000000000E+00  0.74505805969E-08  0.10566000000E+00  0.10566000000E+00 0.  1.
     999900   -1    0    0    0    0 -0.00000000000E+00 -0.00000000000E+00 -0.74505805969E-08  0.93827000000E+00  0.93827000000E+00 0.  1.
     999902    2    1    2    0    0 -0.10118733108E-01  0.13217969136E-01 -0.16427839590E-01  0.10205424524E+01  0.10202744336E+01 0.  0.
     999903    2    3    3    0    0  0.74069987057E-01  0.99993345953E-01  0.35319120291E-01  0.13076975422E+00  0.19190001116E-01 0.  0.
         14    1    1    2    0    0  0.10118733108E-01 -0.13217969136E-01  0.16427839590E-01  0.23387547571E-01  0.00000000000E+00 0.  1.
     999901    1    3    3    0    0 -0.84188720165E-01 -0.86775376817E-01 -0.51746959881E-01  0.88977269821E+00  0.88000000000E+00 0.  1.
        -11    1    4    4    0    0  0.56819339580E-01  0.87393943450E-01  0.25860391947E-01  0.10740186076E+00  0.51100000000E-03 0.  1.
         11    1    4    4    0    0  0.17250647477E-01  0.12599402502E-01  0.94587283444E-02  0.23367893459E-01  0.51100000000E-03 0. -1.
</event>
<event>
 8    1  0.1177602E+005  0.1043930E+01  0.7957747E-01            NaN
         13   -1    0    0    0    0  0.00000000000E+00  0.00000000000E+00  0.74505805969E-08  0.10566000000E+00  0.10566000000E+00 0. -1.
     999900   -1    0    0    0    0 -0.00000000000E+00 -0.00000000000E+00 -0.74505805969E-08  0.93827000000E+00  0.93827000000E+00 0. -1.
     999902    2    1    2    0    0  0.65930342865E-02  0.17954423891E-01 -0.14244331403E-01  0.10200819306E+01  0.10198031254E+01 0.  0.
     999903    2    3    3    0    0  0.23730258620E-01  0.11854779819E+00 -0.52603876511E-01  0.13335527251E+00  0.19993880408E-01 0.  0.
         14    1    1    2    0    0 -0.65930342865E-02 -0.17954423891E-01  0.14244331403E-01  0.23848069429E-01  0.00000000000E+00 0. -1.
     999901    1    3    3    0    0 -0.17137224334E-01 -0.10059337430E+00  0.38359545108E-01  0.88672665806E+00  0.88000000000E+00 0.  1.
        -11    1    4    4    0    0  0.12162017762E-01  0.45499806984E-01 -0.30692286293E-01  0.56217654438E-01  0.51100000000E-03 0. -1.
         11    1    4    4    0    0  0.11568240858E-01  0.73047991203E-01 -0.21911590218E-01  0.77137618075E-01  0.51100000000E-03 0.  1.
</event>
<event>
 8    1  0.1306930E+005  0.1043930E+01  0.7957747E-01            NaN
         13   -1    0    0    0    0  0.00000000000E+00  0.00000000000E+00  0.74505805969E-08  0.10566000000E+00  0.10566000000E+00 0. -1.
     999900   -1    0    0    0    0 -0.00000000000E+00 -0.00000000000E+00 -0.74505805969E-08  0.93827000000E+00  0.93827000000E+00 0.  1.
     999902    2    1    2    0    0  0.87151637677E-02 -0.29125895032E-02  0.21705312258E-01  0.10203597256E+01  0.10200874530E+01 0.  0.
     999903    2    3    3    0    0 -0.69418572102E-01  0.42521414323E-01 -0.96534921816E-01  0.12786329288E+00  0.20075400565E-01 0.  0.
         14    1    1    2    0    0 -0.87151637677E-02  0.29125895032E-02 -0.21705312258E-01  0.23570274443E-01  0.00000000000E+00 0.  1.
     999901    1    3    3    0    0  0.78133735869E-01 -0.45434003827E-01  0.11824023407E+00  0.89249643268E+00  0.88000000000E+00 0. -1.
        -11    1    4    4    0    0 -0.24116030603E-01  0.26390185366E-01 -0.41402773996E-01  0.54703524853E-01  0.51100000000E-03 0.  1.
         11    1    4    4    0    0 -0.45302541498E-01  0.16131228958E-01 -0.55132147819E-01  0.73159768029E-01  0.51100000000E-03 0. -1.
</event>
<event>
 8    1  0.1177602E+005  0.1043930E+01  0.7957747E-01            NaN
         13   -1    0    0    0    0  0.00000000000E+00  0.00000000000E+00  0.74505805969E-08  0.10566000000E+00  0.10566000000E+00 0. -1.
     999900   -1    0    0    0    0 -0.00000000000E+00 -0.00000000000E+00 -0.74505805969E-08  0.93827000000E+00  0.93827000000E+00 0.  1.
     999902    2    1    2    0    0 -0.14802715497E-01 -0.12298164641E-01  0.13581316422E-01  0.10203754379E+01  0.10201035324E+01 0.  0.
     999903    2    3    3    0    0 -0.25165941656E-01 -0.12857450973E+00  0.70529604525E-02  0.13264225484E+00  0.19480614637E-01 0.  0.
         14    1    1    2    0    0  0.14802715497E-01  0.12298164641E-01 -0.13581316422E-01  0.23554562093E-01  0.00000000000E+00 0. -1.
     999901    1    3    3    0    0  0.10363226159E-01  0.11627634509E+00  0.65283559699E-02  0.88773318307E+00  0.88000000000E+00 0.  1.
        -11    1    4    4    0    0  0.12053695335E-02 -0.11887792594E-01  0.50839255082E-02  0.12995381796E-01  0.51100000000E-03 0.  1.
         11    1    4    4    0    0 -0.26371311190E-01 -0.11668671714E+00  0.19690349443E-02  0.11964687305E+00  0.51100000000E-03 0. -1.
</event>
<event>
 8    1  0.1177602E+005  0.1043930E+01  0.7957747E-01            NaN
         13   -1    0    0    0    0  0.00000000000E+00  0.00000000000E+00  0.74505805969E-08  0.10566000000E+00  0.10566000000E+00 0.  1.
     999900   -1    0    0    0    0 -0.00000000000E+00 -0.00000000000E+00 -0.74505805969E-08  0.93827000000E+00  0.93827000000E+00 0. -1.
     999902    2    1    2    0    0  0.26905358222E-01  0.13432426331E-02  0.26084707411E-01  0.10064318059E+01  0.10057329990E+01 0.  0.
     999903    2    3    3    0    0 -0.56822603979E-02  0.10765586592E+00 -0.40514440674E-01  0.11693769500E+00  0.20271434535E-01 0.  0.
         14    1    1    2    0    0 -0.26905358222E-01 -0.13432426331E-02 -0.26084707411E-01  0.37498194124E-01  0.00000000000E+00 0. -1.
     999901    1    3    3    0    0  0.32587618620E-01 -0.10631262329E+00  0.66599148085E-01  0.88949411088E+00  0.88000000000E+00 0. -1.
        -11    1    4    4    0    0  0.11351070397E-02  0.67853179398E-01 -0.34422043422E-01  0.76095207581E-01  0.51100000000E-03 0.  1.
         11    1    4    4    0    0 -0.68173674376E-02  0.39802686524E-01 -0.60923972518E-02  0.40842487419E-01  0.51100000000E-03 0. -1.
</event>
<event>
 8    1  0.1177602E+005  0.1043930E+01  0.7957747E-01            NaN
         13   -1    0    0    0    0  0.00000000000E+00  0.00000000000E+00  0.74505805969E-08  0.10566000000E+00  0.10566000000E+00 0.  1.
     999900   -1    0    0    0    0 -0.00000000000E+00 -0.00000000000E+00 -0.74505805969E-08  0.93827000000E+00  0.93827000000E+00 0. -1.
     999902    2    1    2    0    0  0.22917762370E-01  0.14537235978E-02  0.66023893784E-02  0.10200358859E+01  0.10197559903E+01 0.  0.
     999903    2    3    3    0    0  0.10850208918E+00 -0.72229704081E-01  0.17360946527E-01  0.13275370355E+00  0.18229367362E-01 0.  0.
         14    1    1    2    0    0 -0.22917762370E-01 -0.14537235978E-02 -0.66023893784E-02  0.23894114125E-01  0.00000000000E+00 0.  1.
     999901    1    3    3    0    0 -0.85584326813E-01  0.73683427679E-01 -0.10758557149E-01  0.88728218232E+00  0.88000000000E+00 0.  1.
        -11    1    4    4    0    0  0.97358363988E-01 -0.57387460830E-01  0.15931367295E-01  0.11413168396E+00  0.51100000000E-03 0.  1.
         11    1    4    4    0    0  0.11143725195E-01 -0.14842243251E-01  0.14295792316E-02  0.18622019593E-01  0.51100000000E-03 0. -1.
</event>
<event>
 8    1  0.1177602E+005  0.1043930E+01  0.7957747E-01            NaN
         13   -1    0    0    0    0  0.00000000000E+00  0.00000000000E+00  0.74505805969E-08  0.10566000000E+00  0.10566000000E+00 0. -1.
     999900   -1    0    0    0    0 -0.00000000000E+00 -0.00000000000E+00 -0.74505805969E-08  0.93827000000E+00  0.93827000000E+00 0.  1.
     999902    2    1    2    0    0  0.17615983658E-01 -0.14942026305E-01 -0.20487722796E-02  0.10207398189E+01  0.10204763561E+01 0.  0.
     999903    2    3    3    0    0 -0.59731376640E-02  0.10073833654E-01 -0.12931231351E+00  0.13092059638E+00  0.16774016556E-01 0.  0.
         14    1    1    2    0    0 -0.17615983658E-01  0.14942026305E-01  0.20487722796E-02  0.23190181073E-01  0.00000000000E+00 0. -1.
     999901    1    3    3    0    0  0.23589121322E-01 -0.25015859959E-01  0.12726354123E+00  0.88981922255E+00  0.88000000000E+00 0. -1.
        -11    1    4    4    0    0  0.33835971215E-02  0.94932022777E-02 -0.86757809006E-01  0.87342705267E-01  0.51100000000E-03 0.  1.
         11    1    4    4    0    0 -0.93567347855E-02  0.58063137635E-03 -0.42554504507E-01  0.43577891108E-01  0.51100000000E-03 0. -1.
</event>
<event>
 7    1  0.1177602E+005  0.1043930E+01  0.7957747E-01            NaN
         13   -1    0    0    0    0  0.00000000000E+00  0.00000000000E+00  0.74505805969E-08  0.10566000000E+00  0.10566000000E+00 0. -1.
     999900   -1    0    0    0    0 -0.00000000000E+00 -0.00000000000E+00 -0.74505805969E-08  0.93827000000E+00  0.93827000000E+00 0.  1.
     999903    2    1    2    0    0  0.31680736576E-01 -0.23667654649E-01 -0.62705170576E-01  0.76635163314E-01  0.19421196991E-01 0.  0.
         14    1    1    2    0    0 -0.47331092654E-01 -0.54615921325E-01 -0.31174015057E-01  0.78708007273E-01  0.00000000000E+00 0.  1.
     999901    1    1    2    0    0  0.15650356078E-01  0.78283575974E-01  0.93879185633E-01  0.88858682941E+00  0.88000000000E+00 0. -1.
        -11    1    3    3    0    0  0.11125514329E-01 -0.10945054376E-01 -0.97188296108E-02  0.18392608689E-01  0.51100000000E-03 0. -1.
         11    1    3    3    0    0  0.20555222247E-01 -0.12722600272E-01 -0.52986340965E-01  0.58242554625E-01  0.51100000000E-03 0.  1.
</event>
<event>
 8    1  0.1177602E+005  0.1043930E+01  0.7957747E-01            NaN
         13   -1    0    0    0    0  0.00000000000E+00  0.00000000000E+00  0.74505805969E-08  0.10566000000E+00  0.10566000000E+00 0.  1.
     999900   -1    0    0    0    0 -0.00000000000E+00 -0.00000000000E+00 -0.74505805969E-08  0.93827000000E+00  0.93827000000E+00 0. -1.
     999902    2    1    2    0    0 -0.95735211970E-02  0.18873020452E-01 -0.96625272731E-02  0.10206661301E+01  0.10204009709E+01 0.  0.
     999903    2    3    3    0    0 -0.41871140854E-02  0.13113158375E+00  0.12693106344E-01  0.13323682432E+00  0.19439964659E-01 0.  0.
         14    1    1    2    0    0  0.95735211970E-02 -0.18873020452E-01  0.96625272731E-02  0.23263869893E-01  0.00000000000E+00 0.  1.
     999901    1    3    3    0    0 -0.53864071115E-02 -0.11225856329E+00 -0.22355633617E-01  0.88742930579E+00  0.88000000000E+00 0.  1.
        -11    1    4    4    0    0  0.62867023760E-02  0.85033781647E-01  0.58389402362E-02  0.85467075486E-01  0.51100000000E-03 0.  1.
         11    1    4    4    0    0 -0.10473816461E-01  0.46097802100E-01  0.68541661081E-02  0.47769748835E-01  0.51100000000E-03 0. -1.
</event>
<event>
 8    1  0.1177602E+005  0.1043930E+01  0.7957747E-01            NaN
         13   -1    0    0    0    0  0.00000000000E+00  0.00000000000E+00  0.74505805969E-08  0.10566000000E+00  0.10566000000E+00 0. -1.
     999900   -1    0    0    0    0 -0.00000000000E+00 -0.00000000000E+00 -0.74505805969E-08  0.93827000000E+00  0.93827000000E+00 0. -1.
     999902    2    1    2    0    0 -0.19329300183E-01  0.64663737279E-02  0.11764594054E-01  0.10203961625E+01  0.10201247409E+01 0.  0.
     999903    2    3    3    0    0 -0.34779714221E-01  0.36450034973E-01 -0.11842750848E+00  0.13017836959E+00  0.19572929587E-01 0.  0.
         14    1    1    2    0    0  0.19329300183E-01 -0.64663737279E-02 -0.11764594054E-01  0.23533837511E-01  0.00000000000E+00 0.  1.
     999901    1    3    3    0    0  0.15450414038E-01 -0.29983661245E-01  0.13019210254E+00  0.89021779290E+00  0.88000000000E+00 0.  1.
        -11    1    4    4    0    0 -0.15386981541E-01  0.97401528661E-02 -0.23894776547E-01  0.30047483190E-01  0.51100000000E-03 0.  1.
         11    1    4    4    0    0 -0.19392732680E-01  0.26709882107E-01 -0.94532731933E-01  0.10013088640E+00  0.51100000000E-03 0. -1.
</event>
<event>
 8    1  0.1177602E+005  0.1043930E+01  0.7957747E-01            NaN
         13   -1    0    0    0    0  0.00000000000E+00  0.00000000000E+00  0.74505805969E-08  0.10566000000E+00  0.10566000000E+00 0. -1.
     999900   -1    0    0    0    0 -0.00000000000E+00 -0.00000000000E+00 -0.74505805969E-08  0.93827000000E+00  0.93827000000E+00 0. -1.
     999902    2    1    2    0    0 -0.62160533504E-02 -0.65902693833E-02  0.22081298535E-01  0.10200625595E+01  0.10197832959E+01 0.  0.
     999903    2    3    3    0    0  0.52639042021E-01 -0.38357354771E-01 -0.10831589240E+00  0.12794345460E+00  0.19875603593E-01 0.  0.
         14    1    1    2    0    0  0.62160533504E-02  0.65902693833E-02 -0.22081298535E-01  0.23867440474E-01  0.00000000000E+00 0.  1.
     999901    1    3    3    0    0 -0.58855095371E-01  0.31767085388E-01  0.13039719094E+00  0.89211910492E+00  0.88000000000E+00 0.  1.
        -11    1    4    4    0    0  0.90457659253E-02  0.12047470034E-02 -0.12460648314E-01  0.15453354779E-01  0.51100000000E-03 0. -1.
         11    1    4    4    0    0  0.43593276096E-01 -0.39562101775E-01 -0.95855244090E-01  0.11249009982E+00  0.51100000000E-03 0.  1.
</event>
<event>
 8    1  0.1177602E+005  0.1043930E+01  0.7957747E-01            NaN
         13   -1    0    0    0    0  0.00000000000E+00  0.00000000000E+00  0.74505805969E-08  0.10566000000E+00  0.10566000000E+00 0.  1.
     999900   -1    0    0    0    0 -0.00000000000E+00 -0.00000000000E+00 -0.74505805969E-08  0.93827000000E+00  0.93827000000E+00 0.  1.
     999902    2    1    2    0    0  0.63194391707E-02  0.19877560907E-01 -0.11498939602E-01  0.10201123941E+01  0.10198343092E+01 0.  0.
     999903    2    3    3    0    0 -0.27557162912E-01 -0.70834601398E-01 -0.10378092079E+00  0.13000437559E+00  0.18807449860E-01 0.  0.
         14    1    1    2    0    0 -0.63194391707E-02 -0.19877560907E-01  0.11498939602E-01  0.23817605905E-01  0.00000000000E+00 0. -1.
     999901    1    3    3    0    0  0.33876602082E-01  0.90712162305E-01  0.92281981183E-01  0.89010801851E+00  0.88000000000E+00 0.  1.
        -11    1    4    4    0    0 -0.30038308282E-01 -0.61609262023E-01 -0.87922626749E-01  0.11148385779E+00  0.51100000000E-03 0.  1.
         11    1    4    4    0    0  0.24811453704E-02 -0.92253393749E-02 -0.15858294036E-01  0.18520517803E-01  0.51100000000E-03 0. -1.
</event>
<event>
 8    1  0.1177602E+005  0.1043930E+01  0.7957747E-01            NaN
         13   -1    0    0    0    0  0.00000000000E+00  0.00000000000E+00  0.74505805969E-08  0.10566000000E+00  0.10566000000E+00 0. -1.
     999900   -1    0    0    0    0 -0.00000000000E+00 -0.00000000000E+00 -0.74505805969E-08  0.93827000000E+00  0.93827000000E+00 0. -1.
     999902    2    1    2    0    0 -0.47717525694E-02  0.32325351804E-02 -0.24476629403E-01  0.10187839408E+01  0.10184735606E+01 0.  0.
     999903    2    3    3    0    0 -0.10854256763E-02  0.11111205523E+00 -0.66783367189E-01  0.13117961459E+00  0.20025138822E-01 0.  0.
         14    1    1    2    0    0  0.47717525694E-02 -0.32325351804E-02  0.24476629403E-01  0.25146059198E-01  0.00000000000E+00 0. -1.
     999901    1    3    3    0    0 -0.36863268931E-02 -0.10787952005E+00  0.42306737786E-01  0.88760432621E+00  0.88000000000E+00 0.  1.
        -11    1    4    4    0    0 -0.94576921029E-02  0.44429059369E-01 -0.22505266354E-01  0.50696522474E-01  0.51100000000E-03 0. -1.
         11    1    4    4    0    0  0.83722664267E-02  0.66682995858E-01 -0.44278100835E-01  0.80483092114E-01  0.51100000000E-03 0.  1.
</event>
<event>
 8    1  0.1177602E+005  0.1043930E+01  0.7957747E-01            NaN
         13   -1    0    0    0    0  0.00000000000E+00  0.00000000000E+00  0.74505805969E-08  0.10566000000E+00  0.10566000000E+00 0. -1.
     999900   -1    0    0    0    0 -0.00000000000E+00 -0.00000000000E+00 -0.74505805969E-08  0.93827000000E+00  0.93827000000E+00 0. -1.
     999902    2    1    2    0    0  0.26430209568E-01 -0.44333902378E-02  0.13894566520E-01  0.10137427526E+01  0.10132931948E+01 0.  0.
     999903    2    3    3    0    0 -0.98585604994E-01  0.64481258784E-01  0.25234612560E-01  0.12216730465E+00  0.20275857770E-01 0.  0.
         14    1    1    2    0    0 -0.26430209568E-01  0.44333902378E-02 -0.13894566520E-01  0.30187247400E-01  0.00000000000E+00 0.  1.
     999901    1    3    3    0    0  0.12501581456E+00 -0.68914649022E-01 -0.11340046040E-01  0.89157544795E+00  0.88000000000E+00 0. -1.
        -11    1    4    4    0    0 -0.46969052033E-01  0.23925366116E-01  0.19753033046E-01  0.56293502540E-01  0.51100000000E-03 0. -1.
         11    1    4    4    0    0 -0.51616552961E-01  0.40555892668E-01  0.54815795135E-02  0.65873802111E-01  0.51100000000E-03 0.  1.
</event>
<event>
 8    1  0.1177602E+005  0.1043930E+01  0.7957747E-01            NaN
         13   -1    0    0    0    0  0.00000000000E+00  0.00000000000E+00  0.74505805969E-08  0.10566000000E+00  0.10566000000E+00 0.  1.
     999900   -1    0    0    0    0 -0.00000000000E+00 -0.00000000000E+00 -0.74505805969E-08  0.93827000000E+00  0.93827000000E+00 0.  1.
     999902    2    1    2    0    0 -0.74550666022E-02 -0.20834276619E-01  0.15558159566E-01  0.10168800198E+01  0.10165201785E+01 0.  0.
     999903    2    3    3    0    0 -0.10430866068E+00  0.12962149831E-03 -0.70012459368E-01  0.12719331396E+00  0.19901787717E-01 0.  0.
         14    1    1    2    0    0  0.74550666022E-02  0.20834276619E-01 -0.15558159566E-01  0.27049980210E-01  0.00000000000E+00 0. -1.
     999901    1    3    3    0    0  0.96853594078E-01 -0.20963898117E-01  0.85570618934E-01  0.88968670583E+00  0.88000000000E+00 0. -1.
        -11    1    4    4    0    0 -0.28942471691E-01 -0.88848871963E-02 -0.20546601458E-01  0.36592783996E-01  0.51100000000E-03 0.  1.
         11    1    4    4    0    0 -0.75366188989E-01  0.90145086946E-02 -0.49465857909E-01  0.90600529962E-01  0.51100000000E-03 0. -1.
</event>
<event>
 8    1  0.1177602E+005  0.1043930E+01  0.7957747E-01            NaN
         13   -1    0    0    0    0  0.00000000000E+00  0.00000000000E+00  0.74505805969E-08  0.10566000000E+00  0.10566000000E+00 0.  1.
     999900   -1    0    0    0    0 -0.00000000000E+00 -0.00000000000E+00 -0.74505805969E-08  0.93827000000E+00  0.93827000000E+00 0. -1.
     999902    2    1    2    0    0  0.79912405291E-02  0.48099017861E-02  0.19435496468E-01  0.10223723192E+01  0.10221450119E+01 0.  0.
     999903    2    3    3    0    0  0.12130886331E+00 -0.20323224059E-01 -0.44835942134E-01  0.13242660426E+00  0.19941666276E-01 0.  0.
         14    1    1    2    0    0 -0.79912405291E-02 -0.48099017861E-02 -0.19435496468E-01  0.21557680843E-01  0.00000000000E+00 0. -1.
     999901    1    3    3    0    0 -0.11331762278E+00  0.25133125845E-01  0.64271438602E-01  0.88994571490E+00  0.88000000000E+00 0.  1.
        -11    1    4    4    0    0  0.14667745589E-01 -0.37478648570E-02  0.98469106569E-03  0.15179591205E-01  0.51100000000E-03 0.  1.
         11    1    4    4    0    0  0.10664111772E+00 -0.16575359202E-01 -0.45820633200E-01  0.11724701305E+00  0.51100000000E-03 0. -1.
</event>
<event>
 8    1  0.1177602E+005  0.1043930E+01  0.7957747E-01            NaN
         13   -1    0    0    0    0  0.00000000000E+00  0.00000000000E+00  0.74505805969E-08  0.10566000000E+00  0.10566000000E+00 0. -1.
     999900   -1    0    0    0    0 -0.00000000000E+00 -0.00000000000E+00 -0.74505805969E-08  0.93827000000E+00  0.93827000000E+00 0. -1.
     999902    2    1    2    0    0 -0.17856535613E-02 -0.18968307172E-01 -0.11903286465E-01  0.10214650614E+01  0.10212179974E+01 0.  0.
     999903    2    3    3    0    0  0.28566734545E-01  0.11113984735E+00 -0.57595459493E-01  0.13020910830E+00  0.21657583860E-01 0.  0.
         14    1    1    2    0    0  0.17856535613E-02  0.18968307172E-01  0.11903286465E-01  0.22464938555E-01  0.00000000000E+00 0. -1.
     999901    1    3    3    0    0 -0.30352388106E-01 -0.13010815452E+00  0.45692173028E-01  0.89125595314E+00  0.88000000000E+00 0.  1.
        -11    1    4    4    0    0  0.74396508914E-02  0.62389680700E-01 -0.38805349119E-01  0.73850774569E-01  0.51100000000E-03 0. -1.
         11    1    4    4    0    0  0.21127083654E-01  0.48750166652E-01 -0.18790110375E-01  0.56358333733E-01  0.51100000000E-03 0.  1.
</event>
<event>
 8    1  0.1177602E+005  0.1043930E+01  0.7957747E-01            NaN
         13   -1    0    0    0    0  0.00000000000E+00  0.00000000000E+00  0.74505805969E-08  0.10566000000E+00  0.10566000000E+00 0. -1.
     999900   -1    0    0    0    0 -0.00000000000E+00 -0.00000000000E+00 -0.74505805969E-08  0.93827000000E+00  0.93827000000E+00 0.  1.
     999902    2    1    2    0    0  0.78647869466E-02  0.19258055633E-01 -0.10535341633E-01  0.10206121741E+01  0.10203457693E+01 0.  0.
     999903    2    3    3    0    0  0.83313180748E-01 -0.43102754581E-01 -0.89698052363E-01  0.13165319557E+00  0.22088226878E-01 0.  0.
         14    1    1    2    0    0 -0.78647869466E-02 -0.19258055633E-01  0.10535341633E-01  0.23317825880E-01  0.00000000000E+00 0. -1.
     999901    1    3    3    0    0 -0.75448393802E-01  0.62360810214E-01  0.79162710731E-01  0.88895897855E+00  0.88000000000E+00 0. -1.
        -11    1    4    4    0    0  0.39254606775E-01 -0.10809438031E-01 -0.47899515931E-01  0.62868059068E-01  0.51100000000E-03 0. -1.
         11    1    4    4    0    0  0.44058573973E-01 -0.32293316550E-01 -0.41798536432E-01  0.68785136499E-01  0.51100000000E-03 0.  1.
</event>
<event>
 8    1  0.1177602E+005  0.1043930E+01  0.7957747E-01            NaN
         13   -1    0    0    0    0  0.00000000000E+00  0.00000000000E+00  0.74505805969E-08  0.10566000000E+00  0.10566000000E+00 0. -1.
     999900   -1    0    0    0    0 -0.00000000000E+00 -0.00000000000E+00 -0.74505805969E-08  0.93827000000E+00  0.93827000000E+00 0. -1.
     999902    2    1    2    0    0  0.14419599100E-01 -0.16072895206E-01 -0.58725416237E-02  0.10215525662E+01  0.10213074444E+01 0.  0.
     999903    2    3    3    0    0  0.56324947264E-02  0.12771866887E+00  0.86219049858E-02  0.12972112692E+00  0.20234874591E-01 0.  0.
         14    1    1    2    0    0 -0.14419599100E-01  0.16072895206E-01  0.58725416237E-02  0.22377433804E-01  0.00000000000E+00 0. -1.
     999901    1    3    3    0    0  0.87871043739E-02 -0.14379156407E+00 -0.14494446610E-01  0.89183143928E+00  0.88000000000E+00 0. -1.
        -11    1    4    4    0    0 -0.33402938011E-02  0.59828136433E-01 -0.41122763105E-02  0.60064427153E-01  0.51100000000E-03 0. -1.
         11    1    4    4    0    0  0.89727885276E-02  0.67890532432E-01  0.12734181296E-01  0.69656699765E-01  0.51100000000E-03 0.  1.
</event>
<event>
 8    1  0.1177602E+005  0.1043930E+01  0.7957747E-01            NaN
         13   -1    0    0    0    0  0.00000000000E+00  0.00000000000E+00  0.74505805969E-08  0.10566000000E+00  0.10566000000E+00 0.  1.
     999900   -1    0    0    0    0 -0.00000000000E+00 -0.00000000000E+00 -0.74505805969E-08  0.93827000000E+00  0.93827000000E+00 0.  1.
     999902    2    1    2    0    0  0.20232493065E-01 -0.18671724323E-02 -0.11849323704E-01  0.10204088057E+01  0.10201376790E+01 0.  0.
     999903    2    3    3    0    0 -0.51920090273E-01  0.10577426676E+00 -0.51103722793E-01  0.13005293160E+00  0.20451974301E-01 0.  0.
         14    1    1    2    0    0 -0.20232493065E-01  0.18671724323E-02  0.11849323704E-01  0.23521194288E-01  0.00000000000E+00 0.  1.
     999901    1    3    3    0    0  0.72152583337E-01 -0.10764143919E+00  0.39254399089E-01  0.89035587411E+00  0.88000000000E+00 0. -1.
        -11    1    4    4    0    0 -0.18873938600E-01  0.60250361585E-01 -0.23302592146E-01  0.67302329463E-01  0.51100000000E-03 0. -1.
         11    1    4    4    0    0 -0.33046151672E-01  0.45523905173E-01 -0.27801130646E-01  0.62750602139E-01  0.51100000000E-03 0.  1.
</event>
<event>
 8    1  0.1177602E+005  0.1043930E+01  0.7957747E-01            NaN
         13   -1    0    0    0    0  0.00000000000E+00  0.00000000000E+00  0.74505805969E-08  0.10566000000E+00  0.10566000000E+00 0. -1.
     999900   -1    0    0    0    0 -0.00000000000E+00 -0.00000000000E+00 -0.74505805969E-08  0.93827000000E+00  0.93827000000E+00 0.  1.
     999902    2    1    2    0    0  0.47904384655E-02  0.17456208184E-01 -0.14951281452E-01  0.10204521738E+01  0.10201820576E+01 0.  0.
     999903    2    3    3    0    0 -0.77256111225E-01 -0.99187947330E-01 -0.19793869728E-01  0.12895851373E+00  0.20778483269E-01 0.  0.
         14    1    1    2    0    0 -0.47904384655E-02 -0.17456208184E-01  0.14951281452E-01  0.23477826175E-01  0.00000000000E+00 0. -1.
     999901    1    3    3    0    0  0.82046549690E-01  0.11664415551E+00  0.48425882762E-02  0.89149366010E+00  0.88000000000E+00 0. -1.
        -11    1    4    4    0    0 -0.22561932564E-01 -0.34726164126E-01 -0.15791825228E-01  0.44323697284E-01  0.51100000000E-03 0. -1.
         11    1    4    4    0    0 -0.54694178661E-01 -0.64461783204E-01 -0.40020445000E-02  0.84634816444E-01  0.51100000000E-03 0.  1.
</event>
<event>
 8    1  0.1177602E+005  0.1043930E+01  0.7957747E-01            NaN
         13   -1    0    0    0    0  0.00000000000E+00  0.00000000000E+00  0.74505805969E-08  0.10566000000E+00  0.10566000000E+00 0.  1.
     999900   -1    0    0    0    0 -0.00000000000E+00 -0.00000000000E+00 -0.74505805969E-08  0.93827000000E+00  0.93827000000E+00 0.  1.
     999902    2    1    2    0    0 -0.21920988030E-01  0.22565955441E-02 -0.53576009220E-02  0.10212512472E+01  0.10209994046E+01 0.  0.
     999903    2    3    3    0    0  0.18833039328E-01  0.11595548622E+00  0.54527903667E-01  0.13098465674E+00  0.19578811698E-01 0.  0.
         14    1    1    2    0    0  0.21920988030E-01 -0.22565955441E-02  0.53576009220E-02  0.22678752772E-01  0.00000000000E+00 0.  1.
     999901    1    3    3    0    0 -0.40754027358E-01 -0.11369889067E+00 -0.59885504589E-01  0.89026659049E+00  0.88000000000E+00 0.  1.
        -11    1    4    4    0    0  0.66072138803E-02  0.54142638354E-01  0.35809677407E-01  0.65250859613E-01  0.51100000000E-03 0. -1.
         11    1    4    4    0    0  0.12225825448E-01  0.61812847864E-01  0.18718226260E-01  0.65733797124E-01  0.51100000000E-03 0.  1.
</event>
<event>
 8    1  0.1177602E+005  0.1043930E+01  0.7957747E-01            NaN
         13   -1    0    0    0    0  0.00000000000E+00  0.00000000000E+00  0.74505805969E-08  0.10566000000E+00  0.10566000000E+00 0. -1.
     999900   -1    0    0    0    0 -0.00000000000E+00 -0.00000000000E+00 -0.74505805969E-08  0.93827000000E+00  0.93827000000E+00 0.  1.
     999902    2    1    2    0    0  0.33586563208E-02  0.15192383611E-01  0.16958596468E-01  0.10209151551E+01  0.10206557063E+01 0.  0.
     999903    2    3    3    0    0 -0.21100121668E-01 -0.12093324136E+00 -0.33126820599E-01  0.12870611759E+00  0.19945286710E-01 0.  0.
         14    1    1    2    0    0 -0.33586563208E-02 -0.15192383611E-01 -0.16958596468E-01  0.23014844910E-01  0.00000000000E+00 0.  1.
     999901    1    3    3    0    0  0.24458777988E-01  0.13612562497E+00  0.50085417067E-01  0.89220903750E+00  0.88000000000E+00 0. -1.
        -11    1    4    4    0    0 -0.23567893980E-01 -0.86225582324E-01 -0.26941358974E-01  0.93361633545E-01  0.51100000000E-03 0. -1.
         11    1    4    4    0    0  0.24677723120E-02 -0.34707659035E-01 -0.61854616248E-02  0.35344484045E-01  0.51100000000E-03 0.  1.
</event>
<event>
 8    1  0.1177602E+005  0.1043930E+01  0.7957747E-01            NaN
         13   -1    0    0    0    0  0.00000000000E+00  0.00000000000E+00  0.74505805969E-08  0.10566000000E+00  0.10566000000E+00 0. -1.
     999900   -1    0    0    0    0 -0.00000000000E+00 -0.00000000000E+00 -0.74505805969E-08  0.93827000000E+00  0.93827000000E+00 0. -1.
     999902    2    1    2    0    0  0.20992311398E-01 -0.99407629792E-03  0.15583099127E-02  0.10228564703E+01  0.10226393622E+01 0.  0.
     999903    2    3    3    0    0 -0.69888800975E-01 -0.10584059663E+00 -0.29514806603E-01  0.13144314976E+00  0.17874602457E-01 0.  0.
         14    1    1    2    0    0 -0.20992311398E-01  0.99407629792E-03 -0.15583099127E-02  0.21073529731E-01  0.00000000000E+00 0. -1.
     999901    1    3    3    0    0  0.90881112373E-01  0.10484652033E+00  0.31073116516E-01  0.89141332051E+00  0.88000000000E+00 0. -1.
        -11    1    4    4    0    0 -0.20399349295E-01 -0.42304912409E-01 -0.48773936600E-02  0.47221702167E-01  0.51100000000E-03 0.  1.
         11    1    4    4    0    0 -0.49489451680E-01 -0.63535684222E-01 -0.24637412943E-01  0.84221447593E-01  0.51100000000E-03 0. -1.
</event>
<event>
 8    1  0.1177602E+005  0.1043930E+01  0.7957747E-01            NaN
         13   -1    0    0    0    0  0.00000000000E+00  0.00000000000E+00  0.74505805969E-08  0.10566000000E+00  0.10566000000E+00 0.  1.
     999900   -1    0    0    0    0 -0.00000000000E+00 -0.00000000000E+00 -0.74505805969E-08  0.93827000000E+00  0.93827000000E+00 0. -1.
     999902    2    1    2    0    0 -0.22910366167E-03 -0.95547381602E-02  0.21525564232E-01  0.10203780271E+01  0.10201061821E+01 0.  0.
     999903    2    3    3    0    0 -0.93490189858E-02  0.12772853786E+00 -0.66234625786E-02  0.12924266232E+00  0.16056524147E-01 0.  0.
         14    1    1    2    0    0  0.22910366167E-03  0.95547381602E-02 -0.21525564232E-01  0.23551972854E-01  0.00000000000E+00 0. -1.
     999901    1    3    3    0    0  0.91199153241E-02 -0.13728327602E+00  0.28149026811E-01  0.89113536482E+00  0.88000000000E+00 0.  1.
        -11    1    4    4    0    0 -0.38634008043E-02  0.82147353632E-01 -0.11628256843E-01  0.83057757330E-01  0.51100000000E-03 0.  1.
         11    1    4    4    0    0 -0.54856181814E-02  0.45581184228E-01  0.50047942645E-02  0.46184904992E-01  0.51100000000E-03 0. -1.
</event>
<event>
 8    1  0.1177602E+005  0.1043930E+01  0.7957747E-01            NaN
         13   -1    0    0    0    0  0.00000000000E+00  0.00000000000E+00  0.74505805969E-08  0.10566000000E+00  0.10566000000E+00 0. -1.
     999900   -1    0    0    0    0 -0.00000000000E+00 -0.00000000000E+00 -0.74505805969E-08  0.93827000000E+00  0.93827000000E+00 0.  1.
     999902    2    1    2    0    0  0.24033364359E-01  0.25594807519E-03 -0.15400395023E-02  0.10198459839E+01  0.10195615680E+01 0.  0.
     999903    2    3    3    0    0  0.26147636025E-01 -0.11525949241E+00  0.52033134998E-01  0.13067874865E+00  0.20025951964E-01 0.  0.
         14    1    1    2    0    0 -0.24033364359E-01 -0.25594807519E-03  0.15400395023E-02  0.24084016142E-01  0.00000000000E+00 0.  1.
     999901    1    3    3    0    0 -0.21142716652E-02  0.11551544048E+00 -0.53573174500E-01  0.88916723520E+00  0.88000000000E+00 0.  1.
        -11    1    4    4    0    0  0.14736676814E-01 -0.97848577722E-01  0.40976347667E-01  0.10710198875E+00  0.51100000000E-03 0.  1.
         11    1    4    4    0    0  0.11410959211E-01 -0.17410914686E-01  0.11056787331E-01  0.23576759900E-01  0.51100000000E-03 0. -1.
</event>
<event>
 8    1  0.1177602E+005  0.1043930E+01  0.7957747E-01            NaN
         13   -1    0    0    0    0  0.00000000000E+00  0.00000000000E+00  0.74505805969E-08  0.10566000000E+00  0.10566000000E+00 0.  1.
     999900   -1    0    0    0    0 -0.00000000000E+00 -0.00000000000E+00 -0.74505805969E-08  0.93827000000E+00  0.93827000000E+00 0. -1.
     999902    2    1    2    0    0 -0.14205266074E-01  0.22838968070E-03 -0.17761493889E-01  0.10211854971E+01  0.10209321756E+01 0.  0.
     999903    2    3    3    0    0  0.10415575060E+00  0.28870507992E-01  0.66844062563E-01  0.12877987108E+00  0.20837463375E-01 0.  0.
         14    1    1    2    0    0  0.14205266074E-01 -0.22838968070E-03  0.17761493889E-01  0.22744502879E-01  0.00000000000E+00 0.  1.
     999901    1    3    3    0    0 -0.11836101668E+00 -0.28642118312E-01 -0.84605556452E-01  0.89240562604E+00  0.88000000000E+00 0. -1.
        -11    1    4    4    0    0  0.27277641403E-01  0.48474178861E-02  0.74206445669E-02  0.28686133714E-01  0.51100000000E-03 0. -1.
         11    1    4    4    0    0  0.76878109199E-01  0.24023090106E-01  0.59423417996E-01  0.10009373736E+00  0.51100000000E-03 0.  1.
</event>
<event>
 8    1  0.1177602E+005  0.1043930E+01  0.7957747E-01            NaN
         13   -1    0    0    0    0  0.00000000000E+00  0.00000000000E+00  0.74505805969E-08  0.10566000000E+00  0.10566000000E+00 0. -1.
     999900   -1    0    0    0    0 -0.00000000000E+00 -0.00000000000E+00 -0.74505805969E-08  0.93827000000E+00  0.93827000000E+00 0. -1.
     999902    2    1    2    0    0  0.13352890449E-02 -0.83795276053E-02 -0.21841582233E-01  0.10204980945E+01  0.10202290462E+01 0.  0.
     999903    2    3    3    0    0 -0.81111094758E-01  0.39171630311E-01  0.89365716975E-01  0.12840752613E+00  0.19718901660E-01 0.  0.
         14    1    1    2    0    0 -0.13352890449E-02  0.83795276053E-02  0.21841582233E-01  0.23431905474E-01  0.00000000000E+00 0. -1.
     999901    1    3    3    0    0  0.82446383803E-01 -0.47551157916E-01 -0.11120729921E+00  0.89209056839E+00  0.88000000000E+00 0. -1.
        -11    1    4    4    0    0 -0.32421779943E-01  0.23189274276E-01  0.29440791730E-01  0.49557396974E-01  0.51100000000E-03 0.  1.
         11    1    4    4    0    0 -0.48689314815E-01  0.15982356035E-01  0.59924925245E-01  0.78850129158E-01  0.51100000000E-03 0. -1.
</event>
<event>
 8    1  0.1177602E+005  0.1043930E+01  0.7957747E-01            NaN
         13   -1    0    0    0    0  0.00000000000E+00  0.00000000000E+00  0.74505805969E-08  0.10566000000E+00  0.10566000000E+00 0.  1.
     999900   -1    0    0    0    0 -0.00000000000E+00 -0.00000000000E+00 -0.74505805969E-08  0.93827000000E+00  0.93827000000E+00 0.  1.
     999902    2    1    2    0    0 -0.20422841190E-01  0.89001738531E-02 -0.46300398518E-02  0.10211760376E+01  0.10209225029E+01 0.  0.
     999903    2    3    3    0    0  0.12598023064E+00  0.18115354958E-01 -0.56648581031E-02  0.12903263551E+00  0.20448613971E-01 0.  0.
         14    1    1    2    0    0  0.20422841190E-01 -0.89001738531E-02  0.46300398518E-02  0.22753962423E-01  0.00000000000E+00 0. -1.
     999901    1    3    3    0    0 -0.14640307183E+00 -0.92151811044E-02  0.10348182512E-02  0.89214340207E+00  0.88000000000E+00 0.  1.
        -11    1    4    4    0    0  0.83011674283E-01  0.20771937183E-01 -0.77908855581E-02  0.85926541071E-01  0.51100000000E-03 0.  1.
         11    1    4    4    0    0  0.42968556352E-01 -0.26565822256E-02  0.21260274550E-02  0.43106094440E-01  0.51100000000E-03 0. -1.
</event>
<event>
 8    1  0.1177602E+005  0.1043930E+01  0.7957747E-01            NaN
         13   -1    0    0    0    0  0.00000000000E+00  0.00000000000E+00  0.74505805969E-08  0.10566000000E+00  0.10566000000E+00 0.  1.
     999900   -1    0    0    0    0 -0.00000000000E+00 -0.00000000000E+00 -0.74505805969E-08  0.93827000000E+00  0.93827000000E+00 0. -1.
     999902    2    1    2    0    0  0.10623825487E-01  0.53227100579E-02  0.20230016363E-01  0.10204683191E+01  0.10201985786E+01 0.  0.
     999903    2    3    3    0    0  0.20214298994E-01 -0.96906436490E-01 -0.79950100607E-01  0.12885246488E+00  0.20284570555E-01 0.  0.
         14    1    1    2    0    0 -0.10623825487E-01 -0.53227100579E-02 -0.20230016363E-01  0.23461680937E-01  0.00000000000E+00 0. -1.
     999901    1    3    3    0    0 -0.95904735072E-02  0.10222914655E+00  0.10018011697E+00  0.89161585418E+00  0.88000000000E+00 0. -1.
        -11    1    4    4    0    0  0.16402634723E-01 -0.92749544123E-01 -0.69816570144E-01  0.11724392926E+00  0.51100000000E-03 0.  1.
         11    1    4    4    0    0  0.38116642712E-02 -0.41568923674E-02 -0.10133530463E-01  0.11608535624E-01  0.51100000000E-03 0. -1.
</event>
<event>
 8    1  0.1177602E+005  0.1043930E+01  0.7957747E-01            NaN
         13   -1    0    0    0    0  0.00000000000E+00  0.00000000000E+00  0.74505805969E-08  0.10566000000E+00  0.10566000000E+00 0. -1.
     999900   -1    0    0    0    0 -0.00000000000E+00 -0.00000000000E+00 -0.74505805969E-08  0.93827000000E+00  0.93827000000E+00 0.  1.
     999902    2    1    2    0    0 -0.43422626142E-04  0.21652184368E-01  0.90914015184E-02  0.10204465472E+01  0.10201763000E+01 0.  0.
     999903    2    3    3    0    0  0.10260177232E+00 -0.59624013548E-01 -0.46453837677E-01  0.12902794184E+00  0.20201585743E-01 0.  0.
         14    1    1    2    0    0  0.43422626142E-04 -0.21652184368E-01 -0.90914015184E-02  0.23483452792E-01  0.00000000000E+00 0.  1.
     999901    1    3    3    0    0 -0.10264519495E+00  0.81276197916E-01  0.55545239195E-01  0.89141860536E+00  0.88000000000E+00 0. -1.
        -11    1    4    4    0    0  0.62614450147E-01 -0.31094722486E-01 -0.17740886319E-01  0.72128020228E-01  0.51100000000E-03 0. -1.
         11    1    4    4    0    0  0.39987322174E-01 -0.28529291061E-01 -0.28712951358E-01  0.56899921615E-01  0.51100000000E-03 0.  1.
</event>
<event>
 8    1  0.1177602E+005  0.1043930E+01  0.7957747E-01            NaN
         13   -1    0    0    0    0  0.00000000000E+00  0.00000000000E+00  0.74505805969E-08  0.10566000000E+00  0.10566000000E+00 0. -1.
     999900   -1    0    0    0    0 -0.00000000000E+00 -0.00000000000E+00 -0.74505805969E-08  0.93827000000E+00  0.93827000000E+00 0.  1.
     999902    2    1    2    0    0 -0.17345499129E-01  0.10737645711E-01  0.82610236085E-02  0.10219207318E+01  0.10216836958E+01 0.  0.
     999903    2    3    3    0    0 -0.10477342075E+00 -0.76285901571E-01  0.23432155460E-01  0.13318741832E+00  0.19819536174E-01 0.  0.
         14    1    1    2    0    0  0.17345499129E-01 -0.10737645711E-01 -0.82610236085E-02  0.22009268196E-01  0.00000000000E+00 0. -1.
     999901    1    3    3    0    0  0.87427921621E-01  0.87023547282E-01 -0.15171131852E-01  0.88873331349E+00  0.88000000000E+00 0. -1.
        -11    1    4    4    0    0 -0.33538263757E-01 -0.18095148490E-01  0.14479843171E-01  0.40769799042E-01  0.51100000000E-03 0. -1.
         11    1    4    4    0    0 -0.71235156993E-01 -0.58190753081E-01  0.89523122893E-02  0.92417619274E-01  0.51100000000E-03 0.  1.
</event>
<event>
 8    1  0.1177602E+005  0.1043930E+01  0.7957747E-01            NaN
         13   -1    0    0    0    0  0.00000000000E+00  0.00000000000E+00  0.74505805969E-08  0.10566000000E+00  0.10566000000E+00 0. -1.
     999900   -1    0    0    0    0 -0.00000000000E+00 -0.00000000000E+00 -0.74505805969E-08  0.93827000000E+00  0.93827000000E+00 0.  1.
     999902    2    1    2    0    0 -0.69705227865E-02  0.13580403842E-01  0.17479028677E-01  0.10207237078E+01  0.10204598745E+01 0.  0.
     999903    2    3    3    0    0  0.12704573452E+00  0.15543805956E-01  0.15607293986E-01  0.13057331846E+00  0.20580945196E-01 0.  0.
         14    1    1    2    0    0  0.69705227865E-02 -0.13580403842E-01 -0.17479028677E-01  0.23206292249E-01  0.00000000000E+00 0.  1.
     999901    1    3    3    0    0 -0.13401625730E+00 -0.19634021135E-02  0.18717346917E-02  0.89015038929E+00  0.88000000000E+00 0. -1.
        -11    1    4    4    0    0  0.56387741245E-01  0.18083791079E-02  0.15803424573E-01  0.58590587528E-01  0.51100000000E-03 0. -1.
         11    1    4    4    0    0  0.70657993271E-01  0.13735426848E-01 -0.19613058783E-03  0.71982730929E-01  0.51100000000E-03 0.  1.
</event>
<event>
 8    1  0.1177602E+005  0.1043930E+01  0.7957747E-01            NaN
         13   -1    0    0    0    0  0.00000000000E+00  0.00000000000E+00  0.74505805969E-08  0.10566000000E+00  0.10566000000E+00 0. -1.
     999900   -1    0    0    0    0 -0.00000000000E+00 -0.00000000000E+00 -0.74505805969E-08  0.93827000000E+00  0.93827000000E+00 0. -1.
     999902    2    1    2    0    0  0.88026829403E-02  0.23044201342E-01 -0.37105548672E-02  0.10189842457E+01  0.10186788514E+01 0.  0.
     999903    2    3    3    0    0 -0.77481286058E-01  0.99841440815E-01 -0.28676322356E-01  0.13108446029E+00  0.19726664025E-01 0.  0.
         14    1    1    2    0    0 -0.88026829403E-02 -0.23044201342E-01  0.37105548672E-02  0.24945754345E-01  0.00000000000E+00 0.  1.
     999901    1    3    3    0    0  0.86283968999E-01 -0.76797239473E-01  0.24965767489E-01  0.88789978536E+00  0.88000000000E+00 0. -1.
        -11    1    4    4    0    0 -0.30006558472E-01  0.53270341523E-01 -0.17923881331E-01  0.63715378679E-01  0.51100000000E-03 0. -1.
         11    1    4    4    0    0 -0.47474727586E-01  0.46571099292E-01 -0.10752441025E-01  0.67369081615E-01  0.51100000000E-03 0.  1.
</event>
<event>
 8    1  0.1177602E+005  0.1043930E+01  0.7957747E-01            NaN
         13   -1    0    0    0    0  0.00000000000E+00  0.00000000000E+00  0.74505805969E-08  0.10566000000E+00  0.10566000000E+00 0. -1.
     999900   -1    0    0    0    0 -0.00000000000E+00 -0.00000000000E+00 -0.74505805969E-08  0.93827000000E+00  0.93827000000E+00 0. -1.
     999902    2    1    2    0    0  0.71606598745E-02  0.18238031417E-02  0.22772642560E-01  0.10199885181E+01  0.10197074985E+01 0.  0.
     999903    2    3    3    0    0 -0.30927367211E-01 -0.75289340064E-01  0.10222869746E+00  0.13223269617E+00  0.20243334266E-01 0.  0.
         14    1    1    2    0    0 -0.71606598745E-02 -0.18238031417E-02 -0.22772642560E-01  0.23941481928E-01  0.00000000000E+00 0.  1.
     999901    1    3    3    0    0  0.38088027085E-01  0.77113143206E-01 -0.79456054898E-01  0.88775582190E+00  0.88000000000E+00 0. -1.
        -11    1    4    4    0    0 -0.18932260343E-01 -0.65045434228E-01  0.77952041314E-01  0.10327691350E+00  0.51100000000E-03 0. -1.
         11    1    4    4    0    0 -0.11995106868E-01 -0.10243905837E-01  0.24276656145E-01  0.28955782672E-01  0.51100000000E-03 0.  1.
</event>
<event>
 8    1  0.1177602E+005  0.1043930E+01  0.7957747E-01            NaN
         13   -1    0    0    0    0  0.00000000000E+00  0.00000000000E+00  0.74505805969E-08  0.10566000000E+00  0.10566000000E+00 0.  1.
     999900   -1    0    0    0    0 -0.00000000000E+00 -0.00000000000E+00 -0.74505805969E-08  0.93827000000E+00  0.93827000000E+00 0. -1.
     999902    2    1    2    0    0 -0.10706176400E-01  0.14036281776E-01  0.21626659287E-01  0.10160131268E+01  0.10156295200E+01 0.  0.
     999903    2    3    3    0    0  0.66860648820E-01  0.72387890428E-01  0.80520174296E-01  0.12871950641E+00  0.19361297008E-01 0.  0.
         14    1    1    2    0    0  0.10706176400E-01 -0.14036281776E-01 -0.21626659287E-01  0.27916873233E-01  0.00000000000E+00 0. -1.
     999901    1    3    3    0    0 -0.77566825220E-01 -0.58351608651E-01 -0.58893515009E-01  0.88729362035E+00  0.88000000000E+00 0. -1.
        -11    1    4    4    0    0  0.50893909309E-01  0.42125346759E-01  0.49824618269E-01  0.82749553176E-01  0.51100000000E-03 0.  1.
         11    1    4    4    0    0  0.15966739511E-01  0.30262543669E-01  0.30695556027E-01  0.45969953239E-01  0.51100000000E-03 0. -1.
</event>
<event>
 8    1  0.1177602E+005  0.1043930E+01  0.7957747E-01            NaN
         13   -1    0    0    0    0  0.00000000000E+00  0.00000000000E+00  0.74505805969E-08  0.10566000000E+00  0.10566000000E+00 0. -1.
     999900   -1    0    0    0    0 -0.00000000000E+00 -0.00000000000E+00 -0.74505805969E-08  0.93827000000E+00  0.93827000000E+00 0. -1.
     999902    2    1    2    0    0 -0.19289873658E-01 -0.13155721973E-01  0.20162372243E-02  0.10204941843E+01  0.10202250451E+01 0.  0.
     999903    2    3    3    0    0 -0.43533870587E-01 -0.94611875871E-01 -0.79609664726E-01  0.13263965550E+00  0.20223119149E-01 0.  0.
         14    1    1    2    0    0  0.19289873658E-01  0.13155721973E-01 -0.20162372243E-02  0.23435815730E-01  0.00000000000E+00 0. -1.
     999901    1    3    3    0    0  0.24243996929E-01  0.81456153898E-01  0.81625901951E-01  0.88785452877E+00  0.88000000000E+00 0.  1.
        -11    1    4    4    0    0 -0.39158510865E-01 -0.74972955767E-01 -0.72144424216E-01  0.11117289299E+00  0.51100000000E-03 0.  1.
         11    1    4    4    0    0 -0.43753597224E-02 -0.19638920104E-01 -0.74652405102E-02  0.21466762505E-01  0.51100000000E-03 0. -1.
</event>
<event>
 8    1  0.1177602E+005  0.1043930E+01  0.7957747E-01            NaN
         13   -1    0    0    0    0  0.00000000000E+00  0.00000000000E+00  0.74505805969E-08  0.10566000000E+00  0.10566000000E+00 0.  1.
     999900   -1    0    0    0    0 -0.00000000000E+00 -0.00000000000E+00 -0.74505805969E-08  0.93827000000E+00  0.93827000000E+00 0.  1.
     999902    2    1    2    0    0 -0.97440249828E-02  0.11805298727E-01 -0.17414730168E-01  0.10207441438E+01  0.10204807804E+01 0.  0.
     999903    2    3    3    0    0  0.77198613094E-01  0.88087503107E-01  0.53591867407E-01  0.13033977840E+00  0.19933276560E-01 0.  0.
         14    1    1    2    0    0  0.97440249828E-02 -0.11805298727E-01  0.17414730168E-01  0.23185856200E-01  0.00000000000E+00 0.  1.
     999901    1    3    3    0    0 -0.86942638077E-01 -0.76282204379E-01 -0.71006597575E-01  0.89040436540E+00  0.88000000000E+00 0.  1.
        -11    1    4    4    0    0  0.27605306036E-01  0.24187240625E-01  0.82953275895E-02  0.37631756685E-01  0.51100000000E-03 0.  1.
         11    1    4    4    0    0  0.49593307059E-01  0.63900262482E-01  0.45296539818E-01  0.92708021717E-01  0.51100000000E-03 0. -1.
</event>
<event>
 8    1  0.1177602E+005  0.1043930E+01  0.7957747E-01            NaN
         13   -1    0    0    0    0  0.00000000000E+00  0.00000000000E+00  0.74505805969E-08  0.10566000000E+00  0.10566000000E+00 0.  1.
     999900   -1    0    0    0    0 -0.00000000000E+00 -0.00000000000E+00 -0.74505805969E-08  0.93827000000E+00  0.93827000000E+00 0. -1.
     999902    2    1    2    0    0  0.62685836498E-02  0.70581314937E-02 -0.20723943912E-01  0.10211573363E+01  0.10209033800E+01 0.  0.
     999903    2    3    3    0    0 -0.17108177604E-01  0.37315611869E-01  0.12066292912E+00  0.12905182910E+00  0.20240738625E-01 0.  0.
         14    1    1    2    0    0 -0.62685836498E-02 -0.70581314937E-02  0.20723943912E-01  0.22772663710E-01  0.00000000000E+00 0.  1.
     999901    1    3    3    0    0  0.23376761253E-01 -0.30257480376E-01 -0.14138687304E+00  0.89210550719E+00  0.88000000000E+00 0. -1.
        -11    1    4    4    0    0 -0.62017905155E-02 -0.19348410844E-03  0.11018330236E-01  0.12655606026E-01  0.51100000000E-03 0.  1.
         11    1    4    4    0    0 -0.10906387088E-01  0.37509095978E-01  0.10964459889E+00  0.11639622308E+00  0.51100000000E-03 0. -1.
</event>
<event>
 8    1  0.1177602E+005  0.1043930E+01  0.7957747E-01            NaN
         13   -1    0    0    0    0  0.00000000000E+00  0.00000000000E+00  0.74505805969E-08  0.10566000000E+00  0.10566000000E+00 0.  1.
     999900   -1    0    0    0    0 -0.00000000000E+00 -0.00000000000E+00 -0.74505805969E-08  0.93827000000E+00  0.93827000000E+00 0. -1.
     999902    2    1    2    0    0  0.19510957169E-01  0.12875884668E-01 -0.45777052675E-02  0.10201093946E+01  0.10198312388E+01 0.  0.
     999903    2    3    3    0    0 -0.10268215735E+00  0.32833712456E-01 -0.68240609598E-01  0.12916470636E+00  0.20126163548E-01 0.  0.
         14    1    1    2    0    0 -0.19510957169E-01 -0.12875884668E-01  0.45777052675E-02  0.23820605390E-01  0.00000000000E+00 0. -1.
     999901    1    3    3    0    0  0.12219311452E+00 -0.19957827788E-01  0.63662904331E-01  0.89094468825E+00  0.88000000000E+00 0.  1.
        -11    1    4    4    0    0 -0.56180686321E-01  0.88671845034E-02 -0.29557652630E-01  0.64100018928E-01  0.51100000000E-03 0.  1.
         11    1    4    4    0    0 -0.46501471032E-01  0.23966527952E-01 -0.38682956969E-01  0.65064687436E-01  0.51100000000E-03 0. -1.
</event>
<event>
 8    1  0.1177602E+005  0.1043930E+01  0.7957747E-01            NaN
         13   -1    0    0    0    0  0.00000000000E+00  0.00000000000E+00  0.74505805969E-08  0.10566000000E+00  0.10566000000E+00 0. -1.
     999900   -1    0    0    0    0 -0.00000000000E+00 -0.00000000000E+00 -0.74505805969E-08  0.93827000000E+00  0.93827000000E+00 0.  1.
     999902    2    1    2    0    0  0.22007169349E-01 -0.75710794067E-02  0.75271810874E-03  0.10206447401E+01  0.10203790874E+01 0.  0.
     999903    2    3    3    0    0 -0.91723359662E-01  0.22646826053E-01 -0.83072521521E-01  0.12886313796E+00  0.27903602897E-01 0.  0.
         14    1    1    2    0    0 -0.22007169349E-01  0.75710794067E-02 -0.75271810874E-03  0.23285259945E-01  0.00000000000E+00 0.  1.
     999901    1    3    3    0    0  0.11373052901E+00 -0.30217905460E-01  0.83825239630E-01  0.89178160210E+00  0.88000000000E+00 0. -1.
        -11    1    4    4    0    0 -0.28493685279E-01  0.18920248185E-01 -0.20784298680E-01  0.40026417336E-01  0.51100000000E-03 0.  1.
         11    1    4    4    0    0 -0.63229674383E-01  0.37265778680E-02 -0.62288222841E-01  0.88836720622E-01  0.51100000000E-03 0. -1.
</event>
<event>
 8    1  0.1177602E+005  0.1043930E+01  0.7957747E-01            NaN
         13   -1    0    0    0    0  0.00000000000E+00  0.00000000000E+00  0.74505805969E-08  0.10566000000E+00  0.10566000000E+00 0.  1.
     999900   -1    0    0    0    0 -0.00000000000E+00 -0.00000000000E+00 -0.74505805969E-08  0.93827000000E+00  0.93827000000E+00 0.  1.
     999902    2    1    2    0    0 -0.55727030646E-02  0.68092329219E-02  0.21832378837E-01  0.10203912354E+01  0.10201196988E+01 0.  0.
     999903    2    3    3    0    0  0.46175159695E-01  0.90123273769E-01  0.83318942976E-01  0.13281044007E+00  0.21028953486E-01 0.  0.
         14    1    1    2    0    0  0.55727030646E-02 -0.68092329219E-02 -0.21832378837E-01  0.23538764584E-01  0.00000000000E+00 0. -1.
     999901    1    3    3    0    0 -0.51747862759E-01 -0.83314040847E-01 -0.61486564139E-01  0.88758079535E+00  0.88000000000E+00 0.  1.
        -11    1    4    4    0    0  0.18581375950E-01  0.35073779212E-01  0.19865927747E-01  0.44388666647E-01  0.51100000000E-03 0.  1.
         11    1    4    4    0    0  0.27593783745E-01  0.55049494556E-01  0.63453015229E-01  0.88421773421E-01  0.51100000000E-03 0. -1.
</event>
<event>
 8    1  0.1177602E+005  0.1043930E+01  0.7957747E-01            NaN
         13   -1    0    0    0    0  0.00000000000E+00  0.00000000000E+00  0.74505805969E-08  0.10566000000E+00  0.10566000000E+00 0. -1.
     999900   -1    0    0    0    0 -0.00000000000E+00 -0.00000000000E+00 -0.74505805969E-08  0.93827000000E+00  0.93827000000E+00 0.  1.
     999902    2    1    2    0    0 -0.69507337950E-02  0.21547577208E-01 -0.84260593784E-02  0.10197719939E+01  0.10194858068E+01 0.  0.
     999903    2    3    3    0    0 -0.79995366350E-01  0.10008003909E+00  0.26359461906E-01  0.13257816025E+00  0.21607278445E-01 0.  0.
         14    1    1    2    0    0  0.69507337950E-02 -0.21547577208E-01  0.84260593784E-02  0.24158006136E-01  0.00000000000E+00 0. -1.
     999901    1    3    3    0    0  0.73044632555E-01 -0.78532461880E-01 -0.34785521284E-01  0.88719383362E+00  0.88000000000E+00 0.  1.
        -11    1    4    4    0    0 -0.38645076824E-01  0.62540079911E-01  0.88643149945E-02  0.74050933549E-01  0.51100000000E-03 0.  1.
         11    1    4    4    0    0 -0.41350289525E-01  0.37539959176E-01  0.17495146911E-01  0.58527226700E-01  0.51100000000E-03 0. -1.
</event>
<event>
 8    1  0.1177602E+005  0.1043930E+01  0.7957747E-01            NaN
         13   -1    0    0    0    0  0.00000000000E+00  0.00000000000E+00  0.74505805969E-08  0.10566000000E+00  0.10566000000E+00 0.  1.
     999900   -1    0    0    0    0 -0.00000000000E+00 -0.00000000000E+00 -0.74505805969E-08  0.93827000000E+00  0.93827000000E+00 0. -1.
     999902    2    1    2    0    0  0.13085752102E-02 -0.22914457848E-01  0.82791363428E-02  0.10195306384E+01  0.10192386344E+01 0.  0.
     999903    2    3    3    0    0  0.19523524561E-01 -0.83197971874E-01 -0.97133163335E-01  0.13100509608E+00  0.20601292297E-01 0.  0.
         14    1    1    2    0    0 -0.13085752102E-02  0.22914457848E-01 -0.82791363428E-02  0.24399361593E-01  0.00000000000E+00 0. -1.
     999901    1    3    3    0    0 -0.18214949351E-01  0.60283514026E-01  0.10541229968E+00  0.88852554233E+00  0.88000000000E+00 0.  1.
        -11    1    4    4    0    0  0.15075161621E-01 -0.71614935746E-01 -0.70501027443E-01  0.10161995627E+00  0.51100000000E-03 0. -1.
         11    1    4    4    0    0  0.44483629404E-02 -0.11583036128E-01 -0.26632135892E-01  0.29385139815E-01  0.51100000000E-03 0.  1.
</event>
<event>
 8    1  0.1177602E+005  0.1043930E+01  0.7957747E-01            NaN
         13   -1    0    0    0    0  0.00000000000E+00  0.00000000000E+00  0.74505805969E-08  0.10566000000E+00  0.10566000000E+00 0.  1.
     999900   -1    0    0    0    0 -0.00000000000E+00 -0.00000000000E+00 -0.74505805969E-08  0.93827000000E+00  0.93827000000E+00 0.  1.
     999902    2    1    2    0    0  0.12053104372E-01  0.60931161728E-02 -0.22663632799E-01  0.10175473610E+01  0.10172052832E+01 0.  0.
     999903    2    3    3    0    0  0.12508921348E+00 -0.23115704223E-01 -0.17145079352E-01  0.12981949076E+00  0.19429341815E-01 0.  0.
         14    1    1    2    0    0 -0.12053104372E-01 -0.60931161728E-02  0.22663632799E-01  0.26382639014E-01  0.00000000000E+00 0.  1.
     999901    1    3    3    0    0 -0.11303610911E+00  0.29208820396E-01 -0.55185534466E-02  0.88772787023E+00  0.88000000000E+00 0.  1.
        -11    1    4    4    0    0  0.58405878755E-01 -0.27540009736E-02 -0.13432681890E-01  0.59996077024E-01  0.51100000000E-03 0. -1.
         11    1    4    4    0    0  0.66683334725E-01 -0.20361703249E-01 -0.37123974624E-02  0.69823413732E-01  0.51100000000E-03 0.  1.
</event>
<event>
 8    1  0.1177602E+005  0.1043930E+01  0.7957747E-01            NaN
         13   -1    0    0    0    0  0.00000000000E+00  0.00000000000E+00  0.74505805969E-08  0.10566000000E+00  0.10566000000E+00 0. -1.
     999900   -1    0    0    0    0 -0.00000000000E+00 -0.00000000000E+00 -0.74505805969E-08  0.93827000000E+00  0.93827000000E+00 0. -1.
     999902    2    1    2    0    0 -0.25537901979E-02 -0.21831666259E-01 -0.63109472834E-02  0.10210614287E+01  0.10208053045E+01 0.  0.
     999903    2    3    3    0    0 -0.32452437003E-01  0.93231060301E-01 -0.80214327551E-01  0.12999741884E+00  0.26829075407E-01 0.  0.
         14    1    1    2    0    0  0.25537901979E-02  0.21831666259E-01  0.63109472834E-02  0.22868571263E-01  0.00000000000E+00 0.  1.
     999901    1    3    3    0    0  0.29898646805E-01 -0.11506272656E+00  0.73903380268E-01  0.89106400990E+00  0.88000000000E+00 0.  1.
        -11    1    4    4    0    0 -0.21137369480E-01  0.39297356025E-01 -0.21714103501E-01  0.49626948233E-01  0.51100000000E-03 0.  1.
         11    1    4    4    0    0 -0.11315067524E-01  0.53933704276E-01 -0.58500224050E-01  0.80370470603E-01  0.51100000000E-03 0. -1.
</event>
<event>
 8    1  0.1177602E+005  0.1043930E+01  0.7957747E-01            NaN
         13   -1    0    0    0    0  0.00000000000E+00  0.00000000000E+00  0.74505805969E-08  0.10566000000E+00  0.10566000000E+00 0. -1.
     999900   -1    0    0    0    0 -0.00000000000E+00 -0.00000000000E+00 -0.74505805969E-08  0.93827000000E+00  0.93827000000E+00 0. -1.
     999902    2    1    2    0    0  0.81661767196E-02  0.15253742457E-01 -0.15821610959E-01  0.10204846065E+01  0.10202152448E+01 0.  0.
     999903    2    3    3    0    0 -0.73971426129E-01 -0.71369550455E-01 -0.77375452406E-01  0.13029414598E+00  0.20596582866E-01 0.  0.
         14    1    1    2    0    0 -0.81661767196E-02 -0.15253742457E-01  0.15821610959E-01  0.23445393460E-01  0.00000000000E+00 0.  1.
     999901    1    3    3    0    0  0.82137602848E-01  0.86623292912E-01  0.61553841447E-01  0.89019046056E+00  0.88000000000E+00 0.  1.
        -11    1    4    4    0    0 -0.68374581509E-02 -0.10297843496E-01 -0.17991932690E-01  0.21834998913E-01  0.51100000000E-03 0. -1.
         11    1    4    4    0    0 -0.67133967978E-01 -0.61071706960E-01 -0.59383519716E-01  0.10845914707E+00  0.51100000000E-03 0.  1.
</event>
<event>
 8    1  0.1177602E+005  0.1043930E+01  0.7957747E-01            NaN
         13   -1    0    0    0    0  0.00000000000E+00  0.00000000000E+00  0.74505805969E-08  0.10566000000E+00  0.10566000000E+00 0.  1.
     999900   -1    0    0    0    0 -0.00000000000E+00 -0.00000000000E+00 -0.74505805969E-08  0.93827000000E+00  0.93827000000E+00 0.  1.
     999902    2    1    2    0    0 -0.22802090825E-01 -0.50447929605E-02 -0.28313445807E-02  0.10204055065E+01  0.10201343029E+01 0.  0.
     999903    2    3    3    0    0 -0.29339500161E-01 -0.35769767901E-01  0.12115391270E+00  0.13115913692E+00  0.19600154793E-01 0.  0.
         14    1    1    2    0    0  0.22802090825E-01  0.50447929605E-02  0.28313445807E-02  0.23524493494E-01  0.00000000000E+00 0.  1.
     999901    1    3    3    0    0  0.65374093365E-02  0.30724974941E-01 -0.12398525728E+00  0.88924636959E+00  0.88000000000E+00 0.  1.
        -11    1    4    4    0    0 -0.21757604530E-01 -0.14102716910E-01  0.79135007809E-01  0.83275990303E-01  0.51100000000E-03 0. -1.
         11    1    4    4    0    0 -0.75818956314E-02 -0.21667050991E-01  0.42018904894E-01  0.47883146613E-01  0.51100000000E-03 0.  1.
</event>
<event>
 8    1  0.1177602E+005  0.1043930E+01  0.7957747E-01            NaN
         13   -1    0    0    0    0  0.00000000000E+00  0.00000000000E+00  0.74505805969E-08  0.10566000000E+00  0.10566000000E+00 0. -1.
     999900   -1    0    0    0    0 -0.00000000000E+00 -0.00000000000E+00 -0.74505805969E-08  0.93827000000E+00  0.93827000000E+00 0.  1.
     999902    2    1    2    0    0  0.71131992250E-03  0.14591967708E-01  0.18375560828E-01  0.10204546356E+01  0.10201845767E+01 0.  0.
     999903    2    3    3    0    0 -0.11001953717E+00 -0.64396628791E-01 -0.11722923602E-01  0.12949647730E+00  0.19511184894E-01 0.  0.
         14    1    1    2    0    0 -0.71131992250E-03 -0.14591967708E-01 -0.18375560828E-01  0.23475364392E-01  0.00000000000E+00 0.  1.
     999901    1    3    3    0    0  0.11073085710E+00  0.78988596498E-01  0.30098484430E-01  0.89095815831E+00  0.88000000000E+00 0. -1.
        -11    1    4    4    0    0 -0.66813905496E-01 -0.43041941726E-01  0.15857257688E-02  0.79495171944E-01  0.51100000000E-03 0.  1.
         11    1    4    4    0    0 -0.43205631677E-01 -0.21354687065E-01 -0.13308649371E-01  0.50001305356E-01  0.51100000000E-03 0. -1.
</event>
<event>
 8    1  0.1177602E+005  0.1043930E+01  0.7957747E-01            NaN
         13   -1    0    0    0    0  0.00000000000E+00  0.00000000000E+00  0.74505805969E-08  0.10566000000E+00  0.10566000000E+00 0.  1.
     999900   -1    0    0    0    0 -0.00000000000E+00 -0.00000000000E+00 -0.74505805969E-08  0.93827000000E+00  0.93827000000E+00 0. -1.
     999902    2    1    2    0    0  0.11732243341E-01  0.11593339863E-01 -0.16104141547E-01  0.10208780058E+01  0.10206177091E+01 0.  0.
     999903    2    3    3    0    0  0.39245286614E-01 -0.23987198327E-01  0.11926509771E+00  0.12939173376E+00  0.20061879989E-01 0.  0.
         14    1    1    2    0    0 -0.11732243341E-01 -0.11593339863E-01  0.16104141547E-01  0.23051994229E-01  0.00000000000E+00 0.  1.
     999901    1    3    3    0    0 -0.27513043273E-01  0.35580538189E-01 -0.13536923926E+00  0.89148627201E+00  0.88000000000E+00 0. -1.
        -11    1    4    4    0    0  0.79435826206E-02 -0.36910648482E-02  0.49551151720E-01  0.50321985477E-01  0.51100000000E-03 0.  1.
         11    1    4    4    0    0  0.31301703993E-01 -0.20296133479E-01  0.69713945990E-01  0.79069748283E-01  0.51100000000E-03 0. -1.
</event>
<event>
 8    1  0.1177602E+005  0.1043930E+01  0.7957747E-01            NaN
         13   -1    0    0    0    0  0.00000000000E+00  0.00000000000E+00  0.74505805969E-08  0.10566000000E+00  0.10566000000E+00 0. -1.
     999900   -1    0    0    0    0 -0.00000000000E+00 -0.00000000000E+00 -0.74505805969E-08  0.93827000000E+00  0.93827000000E+00 0.  1.
     999902    2    1    2    0    0 -0.11146310865E-01 -0.19875684401E-01 -0.94856424569E-02  0.10192467974E+01  0.10189478758E+01 0.  0.
     999903    2    3    3    0    0 -0.31067525984E-01  0.38840612075E-01  0.11648290032E+00  0.12811687870E+00  0.19284299933E-01 0.  0.
         14    1    1    2    0    0  0.11146310865E-01  0.19875684401E-01  0.94856424569E-02  0.24683202570E-01  0.00000000000E+00 0. -1.
     999901    1    3    3    0    0  0.19921215119E-01 -0.58716296476E-01 -0.12596854278E+00  0.89112991873E+00  0.88000000000E+00 0.  1.
        -11    1    4    4    0    0 -0.26196310521E-01  0.31066115150E-01  0.71842886906E-01  0.82540969921E-01  0.51100000000E-03 0. -1.
         11    1    4    4    0    0 -0.48712154628E-02  0.77744969250E-02  0.44640013414E-01  0.45575908780E-01  0.51100000000E-03 0.  1.
</event>
<event>
 8    1  0.1177602E+005  0.1043930E+01  0.7957747E-01            NaN
         13   -1    0    0    0    0  0.00000000000E+00  0.00000000000E+00  0.74505805969E-08  0.10566000000E+00  0.10566000000E+00 0. -1.
     999900   -1    0    0    0    0 -0.00000000000E+00 -0.00000000000E+00 -0.74505805969E-08  0.93827000000E+00  0.93827000000E+00 0.  1.
     999902    2    1    2    0    0 -0.12964191867E-01  0.13127262176E-01 -0.13095610118E-01  0.10213050075E+01  0.10210543707E+01 0.  0.
     999903    2    3    3    0    0  0.55324750231E-02  0.10340033595E+00  0.78959664867E-01  0.13171772777E+00  0.19816492585E-01 0.  0.
         14    1    1    2    0    0  0.12964191867E-01 -0.13127262176E-01  0.13095610118E-01  0.22624992539E-01  0.00000000000E+00 0. -1.
     999901    1    3    3    0    0 -0.18496666890E-01 -0.90273073775E-01 -0.92055274985E-01  0.88958727969E+00  0.88000000000E+00 0.  1.
        -11    1    4    4    0    0 -0.82244446969E-03  0.29086385664E-01  0.33471507769E-01  0.44354224142E-01  0.51100000000E-03 0.  1.
         11    1    4    4    0    0  0.63549194927E-02  0.74313950288E-01  0.45488157098E-01  0.87363503629E-01  0.51100000000E-03 0. -1.
</event>
<event>
 8    1  0.1177602E+005  0.1043930E+01  0.7957747E-01            NaN
         13   -1    0    0    0    0  0.00000000000E+00  0.00000000000E+00  0.74505805969E-08  0.10566000000E+00  0.10566000000E+00 0. -1.
     999900   -1    0    0    0    0 -0.00000000000E+00 -0.00000000000E+00 -0.74505805969E-08  0.93827000000E+00  0.93827000000E+00 0.  1.
     999902    2    1    2    0    0  0.15595421056E-01 -0.16885258610E-02 -0.18414428370E-01  0.10197399308E+01  0.10194529744E+01 0.  0.
     999903    2    3    3    0    0  0.61460325502E-01 -0.59361380608E-01  0.94578332211E-01  0.12946069840E+00  0.22668621209E-01 0.  0.
         14    1    1    2    0    0 -0.15595421056E-01  0.16885258610E-02  0.18414428370E-01  0.24190069237E-01  0.00000000000E+00 0. -1.
     999901    1    3    3    0    0 -0.45864904446E-01  0.57672854747E-01 -0.11299276058E+00  0.89027923236E+00  0.88000000000E+00 0.  1.
        -11    1    4    4    0    0  0.61565788872E-02 -0.24121349401E-02  0.17906439035E-01  0.19095118185E-01  0.51100000000E-03 0. -1.
         11    1    4    4    0    0  0.55303746615E-01 -0.56949245668E-01  0.76671893175E-01  0.11036558021E+00  0.51100000000E-03 0.  1.
</event>
<event>
 8    1  0.1177602E+005  0.1043930E+01  0.7957747E-01            NaN
         13   -1    0    0    0    0  0.00000000000E+00  0.00000000000E+00  0.74505805969E-08  0.10566000000E+00  0.10566000000E+00 0.  1.
     999900   -1    0    0    0    0 -0.00000000000E+00 -0.00000000000E+00 -0.74505805969E-08  0.93827000000E+00  0.93827000000E+00 0. -1.
     999902    2    1    2    0    0  0.20798695978E-02 -0.23809306499E-02 -0.23162041854E-01  0.10205531980E+01  0.10202854283E+01 0.  0.
     999903    2    3    3    0    0  0.80710342951E-01  0.10092215668E+00 -0.11471849679E-03  0.13072992438E+00  0.19770149189E-01 0.  0.
         14    1    1    2    0    0 -0.20798695978E-02  0.23809306499E-02  0.23162041854E-01  0.23376801987E-01  0.00000000000E+00 0.  1.
     999901    1    3    3    0    0 -0.78630473354E-01 -0.10330308733E+00 -0.23047323357E-01  0.88982327364E+00  0.88000000000E+00 0.  1.
        -11    1    4    4    0    0  0.44579640202E-02  0.11657377704E-01 -0.44209669405E-02  0.13250432741E-01  0.51100000000E-03 0. -1.
         11    1    4    4    0    0  0.76252378931E-01  0.89264778975E-01  0.43062484437E-02  0.11747949164E+00  0.51100000000E-03 0.  1.
</event>
<event>
 8    1  0.1177602E+005  0.1043930E+01  0.7957747E-01            NaN
         13   -1    0    0    0    0  0.00000000000E+00  0.00000000000E+00  0.74505805969E-08  0.10566000000E+00  0.10566000000E+00 0.  1.
     999900   -1    0    0    0    0 -0.00000000000E+00 -0.00000000000E+00 -0.74505805969E-08  0.93827000000E+00  0.93827000000E+00 0.  1.
     999902    2    1    2    0    0 -0.46421412382E-02 -0.26783371260E-01 -0.87684429731E-02  0.10153680665E+01  0.10149662686E+01 0.  0.
     999903    2    3    3    0    0 -0.78988912842E-01  0.45048762558E-01 -0.85005101615E-01  0.12604285829E+00  0.19806450075E-01 0.  0.
         14    1    1    2    0    0  0.46421412382E-02  0.26783371260E-01  0.87684429731E-02  0.28561933469E-01  0.00000000000E+00 0.  1.
     999901    1    3    3    0    0  0.74346771604E-01 -0.71832133818E-01  0.76236658642E-01  0.88932520824E+00  0.88000000000E+00 0. -1.
        -11    1    4    4    0    0 -0.36410841547E-01  0.24591685374E-01 -0.28419225846E-01  0.52329856586E-01  0.51100000000E-03 0.  1.
         11    1    4    4    0    0 -0.42578071296E-01  0.20457077184E-01 -0.56585875769E-01  0.73713001701E-01  0.51100000000E-03 0. -1.
</event>
<event>
 8    1  0.1177602E+005  0.1043930E+01  0.7957747E-01            NaN
         13   -1    0    0    0    0  0.00000000000E+00  0.00000000000E+00  0.74505805969E-08  0.10566000000E+00  0.10566000000E+00 0.  1.
     999900   -1    0    0    0    0 -0.00000000000E+00 -0.00000000000E+00 -0.74505805969E-08  0.93827000000E+00  0.93827000000E+00 0. -1.
     999902    2    1    2    0    0 -0.76429605527E-02  0.19972291253E-01  0.96394211559E-02  0.10204731097E+01  0.10202034806E+01 0.  0.
     999903    2    3    3    0    0  0.77209168510E-01  0.10384495647E+00  0.19432680415E-01  0.13236815207E+00  0.19966670451E-01 0.  0.
         14    1    1    2    0    0  0.76429605527E-02 -0.19972291253E-01 -0.96394211559E-02  0.23456890334E-01  0.00000000000E+00 0. -1.
     999901    1    3    3    0    0 -0.84852129062E-01 -0.83872665215E-01 -0.97932592592E-02  0.88810495759E+00  0.88000000000E+00 0. -1.
        -11    1    4    4    0    0  0.69517724617E-01  0.99299770095E-01  0.14313088560E-01  0.12205852695E+00  0.51100000000E-03 0.  1.
         11    1    4    4    0    0  0.76914438921E-02  0.45451863730E-02  0.51195918552E-02  0.10309625118E-01  0.51100000000E-03 0. -1.
</event>
<event>
 8    1  0.1177602E+005  0.1043930E+01  0.7957747E-01            NaN
         13   -1    0    0    0    0  0.00000000000E+00  0.00000000000E+00  0.74505805969E-08  0.10566000000E+00  0.10566000000E+00 0. -1.
     999900   -1    0    0    0    0 -0.00000000000E+00 -0.00000000000E+00 -0.74505805969E-08  0.93827000000E+00  0.93827000000E+00 0. -1.
     999902    2    1    2    0    0  0.11018003713E-01 -0.94853281817E-02 -0.20367345257E-01  0.10189060793E+01  0.10185987442E+01 0.  0.
     999903    2    3    3    0    0  0.66979285285E-01  0.95983895724E-02 -0.11160488759E+00  0.13221552306E+00  0.21140952281E-01 0.  0.
         14    1    1    2    0    0 -0.11018003713E-01  0.94853281817E-02  0.20367345257E-01  0.25023920743E-01  0.00000000000E+00 0. -1.
     999901    1    3    3    0    0 -0.55961281572E-01 -0.19083717754E-01  0.91237542337E-01  0.88669055620E+00  0.88000000000E+00 0.  1.
        -11    1    4    4    0    0  0.48645767394E-01 -0.21715190824E-02 -0.83349575800E-01  0.96532580446E-01  0.51100000000E-03 0. -1.
         11    1    4    4    0    0  0.18333517891E-01  0.11769908655E-01 -0.28255311794E-01  0.35682942613E-01  0.51100000000E-03 0.  1.
</event>
<event>
 8    1  0.1177602E+005  0.1043930E+01  0.7957747E-01            NaN
         13   -1    0    0    0    0  0.00000000000E+00  0.00000000000E+00  0.74505805969E-08  0.10566000000E+00  0.10566000000E+00 0. -1.
     999900   -1    0    0    0    0 -0.00000000000E+00 -0.00000000000E+00 -0.74505805969E-08  0.93827000000E+00  0.93827000000E+00 0.  1.
     999902    2    1    2    0    0 -0.16116241267E-01  0.12131979749E-01 -0.12624217878E-01  0.10201331716E+01  0.10198555774E+01 0.  0.
     999903    2    3    3    0    0  0.19299182393E-01 -0.38826136565E-01  0.11901354371E+00  0.12818054834E+00  0.19649480013E-01 0.  0.
         14    1    1    2    0    0  0.16116241267E-01 -0.12131979749E-01  0.12624217878E-01  0.23796828407E-01  0.00000000000E+00 0. -1.
     999901    1    3    3    0    0 -0.35415423660E-01  0.50958116313E-01 -0.13163776159E+00  0.89195262325E+00  0.88000000000E+00 0.  1.
        -11    1    4    4    0    0  0.61238733378E-02 -0.19280839883E-01  0.30666263011E-01  0.36741440082E-01  0.51100000000E-03 0. -1.
         11    1    4    4    0    0  0.13175309055E-01 -0.19545296681E-01  0.88347280700E-01  0.91439108258E-01  0.51100000000E-03 0.  1.
</event>
<event>
 8    1  0.1177602E+005  0.1043930E+01  0.7957747E-01            NaN
         13   -1    0    0    0    0  0.00000000000E+00  0.00000000000E+00  0.74505805969E-08  0.10566000000E+00  0.10566000000E+00 0. -1.
     999900   -1    0    0    0    0 -0.00000000000E+00 -0.00000000000E+00 -0.74505805969E-08  0.93827000000E+00  0.93827000000E+00 0.  1.
     999902    2    1    2    0    0  0.11286821831E-01 -0.18730955536E-01  0.85931053516E-02  0.10204335641E+01  0.10201630145E+01 0.  0.
     999903    2    3    3    0    0  0.11056643995E+00  0.77920675937E-02  0.69478792778E-01  0.13236432112E+00  0.20183084449E-01 0.  0.
         14    1    1    2    0    0 -0.11286821831E-01  0.18730955536E-01 -0.85931053516E-02  0.23496435941E-01  0.00000000000E+00 0.  1.
     999901    1    3    3    0    0 -0.99279618119E-01 -0.26523023130E-01 -0.60885687426E-01  0.88806924294E+00  0.88000000000E+00 0.  1.
        -11    1    4    4    0    0  0.39777468587E-01 -0.68291077517E-02  0.25954349090E-01  0.47987217856E-01  0.51100000000E-03 0. -1.
         11    1    4    4    0    0  0.70788971363E-01  0.14621175345E-01  0.43524443687E-01  0.84377103259E-01  0.51100000000E-03 0.  1.
</event>
<event>
 8    1  0.1177602E+005  0.1043930E+01  0.7957747E-01            NaN
         13   -1    0    0    0    0  0.00000000000E+00  0.00000000000E+00  0.74505805969E-08  0.10566000000E+00  0.10566000000E+00 0. -1.
     999900   -1    0    0    0    0 -0.00000000000E+00 -0.00000000000E+00 -0.74505805969E-08  0.93827000000E+00  0.93827000000E+00 0. -1.
     999902    2    1    2    0    0  0.75811946150E-02  0.62156254911E-02 -0.21781762861E-01  0.10200437340E+01  0.10197640244E+01 0.  0.
     999903    2    3    3    0    0 -0.56893615093E-01  0.11142811448E+00 -0.35033396269E-01  0.13133552835E+00  0.19198281624E-01 0.  0.
         14    1    1    2    0    0 -0.75811946150E-02 -0.62156254911E-02  0.21781762861E-01  0.23886266041E-01  0.00000000000E+00 0. -1.
     999901    1    3    3    0    0  0.64474809708E-01 -0.10521248899E+00  0.13251633408E-01  0.88870820561E+00  0.88000000000E+00 0.  1.
        -11    1    4    4    0    0 -0.27392681186E-01  0.65027777737E-01 -0.11373228589E-01  0.71474347213E-01  0.51100000000E-03 0. -1.
         11    1    4    4    0    0 -0.29500933907E-01  0.46400336747E-01 -0.23660167680E-01  0.59861181139E-01  0.51100000000E-03 0.  1.
</event>
<event>
 8    1  0.1177602E+005  0.1043930E+01  0.7957747E-01            NaN
         13   -1    0    0    0    0  0.00000000000E+00  0.00000000000E+00  0.74505805969E-08  0.10566000000E+00  0.10566000000E+00 0.  1.
     999900   -1    0    0    0    0 -0.00000000000E+00 -0.00000000000E+00 -0.74505805969E-08  0.93827000000E+00  0.93827000000E+00 0. -1.
     999902    2    1    2    0    0  0.18106842722E-01 -0.61578080637E-02 -0.12801745392E-01  0.10209156341E+01  0.10206561962E+01 0.  0.
     999903    2    3    3    0    0 -0.11555065483E+00 -0.42251131212E-01 -0.36133294947E-01  0.12978634165E+00  0.20044140122E-01 0.  0.
         14    1    1    2    0    0 -0.18106842722E-01  0.61578080637E-02  0.12801745392E-01  0.23014365918E-01  0.00000000000E+00 0.  1.
     999901    1    3    3    0    0  0.13365749756E+00  0.36093323149E-01  0.23331549555E-01  0.89112929243E+00  0.88000000000E+00 0.  1.
        -11    1    4    4    0    0 -0.45086920539E-01 -0.14572937322E-01 -0.40399170375E-02  0.47558205985E-01  0.51100000000E-03 0. -1.
         11    1    4    4    0    0 -0.70463734296E-01 -0.27678193891E-01 -0.32093377910E-01  0.82228135663E-01  0.51100000000E-03 0.  1.
</event>
<event>
 8    1  0.1177602E+005  0.1043930E+01  0.7957747E-01            NaN
         13   -1    0    0    0    0  0.00000000000E+00  0.00000000000E+00  0.74505805969E-08  0.10566000000E+00  0.10566000000E+00 0.  1.
     999900   -1    0    0    0    0 -0.00000000000E+00 -0.00000000000E+00 -0.74505805969E-08  0.93827000000E+00  0.93827000000E+00 0. -1.
     999902    2    1    2    0    0  0.15293819170E-01  0.11252842776E-01  0.14282868140E-01  0.10201702084E+01  0.10198934878E+01 0.  0.
     999903    2    3    3    0    0 -0.18468487373E-01 -0.25759992950E-01 -0.12253968485E+00  0.12818912430E+00  0.20293224545E-01 0.  0.
         14    1    1    2    0    0 -0.15293819170E-01 -0.11252842776E-01 -0.14282868140E-01  0.23759791616E-01  0.00000000000E+00 0. -1.
     999901    1    3    3    0    0  0.33762306542E-01  0.37012835726E-01  0.13682255299E+00  0.89198108408E+00  0.88000000000E+00 0.  1.
        -11    1    4    4    0    0 -0.12250802835E-01 -0.24872543779E-01 -0.70314594275E-01  0.75585242563E-01  0.51100000000E-03 0.  1.
         11    1    4    4    0    0 -0.62176845378E-02 -0.88744917078E-03 -0.52225090579E-01  0.52603881739E-01  0.51100000000E-03 0. -1.
</event>
<event>
 8    1  0.1773699E+005  0.1043930E+01  0.7957747E-01            NaN
         13   -1    0    0    0    0  0.00000000000E+00  0.00000000000E+00  0.74505805969E-08  0.10566000000E+00  0.10566000000E+00 0. -1.
     999900   -1    0    0    0    0 -0.00000000000E+00 -0.00000000000E+00 -0.74505805969E-08  0.93827000000E+00  0.93827000000E+00 0. -1.
     999902    2    1    2    0    0 -0.22957859884E-01  0.14558797364E-02  0.50403806282E-02  0.10203803004E+01  0.10201085084E+01 0.  0.
     999903    2    3    3    0    0 -0.11806837371E+00  0.58503311596E-01  0.32926054603E-02  0.13341723797E+00  0.20652840006E-01 0.  0.
         14    1    1    2    0    0  0.22957859884E-01 -0.14558797364E-02 -0.50403806282E-02  0.23549699640E-01  0.00000000000E+00 0.  1.
     999901    1    3    3    0    0  0.95110513821E-01 -0.57047431860E-01  0.17477751680E-02  0.88696306239E+00  0.88000000000E+00 0.  1.
        -11    1    4    4    0    0 -0.53626413117E-01  0.25820526361E-01  0.11738493988E-01  0.60667496466E-01  0.51100000000E-03 0.  1.
         11    1    4    4    0    0 -0.64441960589E-01  0.32682785235E-01 -0.84458885278E-02  0.72749741507E-01  0.51100000000E-03 0. -1.
</event>
<event>
 8    1  0.1177602E+005  0.1043930E+01  0.7957747E-01            NaN
         13   -1    0    0    0    0  0.00000000000E+00  0.00000000000E+00  0.74505805969E-08  0.10566000000E+00  0.10566000000E+00 0.  1.
     999900   -1    0    0    0    0 -0.00000000000E+00 -0.00000000000E+00 -0.74505805969E-08  0.93827000000E+00  0.93827000000E+00 0.  1.
     999902    2    1    2    0    0  0.18482736498E-01  0.65465593780E-02  0.13354093245E-01  0.10202065771E+01  0.10199307129E+01 0.  0.
     999903    2    3    3    0    0 -0.13415396269E-01  0.92525380314E-01  0.91292075644E-01  0.13201505629E+00  0.18783321118E-01 0.  0.
         14    1    1    2    0    0 -0.18482736498E-01 -0.65465593780E-02 -0.13354093245E-01  0.23723422909E-01  0.00000000000E+00 0. -1.
     999901    1    3    3    0    0  0.31898132768E-01 -0.85978820936E-01 -0.77937982400E-01  0.88819152080E+00  0.88000000000E+00 0.  1.
        -11    1    4    4    0    0 -0.89679918233E-02  0.60227151329E-01  0.71313457139E-01  0.93774223135E-01  0.51100000000E-03 0.  1.
         11    1    4    4    0    0 -0.44474044462E-02  0.32298228985E-01  0.19978618505E-01  0.38240833153E-01  0.51100000000E-03 0. -1.
</event>
<event>
 8    1  0.1177602E+005  0.1043930E+01  0.7957747E-01            NaN
         13   -1    0    0    0    0  0.00000000000E+00  0.00000000000E+00  0.74505805969E-08  0.10566000000E+00  0.10566000000E+00 0.  1.
     999900   -1    0    0    0    0 -0.00000000000E+00 -0.00000000000E+00 -0.74505805969E-08  0.93827000000E+00  0.93827000000E+00 0.  1.
     999902    2    1    2    0    0  0.93552280592E-02  0.77136745974E-02 -0.20111353986E-01  0.10204462263E+01  0.10201759717E+01 0.  0.
     999903    2    3    3    0    0  0.67321059277E-01  0.10714564042E+00 -0.34989876124E-01  0.13282686879E+00  0.20158679485E-01 0.  0.
         14    1    1    2    0    0 -0.93552280592E-02 -0.77136745974E-02  0.20111353986E-01  0.23483773695E-01  0.00000000000E+00 0.  1.
     999901    1    3    3    0    0 -0.57965831217E-01 -0.99431965820E-01  0.14878522138E-01  0.88761935752E+00  0.88000000000E+00 0. -1.
        -11    1    4    4    0    0  0.11562509840E-01  0.21503858327E-01  0.11032575485E-02  0.24445569230E-01  0.51100000000E-03 0.  1.
         11    1    4    4    0    0  0.55758549436E-01  0.85641782090E-01 -0.36093133672E-01  0.10838129956E+00  0.51100000000E-03 0. -1.
</event>
<event>
 8    1  0.1177602E+005  0.1043930E+01  0.7957747E-01            NaN
         13   -1    0    0    0    0  0.00000000000E+00  0.00000000000E+00  0.74505805969E-08  0.10566000000E+00  0.10566000000E+00 0. -1.
     999900   -1    0    0    0    0 -0.00000000000E+00 -0.00000000000E+00 -0.74505805969E-08  0.93827000000E+00  0.93827000000E+00 0.  1.
     999902    2    1    2    0    0  0.78553135140E-02  0.52888564557E-04 -0.23053788763E-01  0.10195745915E+01  0.10192836512E+01 0.  0.
     999903    2    3    3    0    0  0.10713433037E-01  0.12198795473E+00 -0.41641187408E-01  0.13096791776E+00  0.20561328885E-01 0.  0.
         14    1    1    2    0    0 -0.78553135140E-02 -0.52888564557E-04  0.23053788763E-01  0.24355408515E-01  0.00000000000E+00 0. -1.
     999901    1    3    3    0    0 -0.28581195229E-02 -0.12193506617E+00  0.18587398645E-01  0.88860667373E+00  0.88000000000E+00 0. -1.
        -11    1    4    4    0    0  0.78462237533E-02  0.44250784442E-01 -0.24953103188E-01  0.51406357881E-01  0.51100000000E-03 0. -1.
         11    1    4    4    0    0  0.28672092836E-02  0.77737170290E-01 -0.16688084220E-01  0.79561559874E-01  0.51100000000E-03 0.  1.
</event>
<event>
 8    1  0.1177602E+005  0.1043930E+01  0.7957747E-01            NaN
         13   -1    0    0    0    0  0.00000000000E+00  0.00000000000E+00  0.74505805969E-08  0.10566000000E+00  0.10566000000E+00 0.  1.
     999900   -1    0    0    0    0 -0.00000000000E+00 -0.00000000000E+00 -0.74505805969E-08  0.93827000000E+00  0.93827000000E+00 0.  1.
     999902    2    1    2    0    0 -0.18427346321E-01 -0.83511412343E-02 -0.12695966814E-01  0.10200449372E+01  0.10197652561E+01 0.  0.
     999903    2    3    3    0    0  0.63662116163E-01 -0.54959253510E-01  0.95021445389E-01  0.12846541921E+00  0.20022593939E-01 0.  0.
         14    1    1    2    0    0  0.18427346321E-01  0.83511412343E-02  0.12695966814E-01  0.23885062815E-01  0.00000000000E+00 0.  1.
     999901    1    3    3    0    0 -0.82089462484E-01  0.46608112276E-01 -0.10771741220E+00  0.89157951798E+00  0.88000000000E+00 0.  1.
        -11    1    4    4    0    0  0.37746868641E-01 -0.37573799019E-01  0.46132744823E-01  0.70463520568E-01  0.51100000000E-03 0.  1.
         11    1    4    4    0    0  0.25915247522E-01 -0.17385454491E-01  0.48888700566E-01  0.58001898642E-01  0.51100000000E-03 0. -1.
</event>
<event>
 8    1  0.1177602E+005  0.1043930E+01  0.7957747E-01            NaN
         13   -1    0    0    0    0  0.00000000000E+00  0.00000000000E+00  0.74505805969E-08  0.10566000000E+00  0.10566000000E+00 0.  1.
     999900   -1    0    0    0    0 -0.00000000000E+00 -0.00000000000E+00 -0.74505805969E-08  0.93827000000E+00  0.93827000000E+00 0. -1.
     999902    2    1    2    0    0 -0.20469286485E-01 -0.17561298223E-01  0.83521454560E-02  0.10156961689E+01  0.10153036779E+01 0.  0.
     999903    2    3    3    0    0 -0.73339794946E-01 -0.59356250768E-01 -0.84376027227E-01  0.12826131342E+00  0.20730666216E-01 0.  0.
         14    1    1    2    0    0  0.20469286485E-01  0.17561298223E-01 -0.83521454560E-02  0.28233831093E-01  0.00000000000E+00 0. -1.
     999901    1    3    3    0    0  0.52870508462E-01  0.41794952544E-01  0.92728172683E-01  0.88743485549E+00  0.88000000000E+00 0.  1.
        -11    1    4    4    0    0 -0.58393114601E-01 -0.40134786229E-01 -0.52709221534E-01  0.88312400342E-01  0.51100000000E-03 0. -1.
         11    1    4    4    0    0 -0.14946680346E-01 -0.19221464539E-01 -0.31666805693E-01  0.39948913079E-01  0.51100000000E-03 0.  1.
</event>
<event>
 8    1  0.1177602E+005  0.1043930E+01  0.7957747E-01            NaN
         13   -1    0    0    0    0  0.00000000000E+00  0.00000000000E+00  0.74505805969E-08  0.10566000000E+00  0.10566000000E+00 0.  1.
     999900   -1    0    0    0    0 -0.00000000000E+00 -0.00000000000E+00 -0.74505805969E-08  0.93827000000E+00  0.93827000000E+00 0. -1.
     999902    2    1    2    0    0  0.11680703945E-01  0.12963858454E-01  0.16133579980E-01  0.10201646287E+01  0.10198877765E+01 0.  0.
     999903    2    3    3    0    0 -0.54702347760E-01 -0.98983226331E-01  0.60110413809E-01  0.12950598405E+00  0.19196669305E-01 0.  0.
         14    1    1    2    0    0 -0.11680703945E-01 -0.12963858454E-01 -0.16133579980E-01  0.23765371313E-01  0.00000000000E+00 0. -1.
     999901    1    3    3    0    0  0.66383051705E-01  0.11194708478E+00 -0.43976833828E-01  0.89065864463E+00  0.88000000000E+00 0. -1.
        -11    1    4    4    0    0 -0.26212096848E-01 -0.65192865102E-01  0.40968715361E-01  0.81338062681E-01  0.51100000000E-03 0. -1.
         11    1    4    4    0    0 -0.28490250912E-01 -0.33790361229E-01  0.19141698448E-01  0.48167921374E-01  0.51100000000E-03 0.  1.
</event>
<event>
 8    1  0.1177602E+005  0.1043930E+01  0.7957747E-01            NaN
         13   -1    0    0    0    0  0.00000000000E+00  0.00000000000E+00  0.74505805969E-08  0.10566000000E+00  0.10566000000E+00 0. -1.
     999900   -1    0    0    0    0 -0.00000000000E+00 -0.00000000000E+00 -0.74505805969E-08  0.93827000000E+00  0.93827000000E+00 0.  1.
     999902    2    1    2    0    0 -0.16279855165E-02 -0.70750216306E-02 -0.17800180867E-01  0.10247062463E+01  0.10245259091E+01 0.  0.
     999903    2    3    3    0    0  0.10636927233E+00 -0.51881288223E-01 -0.63699594824E-01  0.13578680931E+00  0.19347584833E-01 0.  0.
         14    1    1    2    0    0  0.16279855165E-02  0.70750216306E-02  0.17800180867E-01  0.19223753712E-01  0.00000000000E+00 0. -1.
     999901    1    3    3    0    0 -0.10799725785E+00  0.44806266592E-01  0.45899413958E-01  0.88891943697E+00  0.88000000000E+00 0.  1.
        -11    1    4    4    0    0  0.41480435910E-01 -0.30771032035E-01 -0.28946123577E-01  0.59208294747E-01  0.51100000000E-03 0.  1.
         11    1    4    4    0    0  0.64888836421E-01 -0.21110256188E-01 -0.34753471247E-01  0.76578514566E-01  0.51100000000E-03 0. -1.
</event>
<event>
 8    1  0.1177602E+005  0.1043930E+01  0.7957747E-01            NaN
         13   -1    0    0    0    0  0.00000000000E+00  0.00000000000E+00  0.74505805969E-08  0.10566000000E+00  0.10566000000E+00 0. -1.
     999900   -1    0    0    0    0 -0.00000000000E+00 -0.00000000000E+00 -0.74505805969E-08  0.93827000000E+00  0.93827000000E+00 0.  1.
     999902    2    1    2    0    0  0.12830087890E-01  0.68617254728E-03  0.19909768516E-01  0.10202344124E+01  0.10199592028E+01 0.  0.
     999903    2    3    3    0    0 -0.12570176332E+00 -0.18500736853E-01 -0.14059898294E-01  0.12854323856E+00  0.13508252045E-01 0.  0.
         14    1    1    2    0    0 -0.12830087890E-01 -0.68617254728E-03 -0.19909768516E-01  0.23695587572E-01  0.00000000000E+00 0.  1.
     999901    1    3    3    0    0  0.13853185121E+00  0.19186909400E-01  0.33969666810E-01  0.89169117387E+00  0.88000000000E+00 0. -1.
        -11    1    4    4    0    0 -0.10356254907E+00 -0.12186564160E-01 -0.72517125067E-02  0.10453019837E+00  0.51100000000E-03 0. -1.
         11    1    4    4    0    0 -0.22139214246E-01 -0.63141726928E-02 -0.68081857875E-02  0.24013040185E-01  0.51100000000E-03 0.  1.
</event>
<event>
 8    1  0.1177602E+005  0.1043930E+01  0.7957747E-01            NaN
         13   -1    0    0    0    0  0.00000000000E+00  0.00000000000E+00  0.74505805969E-08  0.10566000000E+00  0.10566000000E+00 0. -1.
     999900   -1    0    0    0    0 -0.00000000000E+00 -0.00000000000E+00 -0.74505805969E-08  0.93827000000E+00  0.93827000000E+00 0.  1.
     999902    2    1    2    0    0 -0.17602709607E-01  0.14683255028E-01 -0.80007476526E-02  0.10196510930E+01  0.10193619995E+01 0.  0.
     999903    2    3    3    0    0 -0.16115290046E-01 -0.40889693627E-01  0.11990225826E+00  0.12866863300E+00  0.15728825915E-01 0.  0.
         14    1    1    2    0    0  0.17602709607E-01 -0.14683255028E-01  0.80007476526E-02  0.24278907033E-01  0.00000000000E+00 0. -1.
     999901    1    3    3    0    0 -0.14874195610E-02  0.55572948655E-01 -0.12790300591E+00  0.89098245996E+00  0.88000000000E+00 0.  1.
        -11    1    4    4    0    0 -0.85713547570E-02 -0.27410436614E-01  0.56158735467E-01  0.63078243856E-01  0.51100000000E-03 0. -1.
         11    1    4    4    0    0 -0.75439352889E-02 -0.13479257013E-01  0.63743522795E-01  0.65590389148E-01  0.51100000000E-03 0.  1.
</event>
<event>
 8    1  0.1177602E+005  0.1043930E+01  0.7957747E-01            NaN
         13   -1    0    0    0    0  0.00000000000E+00  0.00000000000E+00  0.74505805969E-08  0.10566000000E+00  0.10566000000E+00 0.  1.
     999900   -1    0    0    0    0 -0.00000000000E+00 -0.00000000000E+00 -0.74505805969E-08  0.93827000000E+00  0.93827000000E+00 0.  1.
     999902    2    1    2    0    0 -0.10792540851E-01 -0.46535989716E-02 -0.20738578247E-01  0.10200925599E+01  0.10198140062E+01 0.  0.
     999903    2    3    3    0    0 -0.73139574346E-01  0.85883497311E-01  0.60427357362E-01  0.12954664450E+00  0.20136909815E-01 0.  0.
         14    1    1    2    0    0  0.10792540851E-01  0.46535989716E-02  0.20738578247E-01  0.23837440071E-01  0.00000000000E+00 0.  1.
     999901    1    3    3    0    0  0.62347033495E-01 -0.90537096283E-01 -0.81165935609E-01  0.89054591543E+00  0.88000000000E+00 0. -1.
        -11    1    4    4    0    0 -0.57688485144E-01  0.58152509666E-01  0.35942222261E-01  0.89452669948E-01  0.51100000000E-03 0. -1.
         11    1    4    4    0    0 -0.15451089202E-01  0.27730987645E-01  0.24485135101E-01  0.40093974550E-01  0.51100000000E-03 0.  1.
</event>
<event>
 8    1  0.1177602E+005  0.1043930E+01  0.7957747E-01            NaN
         13   -1    0    0    0    0  0.00000000000E+00  0.00000000000E+00  0.74505805969E-08  0.10566000000E+00  0.10566000000E+00 0.  1.
     999900   -1    0    0    0    0 -0.00000000000E+00 -0.00000000000E+00 -0.74505805969E-08  0.93827000000E+00  0.93827000000E+00 0. -1.
     999902    2    1    2    0    0 -0.93365399224E-02 -0.21217940420E-01 -0.46611647550E-02  0.10202847377E+01  0.10200107095E+01 0.  0.
     999903    2    3    3    0    0 -0.61573513443E-01  0.87690161926E-01 -0.69393397055E-01  0.12967823756E+00  0.22806571085E-01 0.  0.
         14    1    1    2    0    0  0.93365399224E-02  0.21217940420E-01  0.46611647550E-02  0.23645262322E-01  0.00000000000E+00 0.  1.
     999901    1    3    3    0    0  0.52236973521E-01 -0.10890810235E+00  0.64732232300E-01  0.89060650012E+00  0.88000000000E+00 0.  1.
        -11    1    4    4    0    0 -0.12765570361E-01  0.36106759194E-01 -0.28384834728E-01  0.47671981390E-01  0.51100000000E-03 0.  1.
         11    1    4    4    0    0 -0.48807943083E-01  0.51583402732E-01 -0.41008562327E-01  0.82006256167E-01  0.51100000000E-03 0. -1.
</event>
<event>
 8    1  0.1177602E+005  0.1043930E+01  0.7957747E-01            NaN
         13   -1    0    0    0    0  0.00000000000E+00  0.00000000000E+00  0.74505805969E-08  0.10566000000E+00  0.10566000000E+00 0. -1.
     999900   -1    0    0    0    0 -0.00000000000E+00 -0.00000000000E+00 -0.74505805969E-08  0.93827000000E+00  0.93827000000E+00 0.  1.
     999902    2    1    2    0    0  0.16062908211E-01  0.36974960307E-02  0.15188511334E-01  0.10215161790E+01  0.10212702505E+01 0.  0.
     999903    2    3    3    0    0 -0.98653498334E-01  0.23483438915E-03  0.84394051390E-01  0.13136942099E+00  0.20074884297E-01 0.  0.
         14    1    1    2    0    0 -0.16062908211E-01 -0.36974960307E-02 -0.15188511334E-01  0.22413821040E-01  0.00000000000E+00 0.  1.
     999901    1    3    3    0    0  0.11471640655E+00  0.34626616415E-02 -0.69205540056E-01  0.89014675797E+00  0.88000000000E+00 0. -1.
        -11    1    4    4    0    0 -0.51302840200E-01  0.10104302088E-01  0.44921136749E-01  0.68936550400E-01  0.51100000000E-03 0. -1.
         11    1    4    4    0    0 -0.47350658134E-01 -0.98694676984E-02  0.39472914641E-01  0.62432870586E-01  0.51100000000E-03 0.  1.
</event>
<event>
 8    1  0.1177602E+005  0.1043930E+01  0.7957747E-01            NaN
         13   -1    0    0    0    0  0.00000000000E+00  0.00000000000E+00  0.74505805969E-08  0.10566000000E+00  0.10566000000E+00 0.  1.
     999900   -1    0    0    0    0 -0.00000000000E+00 -0.00000000000E+00 -0.74505805969E-08  0.93827000000E+00  0.93827000000E+00 0.  1.
     999902    2    1    2    0    0 -0.29588533174E-02 -0.10625355411E-01  0.20587379449E-01  0.10205742045E+01  0.10203069213E+01 0.  0.
     999903    2    3    3    0    0  0.64656582954E-01 -0.10556274120E+00  0.43263549063E-01  0.13259945086E+00  0.19670120554E-01 0.  0.
         14    1    1    2    0    0  0.29588533174E-02  0.10625355411E-01 -0.20587379449E-01  0.23355795494E-01  0.00000000000E+00 0. -1.
     999901    1    3    3    0    0 -0.67615436271E-01  0.94937385788E-01 -0.22676169614E-01  0.88797475364E+00  0.88000000000E+00 0.  1.
        -11    1    4    4    0    0  0.28877509742E-01 -0.43434682074E-01  0.82445609223E-02  0.52808295575E-01  0.51100000000E-03 0.  1.
         11    1    4    4    0    0  0.35779073212E-01 -0.62128059125E-01  0.35018988141E-01  0.79791155286E-01  0.51100000000E-03 0. -1.
</event>
<event>
 8    1  0.1177602E+005  0.1043930E+01  0.7957747E-01            NaN
         13   -1    0    0    0    0  0.00000000000E+00  0.00000000000E+00  0.74505805969E-08  0.10566000000E+00  0.10566000000E+00 0. -1.
     999900   -1    0    0    0    0 -0.00000000000E+00 -0.00000000000E+00 -0.74505805969E-08  0.93827000000E+00  0.93827000000E+00 0. -1.
     999902    2    1    2    0    0  0.23975850611E-01 -0.33246963355E-02  0.63717947626E-02  0.10189001221E+01  0.10185926389E+01 0.  0.
     999903    2    3    3    0    0  0.75672821043E-01  0.82162248069E-01 -0.64199445756E-01  0.13044027812E+00  0.20398197655E-01 0.  0.
         14    1    1    2    0    0 -0.23975850611E-01  0.33246963355E-02 -0.63717947626E-02  0.25029877881E-01  0.00000000000E+00 0.  1.
     999901    1    3    3    0    0 -0.51696970432E-01 -0.85486944405E-01  0.70571240518E-01  0.88845984400E+00  0.88000000000E+00 0.  1.
        -11    1    4    4    0    0  0.18017279317E-01  0.15235250311E-01 -0.50702566529E-02  0.24139259093E-01  0.51100000000E-03 0.  1.
         11    1    4    4    0    0  0.57655541726E-01  0.66926997758E-01 -0.59129189103E-01  0.10630101902E+00  0.51100000000E-03 0. -1.
</event>
<event>
 8    1  0.1177602E+005  0.1043930E+01  0.7957747E-01            NaN
         13   -1    0    0    0    0  0.00000000000E+00  0.00000000000E+00  0.74505805969E-08  0.10566000000E+00  0.10566000000E+00 0.  1.
     999900   -1    0    0    0    0 -0.00000000000E+00 -0.00000000000E+00 -0.74505805969E-08  0.93827000000E+00  0.93827000000E+00 0.  1.
     999902    2    1    2    0    0  0.21447663881E-01 -0.10550430154E-01 -0.80877979952E-03  0.10200141478E+01  0.10197337367E+01 0.  0.
     999903    2    3    3    0    0 -0.77804055957E-01 -0.84147037168E-01 -0.57328938151E-01  0.12958622103E+00  0.19281767104E-01 0.  0.
         14    1    1    2    0    0 -0.21447663881E-01  0.10550430154E-01  0.80877979952E-03  0.23915852214E-01  0.00000000000E+00 0. -1.
     999901    1    3    3    0    0  0.99251719837E-01  0.73596607015E-01  0.56520158351E-01  0.89042792676E+00  0.88000000000E+00 0.  1.
        -11    1    4    4    0    0 -0.51077224698E-01 -0.43138334479E-01 -0.38403984267E-01  0.77103345667E-01  0.51100000000E-03 0.  1.
         11    1    4    4    0    0 -0.26726831258E-01 -0.41008702689E-01 -0.18924953884E-01  0.52482875358E-01  0.51100000000E-03 0. -1.
</event>
<event>
 8    1  0.1177602E+005  0.1043930E+01  0.7957747E-01            NaN
         13   -1    0    0    0    0  0.00000000000E+00  0.00000000000E+00  0.74505805969E-08  0.10566000000E+00  0.10566000000E+00 0. -1.
     999900   -1    0    0    0    0 -0.00000000000E+00 -0.00000000000E+00 -0.74505805969E-08  0.93827000000E+00  0.93827000000E+00 0.  1.
     999902    2    1    2    0    0 -0.20941137260E-01  0.72396800578E-02 -0.10524304692E-01  0.10194003203E+01  0.10191051505E+01 0.  0.
     999903    2    3    3    0    0  0.97562650853E-01  0.80956963971E-01  0.20167865020E-02  0.12831409287E+00  0.19696145407E-01 0.  0.
         14    1    1    2    0    0  0.20941137260E-01 -0.72396800578E-02  0.10524304692E-01  0.24529679703E-01  0.00000000000E+00 0. -1.
     999901    1    3    3    0    0 -0.11850378811E+00 -0.73717283913E-01 -0.12541091194E-01  0.89108622743E+00  0.88000000000E+00 0.  1.
        -11    1    4    4    0    0  0.65194305579E-02  0.10995094044E-01  0.42241524507E-02  0.13472180698E-01  0.51100000000E-03 0. -1.
         11    1    4    4    0    0  0.91043220295E-01  0.69961869926E-01 -0.22073659487E-02  0.11484191217E+00  0.51100000000E-03 0.  1.
</event>
<event>
 8    1  0.1177602E+005  0.1043930E+01  0.7957747E-01            NaN
         13   -1    0    0    0    0  0.00000000000E+00  0.00000000000E+00  0.74505805969E-08  0.10566000000E+00  0.10566000000E+00 0.  1.
     999900   -1    0    0    0    0 -0.00000000000E+00 -0.00000000000E+00 -0.74505805969E-08  0.93827000000E+00  0.93827000000E+00 0. -1.
     999902    2    1    2    0    0  0.22518072600E-01 -0.52547797246E-02  0.76398980654E-02  0.10195774982E+01  0.10192866282E+01 0.  0.
     999903    2    3    3    0    0  0.12195312634E+00  0.17688872662E-01 -0.43337762190E-01  0.13221485361E+00  0.20424119143E-01 0.  0.
         14    1    1    2    0    0 -0.22518072600E-01  0.52547797246E-02 -0.76398980654E-02  0.24352501843E-01  0.00000000000E+00 0.  1.
     999901    1    3    3    0    0 -0.99435053740E-01 -0.22943652387E-01  0.50977660255E-01  0.88736264455E+00  0.88000000000E+00 0. -1.
        -11    1    4    4    0    0  0.43135216538E-01  0.18464670793E-03 -0.23286411091E-01  0.49022434280E-01  0.51100000000E-03 0. -1.
         11    1    4    4    0    0  0.78817909801E-01  0.17504225954E-01 -0.20051351099E-01  0.83192419328E-01  0.51100000000E-03 0.  1.
</event>
<event>
 8    1  0.1177602E+005  0.1043930E+01  0.7957747E-01            NaN
         13   -1    0    0    0    0  0.00000000000E+00  0.00000000000E+00  0.74505805969E-08  0.10566000000E+00  0.10566000000E+00 0.  1.
     999900   -1    0    0    0    0 -0.00000000000E+00 -0.00000000000E+00 -0.74505805969E-08  0.93827000000E+00  0.93827000000E+00 0.  1.
     999902    2    1    2    0    0  0.16741378394E-01 -0.11467333184E-01 -0.11862059698E-01  0.10204250656E+01  0.10201543180E+01 0.  0.
     999903    2    3    3    0    0  0.93598905136E-01 -0.23930069234E-01 -0.89831552347E-01  0.13355323665E+00  0.20817203593E-01 0.  0.
         14    1    1    2    0    0 -0.16741378394E-01  0.11467333184E-01  0.11862059698E-01  0.23504934400E-01  0.00000000000E+00 0. -1.
     999901    1    3    3    0    0 -0.76857526742E-01  0.12462736051E-01  0.77969492649E-01  0.88687182895E+00  0.88000000000E+00 0. -1.
        -11    1    4    4    0    0  0.74707970973E-01 -0.10546955869E-01 -0.72405355136E-01  0.10457206022E+00  0.51100000000E-03 0.  1.
         11    1    4    4    0    0  0.18890934163E-01 -0.13383113365E-01 -0.17426197211E-01  0.28981176428E-01  0.51100000000E-03 0. -1.
</event>
<event>
 8    1  0.1177602E+005  0.1043930E+01  0.7957747E-01            NaN
         13   -1    0    0    0    0  0.00000000000E+00  0.00000000000E+00  0.74505805969E-08  0.10566000000E+00  0.10566000000E+00 0.  1.
     999900   -1    0    0    0    0 -0.00000000000E+00 -0.00000000000E+00 -0.74505805969E-08  0.93827000000E+00  0.93827000000E+00 0. -1.
     999902    2    1    2    0    0  0.11706980725E-01 -0.15128577158E-01  0.13517489923E-01  0.10205067257E+01  0.10202378779E+01 0.  0.
     999903    2    3    3    0    0 -0.76894260174E-02 -0.66143480219E-01  0.11355290245E+00  0.13315909108E+00  0.20074726270E-01 0.  0.
         14    1    1    2    0    0 -0.11706980725E-01  0.15128577158E-01 -0.13517489923E-01  0.23423274287E-01  0.00000000000E+00 0. -1.
     999901    1    3    3    0    0  0.19396406743E-01  0.51014903061E-01 -0.10003541253E+00  0.88734763463E+00  0.88000000000E+00 0. -1.
        -11    1    4    4    0    0  0.64566601807E-02 -0.13156654337E-01  0.22159580104E-01  0.26572431681E-01  0.51100000000E-03 0.  1.
         11    1    4    4    0    0 -0.14146086198E-01 -0.52986825882E-01  0.91393322344E-01  0.10658665940E+00  0.51100000000E-03 0. -1.
</event>
<event>
 8    1  0.1177602E+005  0.1043930E+01  0.7957747E-01            NaN
         13   -1    0    0    0    0  0.00000000000E+00  0.00000000000E+00  0.74505805969E-08  0.10566000000E+00  0.10566000000E+00 0.  1.
     999900   -1    0    0    0    0 -0.00000000000E+00 -0.00000000000E+00 -0.74505805969E-08  0.93827000000E+00  0.93827000000E+00 0.  1.
     999902    2    1    2    0    0 -0.17904317755E-01  0.14738499321E-01  0.45693534476E-02  0.10202938635E+01  0.10200200493E+01 0.  0.
     999903    2    3    3    0    0  0.19277574419E-01 -0.48888490962E-01  0.11731710621E+00  0.13004505406E+00  0.19664771858E-01 0.  0.
         14    1    1    2    0    0  0.17904317755E-01 -0.14738499321E-01 -0.45693534476E-02  0.23636136474E-01  0.00000000000E+00 0. -1.
     999901    1    3    3    0    0 -0.37181892174E-01  0.63626990283E-01 -0.11274775276E+00  0.89024880946E+00  0.88000000000E+00 0.  1.
        -11    1    4    4    0    0  0.17157151731E-01 -0.37874262654E-01  0.10700318172E+00  0.11479882249E+00  0.51100000000E-03 0. -1.
         11    1    4    4    0    0  0.21204226883E-02 -0.11014228308E-01  0.10313924493E-01  0.15246231569E-01  0.51100000000E-03 0.  1.
</event>
<event>
 7    1  0.1177602E+005  0.1043930E+01  0.7957747E-01            NaN
         13   -1    0    0    0    0  0.00000000000E+00  0.00000000000E+00  0.74505805969E-08  0.10566000000E+00  0.10566000000E+00 0. -1.
     999900   -1    0    0    0    0 -0.00000000000E+00 -0.00000000000E+00 -0.74505805969E-08  0.93827000000E+00  0.93827000000E+00 0. -1.
     999902    2    1    2    0    0 -0.89985423727E-02  0.87351936760E-02  0.20253815218E-01  0.10201078589E+01  0.10198296669E+01 0.  0.
         14    1    1    2    0    0  0.89985423727E-02 -0.87351936760E-02 -0.20253815218E-01  0.23822141052E-01  0.00000000000E+00 0.  1.
     999901    1    3    3    0    0  0.74143656400E-01  0.23589460337E-01 -0.74822779728E-01  0.88659584524E+00  0.88000000000E+00 0.  1.
        -11    1    3    3    0    0 -0.50950560443E-01  0.11279701562E-01  0.55692356619E-01  0.76322283663E-01  0.51100000000E-03 0. -1.
         11    1    3    3    0    0 -0.32191638330E-01 -0.26133968223E-01  0.39384238328E-01  0.57189730049E-01  0.51100000000E-03 0.  1.
</event>
<event>
 7    1  0.1177602E+005  0.1043930E+01  0.7957747E-01            NaN
         13   -1    0    0    0    0  0.00000000000E+00  0.00000000000E+00  0.74505805969E-08  0.10566000000E+00  0.10566000000E+00 0. -1.
     999900   -1    0    0    0    0 -0.00000000000E+00 -0.00000000000E+00 -0.74505805969E-08  0.93827000000E+00  0.93827000000E+00 0. -1.
     999902    2    1    2    0    0  0.13743589564E-01 -0.13229430976E-01 -0.15386549989E-01  0.10194218377E+01  0.10191271919E+01 0.  0.
         14    1    1    2    0    0 -0.13743589564E-01  0.13229430976E-01  0.15386549989E-01  0.24508162286E-01  0.00000000000E+00 0.  1.
     999901    1    3    3    0    0  0.10078882379E+00 -0.80675996233E-01 -0.66621947805E-01  0.89191114316E+00  0.88000000000E+00 0. -1.
        -11    1    3    3    0    0 -0.20102900064E-01  0.29107739067E-01  0.88800948331E-03  0.35389783080E-01  0.51100000000E-03 0.  1.
         11    1    3    3    0    0 -0.66942334166E-01  0.38338826190E-01  0.50347388333E-01  0.92120911471E-01  0.51100000000E-03 0. -1.
</event>
<event>
 8    1  0.1177602E+005  0.1043930E+01  0.7957747E-01            NaN
         13   -1    0    0    0    0  0.00000000000E+00  0.00000000000E+00  0.74505805969E-08  0.10566000000E+00  0.10566000000E+00 0.  1.
     999900   -1    0    0    0    0 -0.00000000000E+00 -0.00000000000E+00 -0.74505805969E-08  0.93827000000E+00  0.93827000000E+00 0.  1.
     999902    2    1    2    0    0  0.16968493194E-01  0.79230120233E-02  0.14752986178E-01  0.10200898137E+01  0.10198111951E+01 0.  0.
     999903    2    3    3    0    0  0.11054449372E+00 -0.53758168166E-01  0.44576079403E-01  0.13248041046E+00  0.21307429792E-01 0.  0.
         14    1    1    2    0    0 -0.16968493194E-01 -0.79230120233E-02 -0.14752986178E-01  0.23840186282E-01  0.00000000000E+00 0. -1.
     999901    1    3    3    0    0 -0.93576000525E-01  0.61681180189E-01 -0.29823093225E-01  0.88760940326E+00  0.88000000000E+00 0.  1.
        -11    1    4    4    0    0  0.77291030976E-01 -0.40182632750E-01  0.21309461832E-01  0.89682226381E-01  0.51100000000E-03 0. -1.
         11    1    4    4    0    0  0.33253462743E-01 -0.13575535416E-01  0.23266617570E-01  0.42798184078E-01  0.51100000000E-03 0.  1.
</event>
<event>
 8    1  0.1177602E+005  0.1043930E+01  0.7957747E-01            NaN
         13   -1    0    0    0    0  0.00000000000E+00  0.00000000000E+00  0.74505805969E-08  0.10566000000E+00  0.10566000000E+00 0. -1.
     999900   -1    0    0    0    0 -0.00000000000E+00 -0.00000000000E+00 -0.74505805969E-08  0.93827000000E+00  0.93827000000E+00 0.  1.
     999902    2    1    2    0    0 -0.19390980722E-01 -0.96427874032E-02  0.15216617503E-01  0.10174623040E+01  0.10171179878E+01 0.  0.
     999903    2    3    3    0    0  0.89897150731E-01 -0.65776969109E-01  0.59560948288E-01  0.12782116193E+00  0.19561071048E-01 0.  0.
         14    1    1    2    0    0  0.19390980722E-01  0.96427874032E-02 -0.15216617503E-01  0.26467695980E-01  0.00000000000E+00 0.  1.
     999901    1    3    3    0    0 -0.10928813145E+00  0.56134181706E-01 -0.44344330785E-01  0.88964114209E+00  0.88000000000E+00 0.  1.
        -11    1    4    4    0    0  0.60886284137E-01 -0.47869013440E-01  0.50771222519E-01  0.92609719796E-01  0.51100000000E-03 0. -1.
         11    1    4    4    0    0  0.29010866594E-01 -0.17907955670E-01  0.87897257692E-02  0.35211442130E-01  0.51100000000E-03 0.  1.
</event>
<event>
 8    1  0.1177602E+005  0.1043930E+01  0.7957747E-01            NaN
         13   -1    0    0    0    0  0.00000000000E+00  0.00000000000E+00  0.74505805969E-08  0.10566000000E+00  0.10566000000E+00 0.  1.
     999900   -1    0    0    0    0 -0.00000000000E+00 -0.00000000000E+00 -0.74505805969E-08  0.93827000000E+00  0.93827000000E+00 0.  1.
     999902    2    1    2    0    0 -0.21510762983E-01 -0.43193993282E-02  0.83797631677E-02  0.10204440347E+01  0.10201737290E+01 0.  0.
     999903    2    3    3    0    0  0.89611311663E-01 -0.81656232355E-01 -0.35981312772E-01  0.12898623634E+00  0.25394228419E-01 0.  0.
         14    1    1    2    0    0  0.21510762983E-01  0.43193993282E-02 -0.83797631677E-02  0.23485965286E-01  0.00000000000E+00 0. -1.
     999901    1    3    3    0    0 -0.11112207465E+00  0.77336833027E-01  0.44361075940E-01  0.89145779837E+00  0.88000000000E+00 0. -1.
        -11    1    4    4    0    0  0.58122144639E-01 -0.67419930995E-01 -0.21931961792E-01  0.91678257301E-01  0.51100000000E-03 0.  1.
         11    1    4    4    0    0  0.31489167024E-01 -0.14236301360E-01 -0.14049350980E-01  0.37307979043E-01  0.51100000000E-03 0. -1.
</event>
<event>
 8    1  0.1177602E+005  0.1043930E+01  0.7957747E-01            NaN
         13   -1    0    0    0    0  0.00000000000E+00  0.00000000000E+00  0.74505805969E-08  0.10566000000E+00  0.10566000000E+00 0. -1.
     999900   -1    0    0    0    0 -0.00000000000E+00 -0.00000000000E+00 -0.74505805969E-08  0.93827000000E+00  0.93827000000E+00 0. -1.
     999902    2    1    2    0    0  0.24480474250E-01 -0.94693287279E-02  0.32942916826E-02  0.10174759991E+01  0.10171320438E+01 0.  0.
     999903    2    3    3    0    0 -0.11919954813E+00 -0.27403715713E-01 -0.19353229814E-01  0.12535577105E+00  0.19494253539E-01 0.  0.
         14    1    1    2    0    0 -0.24480474250E-01  0.94693287279E-02 -0.32942916826E-02  0.26454000902E-01  0.00000000000E+00 0.  1.
     999901    1    3    3    0    0  0.14368002238E+00  0.17934386985E-01  0.22647521497E-01  0.89212022805E+00  0.88000000000E+00 0.  1.
        -11    1    4    4    0    0 -0.37735184551E-01 -0.16701548836E-01 -0.16373666874E-02  0.41301670394E-01  0.51100000000E-03 0. -1.
         11    1    4    4    0    0 -0.81464363579E-01 -0.10702166877E-01 -0.17715863127E-01  0.84054100653E-01  0.51100000000E-03 0.  1.
</event>
<event>
 8    1  0.1177602E+005  0.1043930E+01  0.7957747E-01            NaN
         13   -1    0    0    0    0  0.00000000000E+00  0.00000000000E+00  0.74505805969E-08  0.10566000000E+00  0.10566000000E+00 0. -1.
     999900   -1    0    0    0    0 -0.00000000000E+00 -0.00000000000E+00 -0.74505805969E-08  0.93827000000E+00  0.93827000000E+00 0. -1.
     999902    2    1    2    0    0 -0.21823720121E-01 -0.84320586693E-02  0.51715702875E-02  0.10199692088E+01  0.10196877304E+01 0.  0.
     999903    2    3    3    0    0  0.81781961169E-01 -0.74474839580E-01 -0.63114972745E-01  0.12881330887E+00  0.19354013918E-01 0.  0.
         14    1    1    2    0    0  0.21823720121E-01  0.84320586693E-02 -0.51715702875E-02  0.23960791151E-01  0.00000000000E+00 0.  1.
     999901    1    3    3    0    0 -0.10360568129E+00  0.66042780911E-01  0.68286543032E-01  0.89115589998E+00  0.88000000000E+00 0. -1.
        -11    1    4    4    0    0  0.48747437379E-01 -0.36034424846E-01 -0.25859737871E-01  0.65907356105E-01  0.51100000000E-03 0.  1.
         11    1    4    4    0    0  0.33034523790E-01 -0.38440414734E-01 -0.37255234874E-01  0.62905952766E-01  0.51100000000E-03 0. -1.
</event>
<event>
 8    1  0.1177602E+005  0.1043930E+01  0.7957747E-01            NaN
         13   -1    0    0    0    0  0.00000000000E+00  0.00000000000E+00  0.74505805969E-08  0.10566000000E+00  0.10566000000E+00 0.  1.
     999900   -1    0    0    0    0 -0.00000000000E+00 -0.00000000000E+00 -0.74505805969E-08  0.93827000000E+00  0.93827000000E+00 0.  1.
     999902    2    1    2    0    0 -0.99677209596E-02 -0.15280674104E-01 -0.15948153537E-01  0.10196978300E+01  0.10194098618E+01 0.  0.
     999903    2    3    3    0    0  0.10050273630E+00 -0.31888048622E-01  0.70537137829E-01  0.12842950202E+00  0.20025022561E-01 0.  0.
         14    1    1    2    0    0  0.99677209596E-02  0.15280674104E-01  0.15948153537E-01  0.24232170011E-01  0.00000000000E+00 0.  1.
     999901    1    3    3    0    0 -0.11047045726E+00  0.16607374517E-01 -0.86485291366E-01  0.89126832797E+00  0.88000000000E+00 0.  1.
        -11    1    4    4    0    0  0.22894179948E-01 -0.16394245146E-01  0.19607638576E-01  0.34316692162E-01  0.51100000000E-03 0. -1.
         11    1    4    4    0    0  0.77608556348E-01 -0.15493803475E-01  0.50929499253E-01  0.94112809859E-01  0.51100000000E-03 0.  1.
</event>
<event>
 8    1  0.1177602E+005  0.1043930E+01  0.7957747E-01            NaN
         13   -1    0    0    0    0  0.00000000000E+00  0.00000000000E+00  0.74505805969E-08  0.10566000000E+00  0.10566000000E+00 0.  1.
     999900   -1    0    0    0    0 -0.00000000000E+00 -0.00000000000E+00 -0.74505805969E-08  0.93827000000E+00  0.93827000000E+00 0. -1.
     999902    2    1    2    0    0  0.21134000259E-01  0.11649308792E-01  0.13654508568E-02  0.10197594225E+01  0.10194729339E+01 0.  0.
     999903    2    3    3    0    0  0.31734786092E-02 -0.10328151789E+00 -0.74287817482E-01  0.12888620350E+00  0.20391927847E-01 0.  0.
         14    1    1    2    0    0 -0.21134000259E-01 -0.11649308792E-01 -0.13654508568E-02  0.24170577534E-01  0.00000000000E+00 0.  1.
     999901    1    3    3    0    0  0.17960521650E-01  0.11493082669E+00  0.75653268338E-01  0.89087321897E+00  0.88000000000E+00 0.  1.
        -11    1    4    4    0    0 -0.57308237743E-02 -0.95584428802E-02 -0.86588771012E-02  0.14122444727E-01  0.51100000000E-03 0. -1.
         11    1    4    4    0    0  0.89043023835E-02 -0.93723075014E-01 -0.65628940380E-01  0.11476375877E+00  0.51100000000E-03 0.  1.
</event>
<event>
 8    1  0.1177602E+005  0.1043930E+01  0.7957747E-01            NaN
         13   -1    0    0    0    0  0.00000000000E+00  0.00000000000E+00  0.74505805969E-08  0.10566000000E+00  0.10566000000E+00 0. -1.
     999900   -1    0    0    0    0 -0.00000000000E+00 -0.00000000000E+00 -0.74505805969E-08  0.93827000000E+00  0.93827000000E+00 0. -1.
     999902    2    1    2    0    0  0.24157643011E-01 -0.43232464199E-03 -0.60658847978E-03  0.10197608757E+01  0.10194744220E+01 0.  0.
     999903    2    3    3    0    0 -0.18391974511E-01  0.11063906322E+00  0.61679201016E-01  0.12957727512E+00  0.20166292472E-01 0.  0.
         14    1    1    2    0    0 -0.24157643011E-01  0.43232464199E-03  0.60658847978E-03  0.24169124312E-01  0.00000000000E+00 0.  1.
     999901    1    3    3    0    0  0.42549617522E-01 -0.11107138786E+00 -0.62285789496E-01  0.89018360057E+00  0.88000000000E+00 0. -1.
        -11    1    4    4    0    0 -0.20111781164E-01  0.68878147511E-01  0.33683242205E-01  0.79268561692E-01  0.51100000000E-03 0. -1.
         11    1    4    4    0    0  0.17198066532E-02  0.41760915708E-01  0.27995958811E-01  0.50308713425E-01  0.51100000000E-03 0.  1.
</event>
<event>
 8    1  0.1177602E+005  0.1043930E+01  0.7957747E-01            NaN
         13   -1    0    0    0    0  0.00000000000E+00  0.00000000000E+00  0.74505805969E-08  0.10566000000E+00  0.10566000000E+00 0.  1.
     999900   -1    0    0    0    0 -0.00000000000E+00 -0.00000000000E+00 -0.74505805969E-08  0.93827000000E+00  0.93827000000E+00 0. -1.
     999902    2    1    2    0    0 -0.77313806244E-02  0.21882842015E-01  0.52317342160E-02  0.10201391601E+01  0.10198617072E+01 0.  0.
     999903    2    3    3    0    0 -0.72690613822E-01 -0.10366989404E+00  0.10912869282E-01  0.12883928529E+00  0.21191943036E-01 0.  0.
         14    1    1    2    0    0  0.77313806244E-02 -0.21882842015E-01 -0.52317342160E-02  0.23790839916E-01  0.00000000000E+00 0. -1.
     999901    1    3    3    0    0  0.64959233197E-01  0.12555273606E+00 -0.56811350657E-02  0.89129987479E+00  0.88000000000E+00 0.  1.
        -11    1    4    4    0    0 -0.57103169261E-01 -0.73729948737E-01  0.16243806860E-01  0.94662556815E-01  0.51100000000E-03 0. -1.
         11    1    4    4    0    0 -0.15587444561E-01 -0.29939945306E-01 -0.53309375785E-02  0.34176728476E-01  0.51100000000E-03 0.  1.
</event>
<event>
 8    1  0.1177602E+005  0.1043930E+01  0.7957747E-01            NaN
         13   -1    0    0    0    0  0.00000000000E+00  0.00000000000E+00  0.74505805969E-08  0.10566000000E+00  0.10566000000E+00 0.  1.
     999900   -1    0    0    0    0 -0.00000000000E+00 -0.00000000000E+00 -0.74505805969E-08  0.93827000000E+00  0.93827000000E+00 0. -1.
     999902    2    1    2    0    0  0.48777735152E-02 -0.24626492356E-01  0.11013645487E-01  0.10165154566E+01  0.10161457161E+01 0.  0.
     999903    2    3    3    0    0  0.11433376421E+00 -0.35639021089E-01 -0.41004209963E-01  0.12814180386E+00  0.19915501469E-01 0.  0.
         14    1    1    2    0    0 -0.48777735152E-02  0.24626492356E-01 -0.11013645487E-01  0.27414543351E-01  0.00000000000E+00 0. -1.
     999901    1    3    3    0    0 -0.10945599069E+00  0.11012528733E-01  0.52017855449E-01  0.88837365279E+00  0.88000000000E+00 0.  1.
        -11    1    4    4    0    0  0.62641118369E-01 -0.28681063328E-01 -0.18532454040E-01  0.71345820325E-01  0.51100000000E-03 0.  1.
         11    1    4    4    0    0  0.51692645840E-01 -0.69579577614E-02 -0.22471755923E-01  0.56795983533E-01  0.51100000000E-03 0. -1.
</event>
<event>
 8    1  0.1177602E+005  0.1043930E+01  0.7957747E-01            NaN
         13   -1    0    0    0    0  0.00000000000E+00  0.00000000000E+00  0.74505805969E-08  0.10566000000E+00  0.10566000000E+00 0.  1.
     999900   -1    0    0    0    0 -0.00000000000E+00 -0.00000000000E+00 -0.74505805969E-08  0.93827000000E+00  0.93827000000E+00 0.  1.
     999902    2    1    2    0    0  0.20075628546E-01 -0.12236325197E-01 -0.39122812235E-02  0.10200958971E+01  0.10198174223E+01 0.  0.
     999903    2    3    3    0    0  0.97390180480E-01  0.21558182827E-02 -0.87571246476E-01  0.13263688612E+00  0.20840478487E-01 0.  0.
         14    1    1    2    0    0 -0.20075628546E-01  0.12236325197E-01  0.39122812235E-02  0.23834102883E-01  0.00000000000E+00 0.  1.
     999901    1    3    3    0    0 -0.77314551934E-01 -0.14392143480E-01  0.83658965253E-01  0.88745901100E+00  0.88000000000E+00 0. -1.
        -11    1    4    4    0    0  0.63471989841E-01  0.10688403745E-02 -0.69709491315E-01  0.94284199177E-01  0.51100000000E-03 0. -1.
         11    1    4    4    0    0  0.33918190640E-01  0.10869779082E-02 -0.17861755161E-01  0.38352686942E-01  0.51100000000E-03 0.  1.
</event>
<event>
 8    1  0.1177602E+005  0.1043930E+01  0.7957747E-01            NaN
         13   -1    0    0    0    0  0.00000000000E+00  0.00000000000E+00  0.74505805969E-08  0.10566000000E+00  0.10566000000E+00 0. -1.
     999900   -1    0    0    0    0 -0.00000000000E+00 -0.00000000000E+00 -0.74505805969E-08  0.93827000000E+00  0.93827000000E+00 0. -1.
     999902    2    1    2    0    0  0.71422750079E-03  0.23446249763E-01  0.37718368713E-02  0.10201715593E+01  0.10198948706E+01 0.  0.
     999903    2    3    3    0    0 -0.12737064867E+00  0.21328701456E-01  0.55101588416E-02  0.13089475133E+00  0.20612579346E-01 0.  0.
         14    1    1    2    0    0 -0.71422750079E-03 -0.23446249763E-01 -0.37718368713E-02  0.23758440653E-01  0.00000000000E+00 0.  1.
     999901    1    3    3    0    0  0.12808487617E+00  0.21175483072E-02 -0.17383219702E-02  0.88927680802E+00  0.88000000000E+00 0.  1.
        -11    1    4    4    0    0 -0.17662665916E-01  0.21536213208E-02 -0.63346734245E-02  0.18894365839E-01  0.51100000000E-03 0. -1.
         11    1    4    4    0    0 -0.10970798275E+00  0.19175080135E-01  0.11844832266E-01  0.11200038549E+00  0.51100000000E-03 0.  1.
</event>
<event>
 8    1  0.1177602E+005  0.1043930E+01  0.7957747E-01            NaN
         13   -1    0    0    0    0  0.00000000000E+00  0.00000000000E+00  0.74505805969E-08  0.10566000000E+00  0.10566000000E+00 0. -1.
     999900   -1    0    0    0    0 -0.00000000000E+00 -0.00000000000E+00 -0.74505805969E-08  0.93827000000E+00  0.93827000000E+00 0.  1.
     999902    2    1    2    0    0  0.85904950862E-02  0.22350680313E-01  0.49704509927E-02  0.10194748390E+01  0.10191814816E+01 0.  0.
     999903    2    3    3    0    0  0.54555945806E-01  0.11102841644E+00  0.44882404024E-01  0.13292561446E+00  0.18738417993E-01 0.  0.
         14    1    1    2    0    0 -0.85904950862E-02 -0.22350680313E-01 -0.49704509927E-02  0.24455160996E-01  0.00000000000E+00 0. -1.
     999901    1    3    3    0    0 -0.45965450720E-01 -0.88677736126E-01 -0.39911953031E-01  0.88654922454E+00  0.88000000000E+00 0. -1.
        -11    1    4    4    0    0  0.34035242262E-01  0.79746599694E-01  0.23518192656E-01  0.89840327167E-01  0.51100000000E-03 0.  1.
         11    1    4    4    0    0  0.20520703544E-01  0.31281816745E-01  0.21364211367E-01  0.43085287293E-01  0.51100000000E-03 0. -1.
</event>
<event>
 8    1  0.1177602E+005  0.1043930E+01  0.7957747E-01            NaN
         13   -1    0    0    0    0  0.00000000000E+00  0.00000000000E+00  0.74505805969E-08  0.10566000000E+00  0.10566000000E+00 0. -1.
     999900   -1    0    0    0    0 -0.00000000000E+00 -0.00000000000E+00 -0.74505805969E-08  0.93827000000E+00  0.93827000000E+00 0.  1.
     999902    2    1    2    0    0 -0.11701448656E-01  0.12627394750E-01 -0.15748748999E-01  0.10205976599E+01  0.10203309195E+01 0.  0.
     999903    2    3    3    0    0 -0.63992295965E-01  0.13062455920E-01  0.11071947254E+00  0.13001990753E+00  0.19512382095E-01 0.  0.
         14    1    1    2    0    0  0.11701448656E-01 -0.12627394750E-01  0.15748748999E-01  0.23332340085E-01  0.00000000000E+00 0. -1.
     999901    1    3    3    0    0  0.52290847309E-01 -0.43506117025E-03 -0.12646822154E+00  0.89057775239E+00  0.88000000000E+00 0.  1.
        -11    1    4    4    0    0 -0.49497161838E-01  0.15934009579E-01  0.74079341495E-01  0.90508958941E-01  0.51100000000E-03 0.  1.
         11    1    4    4    0    0 -0.14495134128E-01 -0.28715536589E-02  0.36640131049E-01  0.39510948585E-01  0.51100000000E-03 0. -1.
</event>
<event>
 8    1  0.1177602E+005  0.1043930E+01  0.7957747E-01            NaN
         13   -1    0    0    0    0  0.00000000000E+00  0.00000000000E+00  0.74505805969E-08  0.10566000000E+00  0.10566000000E+00 0.  1.
     999900   -1    0    0    0    0 -0.00000000000E+00 -0.00000000000E+00 -0.74505805969E-08  0.93827000000E+00  0.93827000000E+00 0. -1.
     999902    2    1    2    0    0  0.99627553882E-02 -0.16808536782E-01  0.11505762591E-01  0.10212547717E+01  0.10210030082E+01 0.  0.
     999903    2    3    3    0    0 -0.63778401558E-01  0.10574344959E+00 -0.30319480903E-01  0.12872684580E+00  0.20049146392E-01 0.  0.
         14    1    1    2    0    0 -0.99627553882E-02  0.16808536782E-01 -0.11505762591E-01  0.22675228257E-01  0.00000000000E+00 0. -1.
     999901    1    3    3    0    0  0.73741156946E-01 -0.12255198637E+00  0.41825243494E-01  0.89252792594E+00  0.88000000000E+00 0.  1.
        -11    1    4    4    0    0 -0.53951994511E-01  0.85468787485E-01 -0.16841189293E-01  0.10246764428E+00  0.51100000000E-03 0. -1.
         11    1    4    4    0    0 -0.98264070472E-02  0.20274662107E-01 -0.13478291611E-01  0.26259201525E-01  0.51100000000E-03 0.  1.
</event>
<event>
 8    1  0.1177602E+005  0.1043930E+01  0.7957747E-01            NaN
         13   -1    0    0    0    0  0.00000000000E+00  0.00000000000E+00  0.74505805969E-08  0.10566000000E+00  0.10566000000E+00 0.  1.
     999900   -1    0    0    0    0 -0.00000000000E+00 -0.00000000000E+00 -0.74505805969E-08  0.93827000000E+00  0.93827000000E+00 0.  1.
     999902    2    1    2    0    0 -0.23341395374E-01  0.23318534234E-03  0.11128616995E-01  0.10180703552E+01  0.10177418764E+01 0.  0.
     999903    2    3    3    0    0 -0.90047797985E-01 -0.75948933273E-01  0.53772830331E-01  0.13123779587E+00  0.21330621067E-01 0.  0.
         14    1    1    2    0    0  0.23341395374E-01 -0.23318534234E-03 -0.11128616995E-01  0.25859644808E-01  0.00000000000E+00 0. -1.
     999901    1    3    3    0    0  0.66706402612E-01  0.76182118615E-01 -0.42644213336E-01  0.88683255932E+00  0.88000000000E+00 0. -1.
        -11    1    4    4    0    0 -0.22380418602E-02 -0.35779110648E-02  0.70406392612E-02  0.82244757378E-02  0.51100000000E-03 0.  1.
         11    1    4    4    0    0 -0.87809756125E-01 -0.72371022208E-01  0.46732191070E-01  0.12301332013E+00  0.51100000000E-03 0. -1.
</event>
<event>
 8    1  0.1177602E+005  0.1043930E+01  0.7957747E-01            NaN
         13   -1    0    0    0    0  0.00000000000E+00  0.00000000000E+00  0.74505805969E-08  0.10566000000E+00  0.10566000000E+00 0.  1.
     999900   -1    0    0    0    0 -0.00000000000E+00 -0.00000000000E+00 -0.74505805969E-08  0.93827000000E+00  0.93827000000E+00 0.  1.
     999902    2    1    2    0    0  0.72296487298E-02  0.33210220326E-02  0.22678658069E-01  0.10198963041E+01  0.10196130896E+01 0.  0.
     999903    2    3    3    0    0 -0.70213794235E-01 -0.29787109819E-01  0.10464112657E+00  0.13208355270E+00  0.26058601487E-01 0.  0.
         14    1    1    2    0    0 -0.72296487298E-02 -0.33210220326E-02 -0.22678658069E-01  0.24033695927E-01  0.00000000000E+00 0. -1.
     999901    1    3    3    0    0  0.77443442965E-01  0.33108131852E-01 -0.81962468506E-01  0.88781275137E+00  0.88000000000E+00 0. -1.
        -11    1    4    4    0    0 -0.30671943862E-01 -0.22626453435E-01  0.35378191104E-01  0.52005788737E-01  0.51100000000E-03 0.  1.
         11    1    4    4    0    0 -0.39541850373E-01 -0.71606563841E-02  0.69262935471E-01  0.80077763966E-01  0.51100000000E-03 0. -1.
</event>
<event>
 8    1  0.1177602E+005  0.1043930E+01  0.7957747E-01            NaN
         13   -1    0    0    0    0  0.00000000000E+00  0.00000000000E+00  0.74505805969E-08  0.10566000000E+00  0.10566000000E+00 0.  1.
     999900   -1    0    0    0    0 -0.00000000000E+00 -0.00000000000E+00 -0.74505805969E-08  0.93827000000E+00  0.93827000000E+00 0.  1.
     999902    2    1    2    0    0  0.88659450176E-02 -0.18613236235E-01  0.11434761089E-01  0.10203543493E+01  0.10200819510E+01 0.  0.
     999903    2    3    3    0    0  0.32948426077E-01 -0.34222132429E-02  0.12661564006E+00  0.13239186815E+00  0.19969379526E-01 0.  0.
         14    1    1    2    0    0 -0.88659450176E-02  0.18613236235E-01 -0.11434761089E-01  0.23575650688E-01  0.00000000000E+00 0. -1.
     999901    1    3    3    0    0 -0.24082481059E-01 -0.15191022992E-01 -0.11518087897E+00  0.88796248116E+00  0.88000000000E+00 0.  1.
        -11    1    4    4    0    0  0.34179407255E-01 -0.38378688225E-02  0.10021023609E+00  0.10594958073E+00  0.51100000000E-03 0. -1.
         11    1    4    4    0    0 -0.12309811784E-02  0.41565557964E-03  0.26405403969E-01  0.26442287420E-01  0.51100000000E-03 0.  1.
</event>
<event>
 8    1  0.1177602E+005  0.1043930E+01  0.7957747E-01            NaN
         13   -1    0    0    0    0  0.00000000000E+00  0.00000000000E+00  0.74505805969E-08  0.10566000000E+00  0.10566000000E+00 0.  1.
     999900   -1    0    0    0    0 -0.00000000000E+00 -0.00000000000E+00 -0.74505805969E-08  0.93827000000E+00  0.93827000000E+00 0. -1.
     999902    2    1    2    0    0 -0.22860983991E-01 -0.16710774630E-02 -0.89991764623E-02  0.10193047636E+01  0.10190072615E+01 0.  0.
     999903    2    3    3    0    0  0.79377571810E-02  0.11448816873E+00  0.55070243974E-01  0.12882937174E+00  0.19842542301E-01 0.  0.
         14    1    1    2    0    0  0.22860983991E-01  0.16710774630E-02  0.89991764623E-02  0.24625236363E-01  0.00000000000E+00 0.  1.
     999901    1    3    3    0    0 -0.30798741172E-01 -0.11615924619E+00 -0.64069420436E-01  0.89047539189E+00  0.88000000000E+00 0. -1.
        -11    1    4    4    0    0  0.80202713380E-02  0.70748401785E-01  0.23863719631E-01  0.75095934265E-01  0.51100000000E-03 0. -1.
         11    1    4    4    0    0 -0.82514156948E-04  0.43739766942E-01  0.31206524343E-01  0.53733437479E-01  0.51100000000E-03 0.  1.
</event>
<event>
 8    1  0.1177602E+005  0.1043930E+01  0.7957747E-01            NaN
         13   -1    0    0    0    0  0.00000000000E+00  0.00000000000E+00  0.74505805969E-08  0.10566000000E+00  0.10566000000E+00 0. -1.
     999900   -1    0    0    0    0 -0.00000000000E+00 -0.00000000000E+00 -0.74505805969E-08  0.93827000000E+00  0.93827000000E+00 0. -1.
     999902    2    1    2    0    0 -0.17021505190E-01 -0.15971462891E-01  0.72623124704E-02  0.10194849504E+01  0.10191918385E+01 0.  0.
     999903    2    3    3    0    0 -0.37883830075E-01  0.10673520511E+00  0.59054951736E-01  0.12921833843E+00  0.19552571967E-01 0.  0.
         14    1    1    2    0    0  0.17021505190E-01  0.15971462891E-01 -0.72623124704E-02  0.24445049565E-01  0.00000000000E+00 0. -1.
     999901    1    3    3    0    0  0.20862324885E-01 -0.12270666800E+00 -0.51792639265E-01  0.89026661201E+00  0.88000000000E+00 0. -1.
        -11    1    4    4    0    0 -0.37774303509E-01  0.94160221443E-01  0.57277552525E-01  0.11650761543E+00  0.51100000000E-03 0. -1.
         11    1    4    4    0    0 -0.10952656579E-03  0.12574983668E-01  0.17773992106E-02  0.12710723004E-01  0.51100000000E-03 0.  1.
</event>
<event>
 8    1  0.1177602E+005  0.1043930E+01  0.7957747E-01            NaN
         13   -1    0    0    0    0  0.00000000000E+00  0.00000000000E+00  0.74505805969E-08  0.10566000000E+00  0.10566000000E+00 0.  1.
     999900   -1    0    0    0    0 -0.00000000000E+00 -0.00000000000E+00 -0.74505805969E-08  0.93827000000E+00  0.93827000000E+00 0. -1.
     999902    2    1    2    0    0  0.14313457698E-01 -0.15422962139E-01  0.10922917722E-01  0.10202223438E+01  0.10199468505E+01 0.  0.
     999903    2    3    3    0    0 -0.11828773718E-01 -0.41403577301E-02 -0.12684455845E+00  0.12904862843E+00  0.20172854075E-01 0.  0.
         14    1    1    2    0    0 -0.14313457698E-01  0.15422962139E-01 -0.10922917722E-01  0.23707656231E-01  0.00000000000E+00 0.  1.
     999901    1    3    3    0    0  0.26142231416E-01 -0.11282604409E-01  0.13776747617E+00  0.89117371534E+00  0.88000000000E+00 0.  1.
        -11    1    4    4    0    0  0.47090067661E-02  0.18533631843E-02 -0.15270758409E-01  0.16095554765E-01  0.51100000000E-03 0. -1.
         11    1    4    4    0    0 -0.16537780484E-01 -0.59937209145E-02 -0.11157380004E+00  0.11295307366E+00  0.51100000000E-03 0.  1.
</event>
<event>
 8    1  0.1177602E+005  0.1043930E+01  0.7957747E-01            NaN
         13   -1    0    0    0    0  0.00000000000E+00  0.00000000000E+00  0.74505805969E-08  0.10566000000E+00  0.10566000000E+00 0. -1.
     999900   -1    0    0    0    0 -0.00000000000E+00 -0.00000000000E+00 -0.74505805969E-08  0.93827000000E+00  0.93827000000E+00 0. -1.
     999902    2    1    2    0    0 -0.81671545265E-03  0.16784642156E-01 -0.16549865100E-01  0.10203442146E+01  0.10200715794E+01 0.  0.
     999903    2    3    3    0    0  0.36583225406E-01  0.12414718191E+00 -0.23020507379E-01  0.13300699591E+00  0.20249988762E-01 0.  0.
         14    1    1    2    0    0  0.81671545265E-03 -0.16784642156E-01  0.16549865100E-01  0.23585785365E-01  0.00000000000E+00 0.  1.
     999901    1    3    3    0    0 -0.37399940859E-01 -0.10736253975E+00  0.64706422792E-02  0.88733721872E+00  0.88000000000E+00 0.  1.
        -11    1    4    4    0    0  0.27128097136E-02  0.28067817680E-01  0.14248974816E-02  0.28239213510E-01  0.51100000000E-03 0. -1.
         11    1    4    4    0    0  0.33870415693E-01  0.96079364229E-01 -0.24445404860E-01  0.10476778240E+00  0.51100000000E-03 0.  1.
</event>
<event>
 8    1  0.1177602E+005  0.1043930E+01  0.7957747E-01            NaN
         13   -1    0    0    0    0  0.00000000000E+00  0.00000000000E+00  0.74505805969E-08  0.10566000000E+00  0.10566000000E+00 0. -1.
     999900   -1    0    0    0    0 -0.00000000000E+00 -0.00000000000E+00 -0.74505805969E-08  0.93827000000E+00  0.93827000000E+00 0. -1.
     999902    2    1    2    0    0  0.16866264576E-01  0.55076985475E-02  0.89090592832E-02  0.10240761097E+01  0.10238836367E+01 0.  0.
     999903    2    3    3    0    0  0.82006184909E-01 -0.73800776212E-01  0.75999194579E-01  0.13557505191E+00  0.20812212513E-01 0.  0.
         14    1    1    2    0    0 -0.16866264576E-01 -0.55076985475E-02 -0.89090592832E-02  0.19853890333E-01  0.00000000000E+00 0.  1.
     999901    1    3    3    0    0 -0.65139920332E-01  0.79308474759E-01 -0.67090135296E-01  0.88850105776E+00  0.88000000000E+00 0. -1.
        -11    1    4    4    0    0  0.52228116776E-01 -0.50301906053E-01  0.61077862345E-01  0.94809410525E-01  0.51100000000E-03 0.  1.
         11    1    4    4    0    0  0.29778068133E-01 -0.23498870159E-01  0.14921332234E-01  0.40765641380E-01  0.51100000000E-03 0. -1.
</event>
<event>
 8    1  0.1177602E+005  0.1043930E+01  0.7957747E-01            NaN
         13   -1    0    0    0    0  0.00000000000E+00  0.00000000000E+00  0.74505805969E-08  0.10566000000E+00  0.10566000000E+00 0.  1.
     999900   -1    0    0    0    0 -0.00000000000E+00 -0.00000000000E+00 -0.74505805969E-08  0.93827000000E+00  0.93827000000E+00 0. -1.
     999902    2    1    2    0    0 -0.18655458827E-01  0.55217238573E-02 -0.13197103887E-01  0.10204208714E+01  0.10201500260E+01 0.  0.
     999903    2    3    3    0    0 -0.34950393050E-01  0.10483229629E-01 -0.12617789979E+00  0.13303437064E+00  0.21115238520E-01 0.  0.
         14    1    1    2    0    0  0.18655458827E-01 -0.55217238573E-02  0.13197103887E-01  0.23509128640E-01  0.00000000000E+00 0.  1.
     999901    1    3    3    0    0  0.16294934223E-01 -0.49615057718E-02  0.11298079590E+00  0.88738650072E+00  0.88000000000E+00 0.  1.
        -11    1    4    4    0    0 -0.29987659850E-01  0.46983925689E-02 -0.69458822303E-01  0.75803190914E-01  0.51100000000E-03 0. -1.
         11    1    4    4    0    0 -0.49627332005E-02  0.57848370602E-02 -0.56719077487E-01  0.57231179724E-01  0.51100000000E-03 0.  1.
</event>
<event>
 8    1  0.1177602E+005  0.1043930E+01  0.7957747E-01            NaN
         13   -1    0    0    0    0  0.00000000000E+00  0.00000000000E+00  0.74505805969E-08  0.10566000000E+00  0.10566000000E+00 0.  1.
     999900   -1    0    0    0    0 -0.00000000000E+00 -0.00000000000E+00 -0.74505805969E-08  0.93827000000E+00  0.93827000000E+00 0.  1.
     999902    2    1    2    0    0  0.17727001278E-01 -0.20397434659E-02 -0.15331002137E-01  0.10204045509E+01  0.10201333250E+01 0.  0.
     999903    2    3    3    0    0 -0.33609328263E-01 -0.40540345930E-01  0.11526033668E+00  0.12845622681E+00  0.21046386827E-01 0.  0.
         14    1    1    2    0    0 -0.17727001278E-01  0.20397434659E-02  0.15331002137E-01  0.23525449077E-01  0.00000000000E+00 0.  1.
     999901    1    3    3    0    0  0.51336329541E-01  0.38500602465E-01 -0.13059133882E+00  0.89194832412E+00  0.88000000000E+00 0.  1.
        -11    1    4    4    0    0 -0.12810280405E-01 -0.21420747628E-01  0.76636034049E-01  0.80599593974E-01  0.51100000000E-03 0. -1.
         11    1    4    4    0    0 -0.20799047858E-01 -0.19119598303E-01  0.38624302634E-01  0.47856632832E-01  0.51100000000E-03 0.  1.
</event>
<event>
 8    1  0.1177602E+005  0.1043930E+01  0.7957747E-01            NaN
         13   -1    0    0    0    0  0.00000000000E+00  0.00000000000E+00  0.74505805969E-08  0.10566000000E+00  0.10566000000E+00 0. -1.
     999900   -1    0    0    0    0 -0.00000000000E+00 -0.00000000000E+00 -0.74505805969E-08  0.93827000000E+00  0.93827000000E+00 0.  1.
     999902    2    1    2    0    0  0.61819521311E-02  0.11971464701E-01  0.19608036376E-01  0.10201390860E+01  0.10198616314E+01 0.  0.
     999903    2    3    3    0    0 -0.67257817237E-01 -0.27432224290E-01 -0.10329883260E+00  0.12769740785E+00  0.18969402868E-01 0.  0.
         14    1    1    2    0    0 -0.61819521311E-02 -0.11971464701E-01 -0.19608036376E-01  0.23790914017E-01  0.00000000000E+00 0.  1.
     999901    1    3    3    0    0  0.73439769368E-01  0.39403688991E-01  0.12290686898E+00  0.89244167814E+00  0.88000000000E+00 0. -1.
        -11    1    4    4    0    0 -0.30893134960E-01 -0.25406529047E-02 -0.42397077875E-01  0.52522509824E-01  0.51100000000E-03 0. -1.
         11    1    4    4    0    0 -0.36364682277E-01 -0.24891571385E-01 -0.60901754727E-01  0.75174898024E-01  0.51100000000E-03 0.  1.
</event>
<event>
 8    1  0.1177602E+005  0.1043930E+01  0.7957747E-01            NaN
         13   -1    0    0    0    0  0.00000000000E+00  0.00000000000E+00  0.74505805969E-08  0.10566000000E+00  0.10566000000E+00 0. -1.
     999900   -1    0    0    0    0 -0.00000000000E+00 -0.00000000000E+00 -0.74505805969E-08  0.93827000000E+00  0.93827000000E+00 0. -1.
     999902    2    1    2    0    0 -0.10065075203E-01 -0.20304862878E-01 -0.73333253931E-02  0.10201104522E+01  0.10198323214E+01 0.  0.
     999903    2    3    3    0    0  0.49020763505E-01  0.79843425426E-01  0.84608137739E-01  0.12771253165E+00  0.19337681621E-01 0.  0.
         14    1    1    2    0    0  0.10065075203E-01  0.20304862878E-01  0.73333253931E-02  0.23819547784E-01  0.00000000000E+00 0.  1.
     999901    1    3    3    0    0 -0.59085838708E-01 -0.10014828830E+00 -0.91941463132E-01  0.89239792057E+00  0.88000000000E+00 0.  1.
        -11    1    4    4    0    0  0.30867707379E-01  0.32430219533E-01  0.42830419048E-01  0.61961604358E-01  0.51100000000E-03 0. -1.
         11    1    4    4    0    0  0.18153056127E-01  0.47413205893E-01  0.41777718691E-01  0.65750927293E-01  0.51100000000E-03 0.  1.
</event>
<event>
 8    1  0.1177602E+005  0.1043930E+01  0.7957747E-01            NaN
         13   -1    0    0    0    0  0.00000000000E+00  0.00000000000E+00  0.74505805969E-08  0.10566000000E+00  0.10566000000E+00 0.  1.
     999900   -1    0    0    0    0 -0.00000000000E+00 -0.00000000000E+00 -0.74505805969E-08  0.93827000000E+00  0.93827000000E+00 0. -1.
     999902    2    1    2    0    0 -0.13442832749E-01 -0.11703159898E-01 -0.15810934088E-01  0.10201043974E+01  0.10198261235E+01 0.  0.
     999903    2    3    3    0    0 -0.97438090945E-01  0.67269148080E-01 -0.53896717522E-01  0.13176754925E+00  0.20940654853E-01 0.  0.
         14    1    1    2    0    0  0.13442832749E-01  0.11703159898E-01  0.15810934088E-01  0.23825602629E-01  0.00000000000E+00 0.  1.
     999901    1    3    3    0    0  0.83995258196E-01 -0.78972307978E-01  0.38085783434E-01  0.88833684812E+00  0.88000000000E+00 0. -1.
        -11    1    4    4    0    0 -0.59815190791E-01  0.28940567102E-01 -0.27418007464E-01  0.71884780919E-01  0.51100000000E-03 0. -1.
         11    1    4    4    0    0 -0.37622900154E-01  0.38328580977E-01 -0.26478710057E-01  0.59882768332E-01  0.51100000000E-03 0.  1.
</event>
<event>
 8    1  0.1177602E+005  0.1043930E+01  0.7957747E-01            NaN
         13   -1    0    0    0    0  0.00000000000E+00  0.00000000000E+00  0.74505805969E-08  0.10566000000E+00  0.10566000000E+00 0. -1.
     999900   -1    0    0    0    0 -0.00000000000E+00 -0.00000000000E+00 -0.74505805969E-08  0.93827000000E+00  0.93827000000E+00 0. -1.
     999902    2    1    2    0    0 -0.96688696704E-03 -0.80108034845E-03 -0.28282611713E-01  0.10156195298E+01  0.10152248748E+01 0.  0.
     999903    2    3    3    0    0 -0.11203762777E-01 -0.11730710552E+00 -0.44990864772E-01  0.12772448345E+00  0.20071981832E-01 0.  0.
         14    1    1    2    0    0  0.96688696704E-03  0.80108034845E-03  0.28282611713E-01  0.28310470244E-01  0.00000000000E+00 0. -1.
     999901    1    3    3    0    0  0.10236875810E-01  0.11650602517E+00  0.16708253059E-01  0.88789504630E+00  0.88000000000E+00 0.  1.
        -11    1    4    4    0    0 -0.77194356563E-02 -0.99122031379E-01 -0.45163890223E-01  0.10920075500E+00  0.51100000000E-03 0. -1.
         11    1    4    4    0    0 -0.34843271208E-02 -0.18185074142E-01  0.17302545084E-03  0.18523728454E-01  0.51100000000E-03 0.  1.
</event>
<event>
 8    1  0.1177602E+005  0.1043930E+01  0.7957747E-01            NaN
         13   -1    0    0    0    0  0.00000000000E+00  0.00000000000E+00  0.74505805969E-08  0.10566000000E+00  0.10566000000E+00 0. -1.
     999900   -1    0    0    0    0 -0.00000000000E+00 -0.00000000000E+00 -0.74505805969E-08  0.93827000000E+00  0.93827000000E+00 0.  1.
     999902    2    1    2    0    0  0.39564078838E-02  0.18467499025E-01  0.48338100725E-03  0.10250372675E+01  0.10248631443E+01 0.  0.
     999903    2    3    3    0    0 -0.35430457203E-01  0.12344393815E+00 -0.42355695748E-01  0.13688943950E+00  0.21236537409E-01 0.  0.
         14    1    1    2    0    0 -0.39564078838E-02 -0.18467499025E-01 -0.48338100725E-03  0.18892732486E-01  0.00000000000E+00 0. -1.
     999901    1    3    3    0    0  0.39386865087E-01 -0.10497643912E+00  0.42839076755E-01  0.88814782802E+00  0.88000000000E+00 0.  1.
        -11    1    4    4    0    0  0.22718618711E-02  0.15514074818E-01 -0.73449571385E-02  0.17322164708E-01  0.51100000000E-03 0.  1.
         11    1    4    4    0    0 -0.37702319075E-01  0.10792986333E+00 -0.35010738609E-01  0.11956727479E+00  0.51100000000E-03 0. -1.
</event>
<event>
 8    1  0.1177602E+005  0.1043930E+01  0.7957747E-01            NaN
         13   -1    0    0    0    0  0.00000000000E+00  0.00000000000E+00  0.74505805969E-08  0.10566000000E+00  0.10566000000E+00 0. -1.
     999900   -1    0    0    0    0 -0.00000000000E+00 -0.00000000000E+00 -0.74505805969E-08  0.93827000000E+00  0.93827000000E+00 0.  1.
     999902    2    1    2    0    0 -0.62239740184E-02 -0.14629761355E-01  0.17043437001E-01  0.10206223507E+01  0.10203561811E+01 0.  0.
     999903    2    3    3    0    0  0.27233293480E-01  0.59966033482E-01  0.11236107812E+00  0.13170763375E+00  0.19603863547E-01 0.  0.
         14    1    1    2    0    0  0.62239740184E-02  0.14629761355E-01 -0.17043437001E-01  0.23307649274E-01  0.00000000000E+00 0.  1.
     999901    1    3    3    0    0 -0.33457267498E-01 -0.74595794837E-01 -0.95317641116E-01  0.88891471698E+00  0.88000000000E+00 0.  1.
        -11    1    4    4    0    0  0.17578530246E-01  0.41514257824E-01  0.57795337846E-01  0.73300753925E-01  0.51100000000E-03 0.  1.
         11    1    4    4    0    0  0.96547632340E-02  0.18451775658E-01  0.54565740271E-01  0.58406879821E-01  0.51100000000E-03 0. -1.
</event>
<event>
 8    1  0.1177602E+005  0.1043930E+01  0.7957747E-01            NaN
         13   -1    0    0    0    0  0.00000000000E+00  0.00000000000E+00  0.74505805969E-08  0.10566000000E+00  0.10566000000E+00 0. -1.
     999900   -1    0    0    0    0 -0.00000000000E+00 -0.00000000000E+00 -0.74505805969E-08  0.93827000000E+00  0.93827000000E+00 0.  1.
     999902    2    1    2    0    0 -0.21369997707E-01  0.62450110188E-02 -0.94833716305E-02  0.10197305929E+01  0.10194434123E+01 0.  0.
     999903    2    3    3    0    0 -0.13799704077E-01 -0.41188383142E-01  0.11974157046E+00  0.12899700657E+00  0.20378156698E-01 0.  0.
         14    1    1    2    0    0  0.21369997707E-01 -0.62450110188E-02  0.94833716305E-02  0.24199407061E-01  0.00000000000E+00 0. -1.
     999901    1    3    3    0    0 -0.75702936301E-02  0.47433394161E-01 -0.12922494209E+00  0.89073358637E+00  0.88000000000E+00 0.  1.
        -11    1    4    4    0    0  0.32638362859E-02 -0.15332380667E-01  0.55510090798E-01  0.57683323636E-01  0.51100000000E-03 0.  1.
         11    1    4    4    0    0 -0.17063540363E-01 -0.25856002475E-01  0.64231479657E-01  0.71313682935E-01  0.51100000000E-03 0. -1.
</event>
<event>
 8    1  0.1177602E+005  0.1043930E+01  0.7957747E-01            NaN
         13   -1    0    0    0    0  0.00000000000E+00  0.00000000000E+00  0.74505805969E-08  0.10566000000E+00  0.10566000000E+00 0. -1.
     999900   -1    0    0    0    0 -0.00000000000E+00 -0.00000000000E+00 -0.74505805969E-08  0.93827000000E+00  0.93827000000E+00 0.  1.
     999902    2    1    2    0    0  0.60553668348E-02 -0.56843920797E-02  0.21272608987E-01  0.10210935451E+01  0.10208381478E+01 0.  0.
     999903    2    3    3    0    0  0.41919968763E-01  0.12226990554E+00  0.71135945479E-02  0.13100419582E+00  0.20106777762E-01 0.  0.
         14    1    1    2    0    0 -0.60553668348E-02  0.56843920797E-02 -0.21272608987E-01  0.22836454934E-01  0.00000000000E+00 0.  1.
     999901    1    3    3    0    0 -0.35864601928E-01 -0.12795429762E+00  0.14159014439E-01  0.89008934925E+00  0.88000000000E+00 0.  1.
        -11    1    4    4    0    0  0.24483584109E-02  0.56451268042E-02 -0.40353183462E-02  0.73760986097E-02  0.51100000000E-03 0.  1.
         11    1    4    4    0    0  0.39471610352E-01  0.11662477874E+00  0.11148912894E-01  0.12362809721E+00  0.51100000000E-03 0. -1.
</event>
<event>
 8    1  0.1177602E+005  0.1043930E+01  0.7957747E-01            NaN
         13   -1    0    0    0    0  0.00000000000E+00  0.00000000000E+00  0.74505805969E-08  0.10566000000E+00  0.10566000000E+00 0. -1.
     999900   -1    0    0    0    0 -0.00000000000E+00 -0.00000000000E+00 -0.74505805969E-08  0.93827000000E+00  0.93827000000E+00 0. -1.
     999902    2    1    2    0    0  0.19728454624E-01 -0.11480777846E-01  0.10061309658E-01  0.10189850580E+01  0.10186796838E+01 0.  0.
     999903    2    3    3    0    0  0.31394986279E-01 -0.12088895169E+00  0.35835922128E-01  0.13175871304E+00  0.21825703706E-01 0.  0.
         14    1    1    2    0    0 -0.19728454624E-01  0.11480777846E-01 -0.10061309658E-01  0.24944942049E-01  0.00000000000E+00 0.  1.
     999901    1    3    3    0    0 -0.11666531656E-01  0.10940817384E+00 -0.25774612470E-01  0.88722634492E+00  0.88000000000E+00 0.  1.
        -11    1    4    4    0    0  0.76969576654E-02 -0.43803432867E-01  0.26694238226E-02  0.44557500298E-01  0.51100000000E-03 0.  1.
         11    1    4    4    0    0  0.23698028614E-01 -0.77085518821E-01  0.33166498305E-01  0.87201212738E-01  0.51100000000E-03 0. -1.
</event>
<event>
 8    1  0.1177602E+005  0.1043930E+01  0.7957747E-01            NaN
         13   -1    0    0    0    0  0.00000000000E+00  0.00000000000E+00  0.74505805969E-08  0.10566000000E+00  0.10566000000E+00 0.  1.
     999900   -1    0    0    0    0 -0.00000000000E+00 -0.00000000000E+00 -0.74505805969E-08  0.93827000000E+00  0.93827000000E+00 0.  1.
     999902    2    1    2    0    0 -0.84490858078E-02  0.22056178234E-01  0.44415717379E-02  0.10198969060E+01  0.10196137059E+01 0.  0.
     999903    2    3    3    0    0 -0.74338131055E-01  0.73618605831E-01  0.79553339228E-01  0.13274312683E+00  0.18605028477E-01 0.  0.
         14    1    1    2    0    0  0.84490858078E-02 -0.22056178234E-01 -0.44415717379E-02  0.24033094033E-01  0.00000000000E+00 0.  1.
     999901    1    3    3    0    0  0.65889045247E-01 -0.51562427597E-01 -0.75111767490E-01  0.88715377914E+00  0.88000000000E+00 0. -1.
        -11    1    4    4    0    0 -0.21146606560E-01  0.10453498619E-01  0.15454655016E-01  0.28205710150E-01  0.51100000000E-03 0. -1.
         11    1    4    4    0    0 -0.53191524495E-01  0.63165107212E-01  0.64098684212E-01  0.10453741668E+00  0.51100000000E-03 0.  1.
</event>
<event>
 8    1  0.1177602E+005  0.1043930E+01  0.7957747E-01            NaN
         13   -1    0    0    0    0  0.00000000000E+00  0.00000000000E+00  0.74505805969E-08  0.10566000000E+00  0.10566000000E+00 0. -1.
     999900   -1    0    0    0    0 -0.00000000000E+00 -0.00000000000E+00 -0.74505805969E-08  0.93827000000E+00  0.93827000000E+00 0.  1.
     999902    2    1    2    0    0 -0.22422858084E-01 -0.50582291909E-02 -0.47465163757E-02  0.10204587481E+01  0.10201887850E+01 0.  0.
     999903    2    3    3    0    0  0.22607521377E-01  0.12520352521E+00  0.13671387390E-02  0.12971005375E+00  0.25215198387E-01 0.  0.
         14    1    1    2    0    0  0.22422858084E-01  0.50582291909E-02  0.47465163757E-02  0.23471251882E-01  0.00000000000E+00 0. -1.
     999901    1    3    3    0    0 -0.45030379461E-01 -0.13026175440E+00 -0.61136551148E-02  0.89074869436E+00  0.88000000000E+00 0.  1.
        -11    1    4    4    0    0  0.15876274047E-01  0.81814373164E-01 -0.11063731972E-01  0.84073271734E-01  0.51100000000E-03 0. -1.
         11    1    4    4    0    0  0.67312473301E-02  0.43389152041E-01  0.12430870711E-01  0.45636782020E-01  0.51100000000E-03 0.  1.
</event>
<event>
 8    1  0.1177602E+005  0.1043930E+01  0.7957747E-01            NaN
         13   -1    0    0    0    0  0.00000000000E+00  0.00000000000E+00  0.74505805969E-08  0.10566000000E+00  0.10566000000E+00 0.  1.
     999900   -1    0    0    0    0 -0.00000000000E+00 -0.00000000000E+00 -0.74505805969E-08  0.93827000000E+00  0.93827000000E+00 0.  1.
     999902    2    1    2    0    0 -0.15788349073E-01  0.75999536987E-02 -0.14659214111E-01  0.10210843479E+01  0.10208287426E+01 0.  0.
     999903    2    3    3    0    0  0.10533464658E+00  0.71813154552E-01  0.14929789004E-01  0.12997850436E+00  0.20469393233E-01 0.  0.
         14    1    1    2    0    0  0.15788349073E-01 -0.75999536987E-02  0.14659214111E-01  0.22845652125E-01  0.00000000000E+00 0.  1.
     999901    1    3    3    0    0 -0.12112299565E+00 -0.64213200854E-01 -0.29589003115E-01  0.89110584351E+00  0.88000000000E+00 0.  1.
        -11    1    4    4    0    0  0.60910756420E-01  0.42167012291E-01 -0.14978408022E-02  0.74099135091E-01  0.51100000000E-03 0.  1.
         11    1    4    4    0    0  0.44423890159E-01  0.29646142262E-01  0.16427629806E-01  0.55879369270E-01  0.51100000000E-03 0. -1.
</event>
<event>
 8    1  0.1177602E+005  0.1043930E+01  0.7957747E-01            NaN
         13   -1    0    0    0    0  0.00000000000E+00  0.00000000000E+00  0.74505805969E-08  0.10566000000E+00  0.10566000000E+00 0.  1.
     999900   -1    0    0    0    0 -0.00000000000E+00 -0.00000000000E+00 -0.74505805969E-08  0.93827000000E+00  0.93827000000E+00 0.  1.
     999902    2    1    2    0    0 -0.10074828715E-01  0.51799963913E-02  0.21236254429E-01  0.10198610773E+01  0.10195770221E+01 0.  0.
     999903    2    3    3    0    0 -0.11234787955E+00  0.36198976522E-01  0.58586260366E-01  0.13260858959E+00  0.14841704419E-01 0.  0.
         14    1    1    2    0    0  0.10074828715E-01 -0.51799963913E-02 -0.21236254429E-01  0.24068922669E-01  0.00000000000E+00 0. -1.
     999901    1    3    3    0    0  0.10227305083E+00 -0.31018980130E-01 -0.37350005937E-01  0.88725248774E+00  0.88000000000E+00 0. -1.
        -11    1    4    4    0    0 -0.10782592946E+00  0.36293301133E-01  0.53314371061E-01  0.12564361525E+00  0.51100000000E-03 0.  1.
         11    1    4    4    0    0 -0.45219500900E-02 -0.94324611254E-04  0.52718893050E-02  0.69649743426E-02  0.51100000000E-03 0. -1.
</event>
<event>
 8    1  0.1177602E+005  0.1043930E+01  0.7957747E-01            NaN
         13   -1    0    0    0    0  0.00000000000E+00  0.00000000000E+00  0.74505805969E-08  0.10566000000E+00  0.10566000000E+00 0. -1.
     999900   -1    0    0    0    0 -0.00000000000E+00 -0.00000000000E+00 -0.74505805969E-08  0.93827000000E+00  0.93827000000E+00 0.  1.
     999902    2    1    2    0    0  0.95501101108E-02 -0.61983006015E-02 -0.19995191339E-01  0.10209206278E+01  0.10206613038E+01 0.  0.
     999903    2    3    3    0    0  0.43296480648E-02 -0.12411384831E+00 -0.41887503111E-01  0.13277052620E+00  0.21223960895E-01 0.  0.
         14    1    1    2    0    0 -0.95501101108E-02  0.61983006015E-02  0.19995191339E-01  0.23009372224E-01  0.00000000000E+00 0. -1.
     999901    1    3    3    0    0  0.52204620461E-02  0.11791554771E+00  0.21892311773E-01  0.88815010158E+00  0.88000000000E+00 0.  1.
        -11    1    4    4    0    0  0.12502382417E-01 -0.66243319157E-01 -0.25418501774E-01  0.72047541613E-01  0.51100000000E-03 0. -1.
         11    1    4    4    0    0 -0.81727343518E-02 -0.57870529151E-01 -0.16469001337E-01  0.60722984587E-01  0.51100000000E-03 0.  1.
</event>
<event>
 8    1  0.1177602E+005  0.1043930E+01  0.7957747E-01            NaN
         13   -1    0    0    0    0  0.00000000000E+00  0.00000000000E+00  0.74505805969E-08  0.10566000000E+00  0.10566000000E+00 0. -1.
     999900   -1    0    0    0    0 -0.00000000000E+00 -0.00000000000E+00 -0.74505805969E-08  0.93827000000E+00  0.93827000000E+00 0.  1.
     999902    2    1    2    0    0 -0.20987744299E-01  0.84423168905E-02 -0.67037301426E-02  0.10203355489E+01  0.10200627109E+01 0.  0.
     999903    2    3    3    0    0 -0.40010837189E-01  0.10586137081E+00  0.64787110200E-01  0.13187435650E+00  0.19646356709E-01 0.  0.
         14    1    1    2    0    0  0.20987744299E-01 -0.84423168905E-02  0.67037301426E-02  0.23594451107E-01  0.00000000000E+00 0.  1.
     999901    1    3    3    0    0  0.19023092890E-01 -0.97419053922E-01 -0.71490840343E-01  0.88846119239E+00  0.88000000000E+00 0.  1.
        -11    1    4    4    0    0 -0.23600631227E-01  0.53517132248E-01  0.22746672037E-01  0.62759425173E-01  0.51100000000E-03 0.  1.
         11    1    4    4    0    0 -0.16410205963E-01  0.52344238565E-01  0.42040438164E-01  0.69114931329E-01  0.51100000000E-03 0. -1.
</event>
<event>
 8    1  0.1177602E+005  0.1043930E+01  0.7957747E-01            NaN
         13   -1    0    0    0    0  0.00000000000E+00  0.00000000000E+00  0.74505805969E-08  0.10566000000E+00  0.10566000000E+00 0.  1.
     999900   -1    0    0    0    0 -0.00000000000E+00 -0.00000000000E+00 -0.74505805969E-08  0.93827000000E+00  0.93827000000E+00 0.  1.
     999902    2    1    2    0    0 -0.22408418002E-01 -0.88235124599E-02 -0.29938375529E-02  0.10196616125E+01  0.10193727725E+01 0.  0.
     999903    2    3    3    0    0  0.16309639783E-01  0.12437211887E+00 -0.20980640944E-01  0.12861521116E+00  0.19163949107E-01 0.  0.
         14    1    1    2    0    0  0.22408418002E-01  0.88235124599E-02  0.29938375529E-02  0.24268387519E-01  0.00000000000E+00 0. -1.
     999901    1    3    3    0    0 -0.38718057785E-01 -0.13319563133E+00  0.17986803391E-01  0.89104640132E+00  0.88000000000E+00 0. -1.
        -11    1    4    4    0    0  0.76183131281E-02  0.14474751002E-01  0.15418250922E-03  0.16365879284E-01  0.51100000000E-03 0.  1.
         11    1    4    4    0    0  0.86913266551E-02  0.10989736787E+00 -0.21134823453E-01  0.11224933188E+00  0.51100000000E-03 0. -1.
</event>
<event>
 8    1  0.1177602E+005  0.1043930E+01  0.7957747E-01            NaN
         13   -1    0    0    0    0  0.00000000000E+00  0.00000000000E+00  0.74505805969E-08  0.10566000000E+00  0.10566000000E+00 0. -1.
     999900   -1    0    0    0    0 -0.00000000000E+00 -0.00000000000E+00 -0.74505805969E-08  0.93827000000E+00  0.93827000000E+00 0. -1.
     999902    2    1    2    0    0  0.53119279633E-02 -0.25227271678E-01  0.14208377206E-02  0.10181104223E+01  0.10177829736E+01 0.  0.
     999903    2    3    3    0    0 -0.11756676393E+00 -0.47801935719E-01 -0.12843641523E-01  0.12917158086E+00  0.20331481339E-01 0.  0.
         14    1    1    2    0    0 -0.53119279633E-02  0.25227271678E-01 -0.14208377206E-02  0.25819577743E-01  0.00000000000E+00 0.  1.
     999901    1    3    3    0    0  0.12287869190E+00  0.22574664041E-01  0.14264479243E-01  0.88893884140E+00  0.88000000000E+00 0. -1.
        -11    1    4    4    0    0 -0.78611401300E-01 -0.21435710046E-01 -0.87546675974E-02  0.81952104337E-01  0.51100000000E-03 0. -1.
         11    1    4    4    0    0 -0.38955362635E-01 -0.26366225673E-01 -0.40889739251E-02  0.47219476522E-01  0.51100000000E-03 0.  1.
</event>
<event>
 8    1  0.1177602E+005  0.1043930E+01  0.7957747E-01            NaN
         13   -1    0    0    0    0  0.00000000000E+00  0.00000000000E+00  0.74505805969E-08  0.10566000000E+00  0.10566000000E+00 0.  1.
     999900   -1    0    0    0    0 -0.00000000000E+00 -0.00000000000E+00 -0.74505805969E-08  0.93827000000E+00  0.93827000000E+00 0. -1.
     999902    2    1    2    0    0  0.12451815531E-01  0.20140338589E-01  0.10897916984E-03  0.10202510468E+01  0.10199762280E+01 0.  0.
     999903    2    3    3    0    0  0.69137814048E-01  0.38660313044E-02 -0.10989352667E+00  0.13144358351E+00  0.20145592828E-01 0.  0.
         14    1    1    2    0    0 -0.12451815531E-01 -0.20140338589E-01 -0.10897916984E-03  0.23678953206E-01  0.00000000000E+00 0. -1.
     999901    1    3    3    0    0 -0.56685998516E-01  0.16274307284E-01  0.11000250584E+00  0.88880746329E+00  0.88000000000E+00 0.  1.
        -11    1    4    4    0    0  0.56807115010E-02 -0.50684530778E-02 -0.16481784961E-01  0.18162325189E-01  0.51100000000E-03 0.  1.
         11    1    4    4    0    0  0.63457102547E-01  0.89344843822E-02 -0.93411741713E-01  0.11328125832E+00  0.51100000000E-03 0. -1.
</event>
<event>
 8    1  0.1177602E+005  0.1043930E+01  0.7957747E-01            NaN
         13   -1    0    0    0    0  0.00000000000E+00  0.00000000000E+00  0.74505805969E-08  0.10566000000E+00  0.10566000000E+00 0. -1.
     999900   -1    0    0    0    0 -0.00000000000E+00 -0.00000000000E+00 -0.74505805969E-08  0.93827000000E+00  0.93827000000E+00 0. -1.
     999902    2    1    2    0    0  0.86580859233E-02 -0.13590679285E-01  0.17475362289E-01  0.10201590660E+01  0.10198820827E+01 0.  0.
     999903    2    3    3    0    0  0.10287402517E+00 -0.27704516051E-01  0.77202518013E-01  0.13300452665E+00  0.19477424292E-01 0.  0.
         14    1    1    2    0    0 -0.86580859233E-02  0.13590679285E-01 -0.17475362289E-01  0.23770933982E-01  0.00000000000E+00 0.  1.
     999901    1    3    3    0    0 -0.94215939245E-01  0.14113836766E-01 -0.59727155724E-01  0.88715453937E+00  0.88000000000E+00 0. -1.
        -11    1    4    4    0    0  0.38427634217E-01 -0.49827512629E-02  0.37734302625E-01  0.54089274328E-01  0.51100000000E-03 0. -1.
         11    1    4    4    0    0  0.64446390951E-01 -0.22721764788E-01  0.39468215388E-01  0.78915252319E-01  0.51100000000E-03 0.  1.
</event>
<event>
 8    1  0.1253806E+005  0.1043930E+01  0.7957747E-01            NaN
         13   -1    0    0    0    0  0.00000000000E+00  0.00000000000E+00  0.74505805969E-08  0.10566000000E+00  0.10566000000E+00 0. -1.
     999900   -1    0    0    0    0 -0.00000000000E+00 -0.00000000000E+00 -0.74505805969E-08  0.93827000000E+00  0.93827000000E+00 0.  1.
     999902    2    1    2    0    0 -0.12705984966E-01 -0.10631675169E-01 -0.18009583818E-01  0.10194592076E+01  0.10191654705E+01 0.  0.
     999903    2    3    3    0    0 -0.65723408853E-03 -0.11307585204E+00 -0.65403260356E-01  0.13216774346E+00  0.20103374746E-01 0.  0.
         14    1    1    2    0    0  0.12705984966E-01  0.10631675169E-01  0.18009583818E-01  0.24470792389E-01  0.00000000000E+00 0.  1.
     999901    1    3    3    0    0 -0.12048750877E-01  0.10244417687E+00  0.47393676538E-01  0.88729146415E+00  0.88000000000E+00 0.  1.
        -11    1    4    4    0    0  0.54620763967E-03 -0.63601127397E-01 -0.25242914729E-01  0.68431481162E-01  0.51100000000E-03 0.  1.
         11    1    4    4    0    0 -0.12034417282E-02 -0.49474724642E-01 -0.40160345627E-01  0.63736262302E-01  0.51100000000E-03 0. -1.
</event>
<event>
 8    1  0.1177602E+005  0.1043930E+01  0.7957747E-01            NaN
         13   -1    0    0    0    0  0.00000000000E+00  0.00000000000E+00  0.74505805969E-08  0.10566000000E+00  0.10566000000E+00 0. -1.
     999900   -1    0    0    0    0 -0.00000000000E+00 -0.00000000000E+00 -0.74505805969E-08  0.93827000000E+00  0.93827000000E+00 0.  1.
     999902    2    1    2    0    0  0.87329948257E-02 -0.81293452355E-02 -0.16530745556E-01  0.10235433131E+01  0.10233402645E+01 0.  0.
     999903    2    3    3    0    0 -0.10029744838E+00  0.36306983749E-01  0.73617785391E-01  0.13113702534E+00  0.19989143756E-01 0.  0.
         14    1    1    2    0    0 -0.87329948257E-02  0.81293452355E-02  0.16530745556E-01  0.20386686862E-01  0.00000000000E+00 0. -1.
     999901    1    3    3    0    0  0.10903044320E+00 -0.44436328985E-01 -0.90148530947E-01  0.89240628780E+00  0.88000000000E+00 0.  1.
        -11    1    4    4    0    0 -0.27011332480E-01  0.21033798620E-02  0.24382299209E-01  0.36452625761E-01  0.51100000000E-03 0. -1.
         11    1    4    4    0    0 -0.73286115897E-01  0.34203603887E-01  0.49235486182E-01  0.94684399574E-01  0.51100000000E-03 0.  1.
</event>
<event>
 8    1  0.1177602E+005  0.1043930E+01  0.7957747E-01            NaN
         13   -1    0    0    0    0  0.00000000000E+00  0.00000000000E+00  0.74505805969E-08  0.10566000000E+00  0.10566000000E+00 0.  1.
     999900   -1    0    0    0    0 -0.00000000000E+00 -0.00000000000E+00 -0.74505805969E-08  0.93827000000E+00  0.93827000000E+00 0.  1.
     999902    2    1    2    0    0 -0.15742659495E-01 -0.19521665560E-01  0.36146548301E-02  0.10185924294E+01  0.10182772436E+01 0.  0.
     999903    2    3    3    0    0 -0.54631450644E-01  0.73695492651E-01  0.88061642687E-01  0.12879859350E+00  0.20459807847E-01 0.  0.
         14    1    1    2    0    0  0.15742659495E-01  0.19521665560E-01 -0.36146548301E-02  0.25337570597E-01  0.00000000000E+00 0. -1.
     999901    1    3    3    0    0  0.38888791149E-01 -0.93217158210E-01 -0.84446987857E-01  0.88979383591E+00  0.88000000000E+00 0.  1.
        -11    1    4    4    0    0 -0.44392854818E-01  0.56215798051E-01  0.56237867303E-01  0.91070853456E-01  0.51100000000E-03 0. -1.
         11    1    4    4    0    0 -0.10238595826E-01  0.17479694600E-01  0.31823775384E-01  0.37727740039E-01  0.51100000000E-03 0.  1.
</event>
<event>
 8    1  0.1177602E+005  0.1043930E+01  0.7957747E-01            NaN
         13   -1    0    0    0    0  0.00000000000E+00  0.00000000000E+00  0.74505805969E-08  0.10566000000E+00  0.10566000000E+00 0. -1.
     999900   -1    0    0    0    0 -0.00000000000E+00 -0.00000000000E+00 -0.74505805969E-08  0.93827000000E+00  0.93827000000E+00 0.  1.
     999902    2    1    2    0    0  0.16327822245E-02  0.23034578622E-01 -0.44590531261E-02  0.10204110514E+01  0.10201399771E+01 0.  0.
     999903    2    3    3    0    0  0.55734217479E-01  0.17216039225E-01  0.11516468257E+00  0.13065228696E+00  0.20110220572E-01 0.  0.
         14    1    1    2    0    0 -0.16327822245E-02 -0.23034578622E-01  0.44590531261E-02  0.23518948634E-01  0.00000000000E+00 0.  1.
     999901    1    3    3    0    0 -0.54101435254E-01  0.58185393964E-02 -0.11962373570E+00  0.88975876441E+00  0.88000000000E+00 0.  1.
        -11    1    4    4    0    0  0.33582422715E-01  0.56051826608E-02  0.84339161931E-01  0.90953573565E-01  0.51100000000E-03 0.  1.
         11    1    4    4    0    0  0.22151794763E-01  0.11610856565E-01  0.30825520640E-01  0.39698713394E-01  0.51100000000E-03 0. -1.
</event>
<event>
 8    1  0.1177602E+005  0.1043930E+01  0.7957747E-01            NaN
         13   -1    0    0    0    0  0.00000000000E+00  0.00000000000E+00  0.74505805969E-08  0.10566000000E+00  0.10566000000E+00 0. -1.
     999900   -1    0    0    0    0 -0.00000000000E+00 -0.00000000000E+00 -0.74505805969E-08  0.93827000000E+00  0.93827000000E+00 0.  1.
     999902    2    1    2    0    0  0.22225573546E-01  0.11822835607E-01  0.46752401655E-02  0.10183250506E+01  0.10180030920E+01 0.  0.
     999903    2    3    3    0    0  0.46956315830E-01  0.74370676832E-02 -0.11883549716E+00  0.12934487830E+00  0.18655202618E-01 0.  0.
         14    1    1    2    0    0 -0.22225573546E-01 -0.11822835607E-01 -0.46752401655E-02  0.25604949362E-01  0.00000000000E+00 0. -1.
     999901    1    3    3    0    0 -0.24730742285E-01  0.43857679233E-02  0.12351073733E+00  0.88898017234E+00  0.88000000000E+00 0. -1.
        -11    1    4    4    0    0  0.38846578464E-01  0.11418992603E-01 -0.10728040398E+00  0.11466820069E+00  0.51100000000E-03 0.  1.
         11    1    4    4    0    0  0.81097373668E-02 -0.39819249202E-02 -0.11555093182E-01  0.14676677610E-01  0.51100000000E-03 0. -1.
</event>
<event>
 8    1  0.1177602E+005  0.1043930E+01  0.7957747E-01            NaN
         13   -1    0    0    0    0  0.00000000000E+00  0.00000000000E+00  0.74505805969E-08  0.10566000000E+00  0.10566000000E+00 0. -1.
     999900   -1    0    0    0    0 -0.00000000000E+00 -0.00000000000E+00 -0.74505805969E-08  0.93827000000E+00  0.93827000000E+00 0. -1.
     999902    2    1    2    0    0 -0.19021972458E-01 -0.15473670644E-02  0.15279261479E-01  0.10194823905E+01  0.10191892164E+01 0.  0.
     999903    2    3    3    0    0  0.39720760949E-01 -0.69363240101E-01 -0.97805647186E-01  0.12772126889E+00  0.18915072789E-01 0.  0.
         14    1    1    2    0    0  0.19021972458E-01  0.15473670644E-02 -0.15279261479E-01  0.24447609543E-01  0.00000000000E+00 0. -1.
     999901    1    3    3    0    0 -0.58742733407E-01  0.67815873037E-01  0.11308490867E+00  0.89176112156E+00  0.88000000000E+00 0.  1.
        -11    1    4    4    0    0  0.75417749890E-02 -0.47700314888E-02 -0.52854016110E-02  0.10384033974E-01  0.51100000000E-03 0. -1.
         11    1    4    4    0    0  0.32178985960E-01 -0.64593208613E-01 -0.92520245575E-01  0.11733723492E+00  0.51100000000E-03 0.  1.
</event>
<event>
 8    1  0.1177602E+005  0.1043930E+01  0.7957747E-01            NaN
         13   -1    0    0    0    0  0.00000000000E+00  0.00000000000E+00  0.74505805969E-08  0.10566000000E+00  0.10566000000E+00 0. -1.
     999900   -1    0    0    0    0 -0.00000000000E+00 -0.00000000000E+00 -0.74505805969E-08  0.93827000000E+00  0.93827000000E+00 0. -1.
     999902    2    1    2    0    0 -0.36725917455E-02 -0.17499926060E-01 -0.97204517130E-02  0.10235775426E+01  0.10233751820E+01 0.  0.
     999903    2    3    3    0    0 -0.51543417793E-01 -0.11633131084E+00 -0.44048835084E-01  0.13608799530E+00  0.19747019829E-01 0.  0.
         14    1    1    2    0    0  0.36725917455E-02  0.17499926060E-01  0.97204517130E-02  0.20352457437E-01  0.00000000000E+00 0. -1.
     999901    1    3    3    0    0  0.47870826047E-01  0.98831384779E-01  0.34328383371E-01  0.88748954727E+00  0.88000000000E+00 0.  1.
        -11    1    4    4    0    0 -0.44199064202E-01 -0.77914934401E-01 -0.32665320305E-01  0.95349769537E-01  0.51100000000E-03 0. -1.
         11    1    4    4    0    0 -0.73443535904E-02 -0.38416376438E-01 -0.11383514779E-01  0.40738225759E-01  0.51100000000E-03 0.  1.
</event>
<event>
 8    1  0.1177602E+005  0.1043930E+01  0.7957747E-01            NaN
         13   -1    0    0    0    0  0.00000000000E+00  0.00000000000E+00  0.74505805969E-08  0.10566000000E+00  0.10566000000E+00 0.  1.
     999900   -1    0    0    0    0 -0.00000000000E+00 -0.00000000000E+00 -0.74505805969E-08  0.93827000000E+00  0.93827000000E+00 0.  1.
     999902    2    1    2    0    0 -0.11485651638E-01  0.17589874408E-01  0.35730752919E-02  0.10226205950E+01  0.10223985478E+01 0.  0.
     999903    2    3    3    0    0 -0.11961209071E+00  0.38411804844E-01 -0.43609696726E-01  0.13450399588E+00  0.20174247570E-01 0.  0.
         14    1    1    2    0    0  0.11485651638E-01 -0.17589874408E-01 -0.35730752919E-02  0.21309405020E-01  0.00000000000E+00 0. -1.
     999901    1    3    3    0    0  0.10812643907E+00 -0.20821930436E-01  0.47182772018E-01  0.88811659910E+00  0.88000000000E+00 0. -1.
        -11    1    4    4    0    0 -0.10738852378E-01  0.59159055693E-02 -0.10519597209E-01  0.16163042273E-01  0.51100000000E-03 0.  1.
         11    1    4    4    0    0 -0.10887323833E+00  0.32495899275E-01 -0.33090099518E-01  0.11834095361E+00  0.51100000000E-03 0. -1.
</event>
<event>
 8    1  0.1177602E+005  0.1043930E+01  0.7957747E-01            NaN
         13   -1    0    0    0    0  0.00000000000E+00  0.00000000000E+00  0.74505805969E-08  0.10566000000E+00  0.10566000000E+00 0.  1.
     999900   -1    0    0    0    0 -0.00000000000E+00 -0.00000000000E+00 -0.74505805969E-08  0.93827000000E+00  0.93827000000E+00 0.  1.
     999902    2    1    2    0    0  0.10892399852E-01  0.70703834927E-02  0.19639006030E-01  0.10203858870E+01  0.10201142256E+01 0.  0.
     999903    2    3    3    0    0 -0.96178255961E-01  0.65667597380E-01  0.56801718484E-01  0.13118465784E+00  0.20505827575E-01 0.  0.
         14    1    1    2    0    0 -0.10892399852E-01 -0.70703834927E-02 -0.19639006030E-01  0.23544112961E-01  0.00000000000E+00 0. -1.
     999901    1    3    3    0    0  0.10707065581E+00 -0.58597213888E-01 -0.37162712453E-01  0.88920122920E+00  0.88000000000E+00 0. -1.
        -11    1    4    4    0    0 -0.42227410347E-01  0.27483573271E-01  0.13492164922E-01  0.52161294267E-01  0.51100000000E-03 0.  1.
         11    1    4    4    0    0 -0.53950845614E-01  0.38184024110E-01  0.43309553562E-01  0.79023363573E-01  0.51100000000E-03 0. -1.
</event>
<event>
 8    1  0.1177602E+005  0.1043930E+01  0.7957747E-01            NaN
         13   -1    0    0    0    0  0.00000000000E+00  0.00000000000E+00  0.74505805969E-08  0.10566000000E+00  0.10566000000E+00 0. -1.
     999900   -1    0    0    0    0 -0.00000000000E+00 -0.00000000000E+00 -0.74505805969E-08  0.93827000000E+00  0.93827000000E+00 0. -1.
     999902    2    1    2    0    0  0.21267677006E-01 -0.41508315374E-02 -0.75556379214E-02  0.10209815545E+01  0.10207236175E+01 0.  0.
     999903    2    3    3    0    0  0.57080562748E-02 -0.47236889564E-02  0.12871201753E+00  0.13035744528E+00  0.19271350196E-01 0.  0.
         14    1    1    2    0    0 -0.21267677006E-01  0.41508315374E-02  0.75556379214E-02  0.22948445527E-01  0.00000000000E+00 0. -1.
     999901    1    3    3    0    0  0.15559620731E-01  0.57285741899E-03 -0.13626765545E+00  0.89062410920E+00  0.88000000000E+00 0. -1.
        -11    1    4    4    0    0 -0.41385919350E-02  0.42220000236E-02  0.64941211282E-01  0.65211772490E-01  0.51100000000E-03 0.  1.
         11    1    4    4    0    0  0.98466482098E-02 -0.89456889800E-02  0.63770806247E-01  0.65145672786E-01  0.51100000000E-03 0. -1.
</event>
<event>
 8    1  0.1177602E+005  0.1043930E+01  0.7957747E-01            NaN
         13   -1    0    0    0    0  0.00000000000E+00  0.00000000000E+00  0.74505805969E-08  0.10566000000E+00  0.10566000000E+00 0. -1.
     999900   -1    0    0    0    0 -0.00000000000E+00 -0.00000000000E+00 -0.74505805969E-08  0.93827000000E+00  0.93827000000E+00 0. -1.
     999902    2    1    2    0    0 -0.16049938816E-01  0.17133421207E-01  0.53618350834E-02  0.10198488054E+01  0.10195644570E+01 0.  0.
     999903    2    3    3    0    0  0.34691816983E-01  0.80342875427E-01 -0.94661082703E-01  0.13048119581E+00  0.20152470945E-01 0.  0.
         14    1    1    2    0    0  0.16049938816E-01 -0.17133421207E-01 -0.53618350834E-02  0.24081194607E-01  0.00000000000E+00 0. -1.
     999901    1    3    3    0    0 -0.50741755799E-01 -0.63209454221E-01  0.10002291779E+00  0.88936760958E+00  0.88000000000E+00 0. -1.
        -11    1    4    4    0    0  0.48350820900E-02  0.16963935521E-01 -0.31726363848E-01  0.36303944844E-01  0.51100000000E-03 0.  1.
         11    1    4    4    0    0  0.29856734893E-01  0.63378939906E-01 -0.62934718855E-01  0.94177250971E-01  0.51100000000E-03 0. -1.
</event>
<event>
 8    1  0.1177602E+005  0.1043930E+01  0.7957747E-01            NaN
         13   -1    0    0    0    0  0.00000000000E+00  0.00000000000E+00  0.74505805969E-08  0.10566000000E+00  0.10566000000E+00 0.  1.
     999900   -1    0    0    0    0 -0.00000000000E+00 -0.00000000000E+00 -0.74505805969E-08  0.93827000000E+00  0.93827000000E+00 0. -1.
     999902    2    1    2    0    0 -0.41675871817E-02 -0.22661422104E-01 -0.17697851000E-01  0.10148762091E+01  0.10144602491E+01 0.  0.
     999903    2    3    3    0    0  0.77749267914E-01 -0.82565780206E-01  0.51820026427E-01  0.12632028035E+00  0.20234657542E-01 0.  0.
         14    1    1    2    0    0  0.41675871817E-02  0.22661422104E-01  0.17697851000E-01  0.29053790884E-01  0.00000000000E+00 0.  1.
     999901    1    3    3    0    0 -0.81916855096E-01  0.59904358102E-01 -0.69517877427E-01  0.88855592877E+00  0.88000000000E+00 0. -1.
        -11    1    4    4    0    0  0.24799698464E-01 -0.16564924998E-01  0.20029196414E-01  0.35928423484E-01  0.51100000000E-03 0.  1.
         11    1    4    4    0    0  0.52949569450E-01 -0.66000855208E-01  0.31790830013E-01  0.90391856863E-01  0.51100000000E-03 0. -1.
</event>
<event>
 8    1  0.1177602E+005  0.1043930E+01  0.7957747E-01            NaN
         13   -1    0    0    0    0  0.00000000000E+00  0.00000000000E+00  0.74505805969E-08  0.10566000000E+00  0.10566000000E+00 0.  1.
     999900   -1    0    0    0    0 -0.00000000000E+00 -0.00000000000E+00 -0.74505805969E-08  0.93827000000E+00  0.93827000000E+00 0. -1.
     999902    2    1    2    0    0 -0.56279888151E-02 -0.20861422222E-01  0.10750149792E-01  0.10197962287E+01  0.10195106224E+01 0.  0.
     999903    2    3    3    0    0  0.21674414519E-01  0.97837153491E-01  0.78486662262E-01  0.12882877241E+00  0.19869765943E-01 0.  0.
         14    1    1    2    0    0  0.56279888151E-02  0.20861422222E-01 -0.10750149792E-01  0.24133771272E-01  0.00000000000E+00 0. -1.
     999901    1    3    3    0    0 -0.27302403334E-01 -0.11869857571E+00 -0.67736512469E-01  0.89096745632E+00  0.88000000000E+00 0. -1.
        -11    1    4    4    0    0  0.56586577729E-02  0.59414295711E-01  0.37986345763E-01  0.70748162719E-01  0.51100000000E-03 0. -1.
         11    1    4    4    0    0  0.16015756746E-01  0.38422857780E-01  0.40500316499E-01  0.58080609687E-01  0.51100000000E-03 0.  1.
</event>
<event>
 8    1  0.1177602E+005  0.1043930E+01  0.7957747E-01            NaN
         13   -1    0    0    0    0  0.00000000000E+00  0.00000000000E+00  0.74505805969E-08  0.10566000000E+00  0.10566000000E+00 0. -1.
     999900   -1    0    0    0    0 -0.00000000000E+00 -0.00000000000E+00 -0.74505805969E-08  0.93827000000E+00  0.93827000000E+00 0. -1.
     999902    2    1    2    0    0  0.41474434285E-02  0.21052709237E-01 -0.79705260287E-02  0.10210401084E+01  0.10207835009E+01 0.  0.
     999903    2    3    3    0    0  0.16089076335E-01 -0.87646912951E-01 -0.92637619366E-01  0.13023893687E+00  0.20966936576E-01 0.  0.
         14    1    1    2    0    0 -0.41474434285E-02 -0.21052709237E-01  0.79705260287E-02  0.22889891620E-01  0.00000000000E+00 0. -1.
     999901    1    3    3    0    0 -0.11941632907E-01  0.10869962219E+00  0.84667093337E-01  0.89080117150E+00  0.88000000000E+00 0.  1.
        -11    1    4    4    0    0  0.11668023550E-01 -0.64744287496E-01 -0.80421998992E-01  0.10390343873E+00  0.51100000000E-03 0. -1.
         11    1    4    4    0    0  0.44210527855E-02 -0.22902625454E-01 -0.12215620374E-01  0.26335498145E-01  0.51100000000E-03 0.  1.
</event>
<event>
 8    1  0.1177602E+005  0.1043930E+01  0.7957747E-01            NaN
         13   -1    0    0    0    0  0.00000000000E+00  0.00000000000E+00  0.74505805969E-08  0.10566000000E+00  0.10566000000E+00 0. -1.
     999900   -1    0    0    0    0 -0.00000000000E+00 -0.00000000000E+00 -0.74505805969E-08  0.93827000000E+00  0.93827000000E+00 0.  1.
     999902    2    1    2    0    0 -0.20462185050E-01  0.89911068186E-02  0.70404870020E-02  0.10204969149E+01  0.10202278392E+01 0.  0.
     999903    2    3    3    0    0  0.67659482460E-01 -0.96662863038E-01  0.47880055110E-01  0.12887139939E+00  0.19844980376E-01 0.  0.
         14    1    1    2    0    0  0.20462185050E-01 -0.89911068186E-02 -0.70404870020E-02  0.23433085074E-01  0.00000000000E+00 0. -1.
     999901    1    3    3    0    0 -0.88121667510E-01  0.10565396986E+00 -0.40839568108E-01  0.89162551554E+00  0.88000000000E+00 0. -1.
        -11    1    4    4    0    0  0.22026078799E-01 -0.27946826157E-01  0.24249803515E-01  0.43063758905E-01  0.51100000000E-03 0. -1.
         11    1    4    4    0    0  0.45633403661E-01 -0.68716036880E-01  0.23630251596E-01  0.85807640486E-01  0.51100000000E-03 0.  1.
</event>
<event>
 8    1  0.1177602E+005  0.1043930E+01  0.7957747E-01            NaN
         13   -1    0    0    0    0  0.00000000000E+00  0.00000000000E+00  0.74505805969E-08  0.10566000000E+00  0.10566000000E+00 0.  1.
     999900   -1    0    0    0    0 -0.00000000000E+00 -0.00000000000E+00 -0.74505805969E-08  0.93827000000E+00  0.93827000000E+00 0. -1.
     999902    2    1    2    0    0  0.21045373353E-01  0.22088329900E-01  0.28423531567E-02  0.10132888344E+01  0.10128254444E+01 0.  0.
     999903    2    3    3    0    0 -0.73219505857E-01 -0.58192721636E-01 -0.74712413814E-01  0.12124306396E+00  0.19246996960E-01 0.  0.
         14    1    1    2    0    0 -0.21045373353E-01 -0.22088329900E-01 -0.28423531567E-02  0.30641165592E-01  0.00000000000E+00 0.  1.
     999901    1    3    3    0    0  0.94264879211E-01  0.80281051536E-01  0.77554766970E-01  0.89204577044E+00  0.88000000000E+00 0.  1.
        -11    1    4    4    0    0 -0.11616293907E-01 -0.18055989160E-01 -0.11979744537E-01  0.24591307994E-01  0.51100000000E-03 0.  1.
         11    1    4    4    0    0 -0.61603211950E-01 -0.40136732477E-01 -0.62732669277E-01  0.96651755970E-01  0.51100000000E-03 0. -1.
</event>
<event>
 8    1  0.1177602E+005  0.1043930E+01  0.7957747E-01            NaN
         13   -1    0    0    0    0  0.00000000000E+00  0.00000000000E+00  0.74505805969E-08  0.10566000000E+00  0.10566000000E+00 0.  1.
     999900   -1    0    0    0    0 -0.00000000000E+00 -0.00000000000E+00 -0.74505805969E-08  0.93827000000E+00  0.93827000000E+00 0.  1.
     999902    2    1    2    0    0 -0.63255135190E-02 -0.99394300293E-02  0.19175379933E-01  0.10214244543E+01  0.10211764864E+01 0.  0.
     999903    2    3    3    0    0  0.39773386069E-01  0.73181659696E-01 -0.97624899010E-01  0.12863302893E+00  0.88519867324E-02 0.  0.
         14    1    1    2    0    0  0.63255135190E-02  0.99394300293E-02 -0.19175379933E-01  0.22505545676E-01  0.00000000000E+00 0. -1.
     999901    1    3    3    0    0 -0.46098899588E-01 -0.83121089725E-01  0.11680027894E+00  0.89279142540E+00  0.88000000000E+00 0. -1.
        -11    1    4    4    0    0  0.24474509349E-01  0.40447854492E-01 -0.61063877366E-01  0.77227513108E-01  0.51100000000E-03 0.  1.
         11    1    4    4    0    0  0.15298876720E-01  0.32733805203E-01 -0.36561021644E-01  0.51405515819E-01  0.51100000000E-03 0. -1.
</event>
<event>
 8    1  0.1177602E+005  0.1043930E+01  0.7957747E-01            NaN
         13   -1    0    0    0    0  0.00000000000E+00  0.00000000000E+00  0.74505805969E-08  0.10566000000E+00  0.10566000000E+00 0. -1.
     999900   -1    0    0    0    0 -0.00000000000E+00 -0.00000000000E+00 -0.74505805969E-08  0.93827000000E+00  0.93827000000E+00 0. -1.
     999902    2    1    2    0    0  0.18834850628E-01 -0.59848228252E-02  0.94987122732E-02  0.10220029565E+01  0.10217677074E+01 0.  0.
     999903    2    3    3    0    0 -0.80186023081E-01  0.13241307944E-01  0.10249970497E+00  0.13137174090E+00  0.12133188117E-01 0.  0.
         14    1    1    2    0    0 -0.18834850628E-01  0.59848228252E-02 -0.94987122732E-02  0.21927043514E-01  0.00000000000E+00 0.  1.
     999901    1    3    3    0    0  0.99020873709E-01 -0.19226130770E-01 -0.93000992699E-01  0.89063121559E+00  0.88000000000E+00 0. -1.
        -11    1    4    4    0    0 -0.37418829664E-01  0.11984128689E-02  0.41338303965E-01  0.55773842458E-01  0.51100000000E-03 0. -1.
         11    1    4    4    0    0 -0.42767193417E-01  0.12042895075E-01  0.61161401007E-01  0.75597898441E-01  0.51100000000E-03 0.  1.
</event>
<event>
 8    1  0.1177602E+005  0.1043930E+01  0.7957747E-01            NaN
         13   -1    0    0    0    0  0.00000000000E+00  0.00000000000E+00  0.74505805969E-08  0.10566000000E+00  0.10566000000E+00 0.  1.
     999900   -1    0    0    0    0 -0.00000000000E+00 -0.00000000000E+00 -0.74505805969E-08  0.93827000000E+00  0.93827000000E+00 0.  1.
     999902    2    1    2    0    0 -0.28286487055E-02 -0.10321683298E-01  0.18761768715E-01  0.10223304082E+01  0.10221022068E+01 0.  0.
     999903    2    3    3    0    0 -0.25709539201E-01  0.11086279967E+00  0.64857325045E-01  0.13253604188E+00  0.20193786911E-01 0.  0.
         14    1    1    2    0    0  0.28286487055E-02  0.10321683298E-01 -0.18761768715E-01  0.21599591777E-01  0.00000000000E+00 0. -1.
     999901    1    3    3    0    0  0.22880890496E-01 -0.12118448296E+00 -0.46095556330E-01  0.88979436634E+00  0.88000000000E+00 0.  1.
        -11    1    4    4    0    0 -0.74694802047E-02  0.51508250385E-01  0.19267474613E-01  0.55501258465E-01  0.51100000000E-03 0. -1.
         11    1    4    4    0    0 -0.18240058997E-01  0.59354549280E-01  0.45589850431E-01  0.77034783415E-01  0.51100000000E-03 0.  1.
</event>
<event>
 8    1  0.1177602E+005  0.1043930E+01  0.7957747E-01            NaN
         13   -1    0    0    0    0  0.00000000000E+00  0.00000000000E+00  0.74505805969E-08  0.10566000000E+00  0.10566000000E+00 0. -1.
     999900   -1    0    0    0    0 -0.00000000000E+00 -0.00000000000E+00 -0.74505805969E-08  0.93827000000E+00  0.93827000000E+00 0. -1.
     999902    2    1    2    0    0  0.76572827627E-02  0.70529572197E-02 -0.20928340354E-01  0.10205553639E+01  0.10202876443E+01 0.  0.
     999903    2    3    3    0    0 -0.78810751407E-01 -0.99340792573E-01  0.14233358450E-01  0.12924582392E+00  0.20546700477E-01 0.  0.
         14    1    1    2    0    0 -0.76572827627E-02 -0.70529572197E-02  0.20928340354E-01  0.23374636143E-01  0.00000000000E+00 0. -1.
     999901    1    3    3    0    0  0.86468034170E-01  0.10639374979E+00 -0.35161698804E-01  0.89130953994E+00  0.88000000000E+00 0. -1.
        -11    1    4    4    0    0 -0.78732577168E-01 -0.93014877853E-01  0.11745954249E-01  0.12242881512E+00  0.51100000000E-03 0. -1.
         11    1    4    4    0    0 -0.78174238810E-04 -0.63259147200E-02  0.24874042010E-02  0.68170087953E-02  0.51100000000E-03 0.  1.
</event>
<event>
 8    1  0.1177602E+005  0.1043930E+01  0.7957747E-01            NaN
         13   -1    0    0    0    0  0.00000000000E+00  0.00000000000E+00  0.74505805969E-08  0.10566000000E+00  0.10566000000E+00 0. -1.
     999900   -1    0    0    0    0 -0.00000000000E+00 -0.00000000000E+00 -0.74505805969E-08  0.93827000000E+00  0.93827000000E+00 0. -1.
     999902    2    1    2    0    0 -0.19360122208E-01 -0.92119017535E-02 -0.11594677833E-01  0.10195556278E+01  0.10192642288E+01 0.  0.
     999903    2    3    3    0    0  0.11105216537E+00 -0.53373370451E-01 -0.31170922982E-01  0.12863429040E+00  0.19845758286E-01 0.  0.
         14    1    1    2    0    0  0.19360122208E-01  0.92119017535E-02  0.11594677833E-01  0.24374372194E-01  0.00000000000E+00 0. -1.
     999901    1    3    3    0    0 -0.13041228757E+00  0.44161468697E-01  0.19576245150E-01  0.89092133740E+00  0.88000000000E+00 0. -1.
        -11    1    4    4    0    0  0.57336233384E-01 -0.20250433318E-01 -0.22930672799E-01  0.64989234372E-01  0.51100000000E-03 0. -1.
         11    1    4    4    0    0  0.53715931981E-01 -0.33122937133E-01 -0.82402501830E-02  0.63645056029E-01  0.51100000000E-03 0.  1.
</event>
<event>
 8    1  0.1177602E+005  0.1043930E+01  0.7957747E-01            NaN
         13   -1    0    0    0    0  0.00000000000E+00  0.00000000000E+00  0.74505805969E-08  0.10566000000E+00  0.10566000000E+00 0.  1.
     999900   -1    0    0    0    0 -0.00000000000E+00 -0.00000000000E+00 -0.74505805969E-08  0.93827000000E+00  0.93827000000E+00 0.  1.
     999902    2    1    2    0    0  0.13502307123E-01 -0.13565316215E-01 -0.24558670482E-02  0.10246333323E+01  0.10244516115E+01 0.  0.
     999903    2    3    3    0    0  0.22536988595E-01 -0.70225248613E-01 -0.11227127098E+00  0.13595375205E+00  0.20954307697E-01 0.  0.
         14    1    1    2    0    0 -0.13502307123E-01  0.13565316215E-01  0.24558670482E-02  0.19296667707E-01  0.00000000000E+00 0.  1.
     999901    1    3    3    0    0 -0.90346814726E-02  0.56659932399E-01  0.10981540393E+00  0.88867958025E+00  0.88000000000E+00 0. -1.
        -11    1    4    4    0    0  0.13625062356E-01 -0.16460010706E-01 -0.40949522271E-01  0.46191977354E-01  0.51100000000E-03 0.  1.
         11    1    4    4    0    0  0.89119262394E-02 -0.53765237907E-01 -0.71321748705E-01  0.89761774692E-01  0.51100000000E-03 0. -1.
</event>
<event>
 8    1  0.1177602E+005  0.1043930E+01  0.7957747E-01            NaN
         13   -1    0    0    0    0  0.00000000000E+00  0.00000000000E+00  0.74505805969E-08  0.10566000000E+00  0.10566000000E+00 0. -1.
     999900   -1    0    0    0    0 -0.00000000000E+00 -0.00000000000E+00 -0.74505805969E-08  0.93827000000E+00  0.93827000000E+00 0.  1.
     999902    2    1    2    0    0 -0.21974271266E-01 -0.78803155115E-02  0.33329926179E-02  0.10203487191E+01  0.10200761892E+01 0.  0.
     999903    2    3    3    0    0  0.10771668225E+00 -0.22077279445E-01  0.63914543265E-01  0.12866972892E+00  0.19507444672E-01 0.  0.
         14    1    1    2    0    0  0.21974271266E-01  0.78803155115E-02 -0.33329926179E-02  0.23581280924E-01  0.00000000000E+00 0. -1.
     999901    1    3    3    0    0 -0.12969095351E+00  0.14196963934E-01 -0.60581550647E-01  0.89167899016E+00  0.88000000000E+00 0.  1.
        -11    1    4    4    0    0  0.31781724515E-01 -0.18073465632E-02  0.27408151571E-01  0.42009670414E-01  0.51100000000E-03 0. -1.
         11    1    4    4    0    0  0.75934957731E-01 -0.20269932882E-01  0.36506391693E-01  0.86660058505E-01  0.51100000000E-03 0.  1.
</event>
<event>
 8    1  0.1177602E+005  0.1043930E+01  0.7957747E-01            NaN
         13   -1    0    0    0    0  0.00000000000E+00  0.00000000000E+00  0.74505805969E-08  0.10566000000E+00  0.10566000000E+00 0.  1.
     999900   -1    0    0    0    0 -0.00000000000E+00 -0.00000000000E+00 -0.74505805969E-08  0.93827000000E+00  0.93827000000E+00 0. -1.
     999902    2    1    2    0    0 -0.16153199950E-01  0.42685936898E-02  0.22391736948E-02  0.10270729344E+01  0.10269345899E+01 0.  0.
     999903    2    3    3    0    0  0.38271340183E-01 -0.10277529958E+00 -0.76928801976E-01  0.13539586619E+00  0.19660679699E-01 0.  0.
         14    1    1    2    0    0  0.16153199950E-01 -0.42685936898E-02 -0.22391736948E-02  0.16857065567E-01  0.00000000000E+00 0.  1.
     999901    1    3    3    0    0 -0.54424540133E-01  0.10704389327E+00  0.79167975671E-01  0.89167706824E+00  0.88000000000E+00 0. -1.
        -11    1    4    4    0    0  0.32377976684E-01 -0.62669025271E-01 -0.43721665604E-01  0.82991477073E-01  0.51100000000E-03 0. -1.
         11    1    4    4    0    0  0.58933634990E-02 -0.40106274304E-01 -0.33207136372E-01  0.52404389119E-01  0.51100000000E-03 0.  1.
</event>
<event>
 8    1  0.1177602E+005  0.1043930E+01  0.7957747E-01            NaN
         13   -1    0    0    0    0  0.00000000000E+00  0.00000000000E+00  0.74505805969E-08  0.10566000000E+00  0.10566000000E+00 0. -1.
     999900   -1    0    0    0    0 -0.00000000000E+00 -0.00000000000E+00 -0.74505805969E-08  0.93827000000E+00  0.93827000000E+00 0.  1.
     999902    2    1    2    0    0  0.78914867948E-02  0.17882922917E-01 -0.14924419871E-01  0.10193370578E+01  0.10190403450E+01 0.  0.
     999903    2    3    3    0    0 -0.42506642454E-01 -0.60546539864E-02 -0.12202697679E+00  0.13108938026E+00  0.21221900557E-01 0.  0.
         14    1    1    2    0    0 -0.78914867948E-02 -0.17882922917E-01  0.14924419871E-01  0.24592942166E-01  0.00000000000E+00 0. -1.
     999901    1    3    3    0    0  0.50398129249E-01  0.23937576903E-01  0.10710255692E+00  0.88824767758E+00  0.88000000000E+00 0. -1.
        -11    1    4    4    0    0 -0.30895193344E-01  0.56181628367E-02 -0.78441502001E-01  0.84495012176E-01  0.51100000000E-03 0.  1.
         11    1    4    4    0    0 -0.11611449110E-01 -0.11672816823E-01 -0.43585474793E-01  0.46594368082E-01  0.51100000000E-03 0. -1.
</event>
<event>
 8    1  0.1177602E+005  0.1043930E+01  0.7957747E-01            NaN
         13   -1    0    0    0    0  0.00000000000E+00  0.00000000000E+00  0.74505805969E-08  0.10566000000E+00  0.10566000000E+00 0.  1.
     999900   -1    0    0    0    0 -0.00000000000E+00 -0.00000000000E+00 -0.74505805969E-08  0.93827000000E+00  0.93827000000E+00 0.  1.
     999902    2    1    2    0    0 -0.24473341252E-02  0.42824994645E-03 -0.23077875716E-01  0.10207187702E+01  0.10204548234E+01 0.  0.
     999903    2    3    3    0    0  0.83012701929E-01 -0.43472192126E-01  0.86111139829E-01  0.12878104382E+00  0.19710116089E-01 0.  0.
         14    1    1    2    0    0  0.24473341252E-02 -0.42824994645E-03  0.23077875716E-01  0.23211229823E-01  0.00000000000E+00 0.  1.
     999901    1    3    3    0    0 -0.85460036054E-01  0.43900442072E-01 -0.10918901554E+00  0.89193772635E+00  0.88000000000E+00 0.  1.
        -11    1    4    4    0    0  0.15128327121E-01 -0.12006020442E-01  0.28108459246E-01  0.34108025603E-01  0.51100000000E-03 0. -1.
         11    1    4    4    0    0  0.67884374807E-01 -0.31466171683E-01  0.58002680582E-01  0.94673018221E-01  0.51100000000E-03 0.  1.
</event>
<event>
 8    1  0.1177602E+005  0.1043930E+01  0.7957747E-01            NaN
         13   -1    0    0    0    0  0.00000000000E+00  0.00000000000E+00  0.74505805969E-08  0.10566000000E+00  0.10566000000E+00 0.  1.
     999900   -1    0    0    0    0 -0.00000000000E+00 -0.00000000000E+00 -0.74505805969E-08  0.93827000000E+00  0.93827000000E+00 0.  1.
     999902    2    1    2    0    0 -0.23337400721E-01 -0.17437436968E-02  0.36115965988E-03  0.10205247580E+01  0.10202563288E+01 0.  0.
     999903    2    3    3    0    0 -0.10147934156E+00  0.60972209875E-01 -0.56564163320E-01  0.13301140821E+00  0.21837193057E-01 0.  0.
         14    1    1    2    0    0  0.23337400721E-01  0.17437436968E-02 -0.36115965988E-03  0.23405241951E-01  0.00000000000E+00 0.  1.
     999901    1    3    3    0    0  0.78141940839E-01 -0.62715953571E-01  0.56925322980E-01  0.88751334984E+00  0.88000000000E+00 0. -1.
        -11    1    4    4    0    0 -0.74251828988E-01  0.41787208643E-01 -0.29750522884E-01  0.90248876154E-01  0.51100000000E-03 0.  1.
         11    1    4    4    0    0 -0.27227512572E-01  0.19185001232E-01 -0.26813640436E-01  0.42762532053E-01  0.51100000000E-03 0. -1.
</event>
<event>
 7    1  0.1177602E+005  0.1043930E+01  0.7957747E-01            NaN
         13   -1    0    0    0    0  0.00000000000E+00  0.00000000000E+00  0.74505805969E-08  0.10566000000E+00  0.10566000000E+00 0. -1.
     999900   -1    0    0    0    0 -0.00000000000E+00 -0.00000000000E+00 -0.74505805969E-08  0.93827000000E+00  0.93827000000E+00 0. -1.
     999902    2    1    2    0    0 -0.42544642967E-02  0.15843558795E-01 -0.17714036871E-01  0.10197865553E+01  0.10195007172E+01 0.  0.
         14    1    1    2    0    0  0.42544642967E-02 -0.15843558795E-01  0.17714036871E-01  0.24143444742E-01  0.00000000000E+00 0. -1.
     999901    1    3    3    0    0  0.11082638937E+00 -0.48120277457E-02  0.30525841720E-01  0.88748942033E+00  0.88000000000E+00 0.  1.
        -11    1    3    3    0    0 -0.58667219238E-01 -0.47624550597E-02 -0.36660722245E-01  0.69345463210E-01  0.51100000000E-03 0.  1.
         11    1    3    3    0    0 -0.56413634434E-01  0.25418041600E-01 -0.11579156347E-01  0.62951671714E-01  0.51100000000E-03 0. -1.
</event>
<event>
 8    1  0.1177602E+005  0.1043930E+01  0.7957747E-01            NaN
         13   -1    0    0    0    0  0.00000000000E+00  0.00000000000E+00  0.74505805969E-08  0.10566000000E+00  0.10566000000E+00 0.  1.
     999900   -1    0    0    0    0 -0.00000000000E+00 -0.00000000000E+00 -0.74505805969E-08  0.93827000000E+00  0.93827000000E+00 0. -1.
     999902    2    1    2    0    0  0.48792225275E-02  0.39818793337E-02 -0.22392241119E-01  0.10206689889E+01  0.10204038956E+01 0.  0.
     999903    2    3    3    0    0 -0.68127652680E-01 -0.69938739024E-01  0.80916088201E-01  0.12855527834E+00  0.21124440425E-01 0.  0.
         14    1    1    2    0    0 -0.48792225275E-02 -0.39818793337E-02  0.22392241119E-01  0.23261011110E-01  0.00000000000E+00 0.  1.
     999901    1    3    3    0    0  0.73006875208E-01  0.73920618357E-01 -0.10330832932E+00  0.89211371055E+00  0.88000000000E+00 0.  1.
        -11    1    4    4    0    0 -0.32773394267E-01 -0.20437948165E-01  0.25655103468E-01  0.46370794170E-01  0.51100000000E-03 0.  1.
         11    1    4    4    0    0 -0.35354258413E-01 -0.49500790858E-01  0.55260984733E-01  0.82184484169E-01  0.51100000000E-03 0. -1.
</event>
<event>
 8    1  0.1177602E+005  0.1043930E+01  0.7957747E-01            NaN
         13   -1    0    0    0    0  0.00000000000E+00  0.00000000000E+00  0.74505805969E-08  0.10566000000E+00  0.10566000000E+00 0.  1.
     999900   -1    0    0    0    0 -0.00000000000E+00 -0.00000000000E+00 -0.74505805969E-08  0.93827000000E+00  0.93827000000E+00 0. -1.
     999902    2    1    2    0    0  0.54995457699E-03  0.58289549028E-02 -0.24462620049E-01  0.10187764924E+01  0.10184659260E+01 0.  0.
     999903    2    3    3    0    0  0.12651060448E+00  0.18128275983E-01  0.15557042478E-02  0.12934166520E+00  0.19831255737E-01 0.  0.
         14    1    1    2    0    0 -0.54995457699E-03 -0.58289549028E-02  0.24462620049E-01  0.25153507607E-01  0.00000000000E+00 0.  1.
     999901    1    3    3    0    0 -0.12596064991E+00 -0.12299321081E-01 -0.26018324297E-01  0.88943482719E+00  0.88000000000E+00 0. -1.
        -11    1    4    4    0    0  0.67243156997E-01  0.25840036352E-02 -0.61951340188E-02  0.67579287095E-01  0.51100000000E-03 0.  1.
         11    1    4    4    0    0  0.59267447487E-01  0.15544272348E-01  0.77508382666E-02  0.61762378106E-01  0.51100000000E-03 0. -1.
</event>
<event>
 8    1  0.1177602E+005  0.1043930E+01  0.7957747E-01            NaN
         13   -1    0    0    0    0  0.00000000000E+00  0.00000000000E+00  0.74505805969E-08  0.10566000000E+00  0.10566000000E+00 0.  1.
     999900   -1    0    0    0    0 -0.00000000000E+00 -0.00000000000E+00 -0.74505805969E-08  0.93827000000E+00  0.93827000000E+00 0.  1.
     999902    2    1    2    0    0 -0.17068049679E-01 -0.12159680563E-01 -0.10820264622E-01  0.10203449565E+01  0.10200723386E+01 0.  0.
     999903    2    3    3    0    0  0.18308551598E-01  0.88472201832E-01  0.88867259495E-01  0.12831587504E+00  0.20125615987E-01 0.  0.
         14    1    1    2    0    0  0.17068049679E-01  0.12159680563E-01  0.10820264622E-01  0.23585043517E-01  0.00000000000E+00 0.  1.
     999901    1    3    3    0    0 -0.35376601276E-01 -0.10063188239E+00 -0.99687524117E-01  0.89202908144E+00  0.88000000000E+00 0. -1.
        -11    1    4    4    0    0  0.15132601622E-01  0.64216921389E-01  0.51714281178E-01  0.83829807487E-01  0.51100000000E-03 0. -1.
         11    1    4    4    0    0  0.31759499754E-02  0.24255280443E-01  0.37152978317E-01  0.44486067554E-01  0.51100000000E-03 0.  1.
</event>
<event>
 8    1  0.1177602E+005  0.1043930E+01  0.7957747E-01            NaN
         13   -1    0    0    0    0  0.00000000000E+00  0.00000000000E+00  0.74505805969E-08  0.10566000000E+00  0.10566000000E+00 0. -1.
     999900   -1    0    0    0    0 -0.00000000000E+00 -0.00000000000E+00 -0.74505805969E-08  0.93827000000E+00  0.93827000000E+00 0. -1.
     999902    2    1    2    0    0 -0.30184824933E-02  0.19789625382E-01 -0.12887299693E-01  0.10201219551E+01  0.10198440960E+01 0.  0.
     999903    2    3    3    0    0 -0.10646602064E-01 -0.31303402961E-01 -0.12571555048E+00  0.13141564818E+00  0.19298180814E-01 0.  0.
         14    1    1    2    0    0  0.30184824933E-02 -0.19789625382E-01  0.12887299693E-01  0.23808044915E-01  0.00000000000E+00 0. -1.
     999901    1    3    3    0    0  0.76281195710E-02  0.51093028343E-01  0.11282825078E+00  0.88870630690E+00  0.88000000000E+00 0.  1.
        -11    1    4    4    0    0  0.20402732085E-02 -0.21681801500E-01 -0.61164116596E-01  0.64927448056E-01  0.51100000000E-03 0.  1.
         11    1    4    4    0    0 -0.12686875273E-01 -0.96216014610E-02 -0.64551433881E-01  0.66488200126E-01  0.51100000000E-03 0. -1.
</event>
<event>
 8    1  0.1177602E+005  0.1043930E+01  0.7957747E-01            NaN
         13   -1    0    0    0    0  0.00000000000E+00  0.00000000000E+00  0.74505805969E-08  0.10566000000E+00  0.10566000000E+00 0.  1.
     999900   -1    0    0    0    0 -0.00000000000E+00 -0.00000000000E+00 -0.74505805969E-08  0.93827000000E+00  0.93827000000E+00 0. -1.
     999902    2    1    2    0    0  0.93051138342E-02 -0.24753994270E-02  0.21622460601E-01  0.10202605355E+01  0.10199859395E+01 0.  0.
     999903    2    3    3    0    0  0.53189604068E-01  0.11604593605E+00  0.23371311077E-01  0.13122948212E+00  0.19472173553E-01 0.  0.
         14    1    1    2    0    0 -0.93051138342E-02  0.24753994270E-02 -0.21622460601E-01  0.23669464469E-01  0.00000000000E+00 0. -1.
     999901    1    3    3    0    0 -0.43884490234E-01 -0.11852133547E+00 -0.17488504757E-02  0.88903105341E+00  0.88000000000E+00 0.  1.
        -11    1    4    4    0    0  0.46730570474E-01  0.81635181184E-01  0.15392716920E-01  0.95316556164E-01  0.51100000000E-03 0. -1.
         11    1    4    4    0    0  0.64590335936E-02  0.34410754863E-01  0.79785941573E-02  0.35912925959E-01  0.51100000000E-03 0.  1.
</event>
<event>
 8    1  0.1177602E+005  0.1043930E+01  0.7957747E-01            NaN
         13   -1    0    0    0    0  0.00000000000E+00  0.00000000000E+00  0.74505805969E-08  0.10566000000E+00  0.10566000000E+00 0. -1.
     999900   -1    0    0    0    0 -0.00000000000E+00 -0.00000000000E+00 -0.74505805969E-08  0.93827000000E+00  0.93827000000E+00 0.  1.
     999902    2    1    2    0    0 -0.15000713110E-01  0.74358521640E-02 -0.17419057521E-01  0.10197693532E+01  0.10194831027E+01 0.  0.
     999903    2    3    3    0    0 -0.48950035198E-01  0.17212932727E-01  0.11604192389E+00  0.12900564636E+00  0.22007673538E-01 0.  0.
         14    1    1    2    0    0  0.15000713110E-01 -0.74358521640E-02  0.17419057521E-01  0.24160646849E-01  0.00000000000E+00 0. -1.
     999901    1    3    3    0    0  0.33949322088E-01 -0.97770805634E-02 -0.13346098141E+00  0.89076370679E+00  0.88000000000E+00 0.  1.
        -11    1    4    4    0    0 -0.30846408545E-01  0.21590271109E-01  0.74443656363E-01  0.83425174980E-01  0.51100000000E-03 0.  1.
         11    1    4    4    0    0 -0.18103626653E-01 -0.43773383819E-02  0.41598267525E-01  0.45580471382E-01  0.51100000000E-03 0. -1.
</event>
<event>
 8    1  0.1177602E+005  0.1043930E+01  0.7957747E-01            NaN
         13   -1    0    0    0    0  0.00000000000E+00  0.00000000000E+00  0.74505805969E-08  0.10566000000E+00  0.10566000000E+00 0.  1.
     999900   -1    0    0    0    0 -0.00000000000E+00 -0.00000000000E+00 -0.74505805969E-08  0.93827000000E+00  0.93827000000E+00 0.  1.
     999902    2    1    2    0    0  0.87663451735E-02  0.22275765249E-01  0.88080140373E-03  0.10199751605E+01  0.10196938235E+01 0.  0.
     999903    2    3    3    0    0  0.38654549699E-01  0.87951299693E-02 -0.12303773235E+00  0.13068846020E+00  0.19226583793E-01 0.  0.
         14    1    1    2    0    0 -0.87663451735E-02 -0.22275765249E-01 -0.88080140373E-03  0.23954839516E-01  0.00000000000E+00 0.  1.
     999901    1    3    3    0    0 -0.29888204526E-01  0.13480635280E-01  0.12391853375E+00  0.88928670029E+00  0.88000000000E+00 0. -1.
        -11    1    4    4    0    0  0.50690759075E-02 -0.54316955462E-02 -0.17279422047E-01  0.18815908012E-01  0.51100000000E-03 0. -1.
         11    1    4    4    0    0  0.33585473792E-01  0.14226825515E-01 -0.10575831030E+00  0.11187255219E+00  0.51100000000E-03 0.  1.
</event>
<event>
 8    1  0.1177602E+005  0.1043930E+01  0.7957747E-01            NaN
         13   -1    0    0    0    0  0.00000000000E+00  0.00000000000E+00  0.74505805969E-08  0.10566000000E+00  0.10566000000E+00 0.  1.
     999900   -1    0    0    0    0 -0.00000000000E+00 -0.00000000000E+00 -0.74505805969E-08  0.93827000000E+00  0.93827000000E+00 0.  1.
     999902    2    1    2    0    0  0.11847940649E-01 -0.15139990778E-01 -0.13549201741E-01  0.10204103511E+01  0.10201392604E+01 0.  0.
     999903    2    3    3    0    0 -0.64944898555E-01  0.96123192897E-01 -0.53140556472E-01  0.12920660805E+00  0.20320451757E-01 0.  0.
         14    1    1    2    0    0 -0.11847940649E-01  0.15139990778E-01  0.13549201741E-01  0.23519648939E-01  0.00000000000E+00 0. -1.
     999901    1    3    3    0    0  0.76792839204E-01 -0.11126318367E+00  0.39591354731E-01  0.89120374301E+00  0.88000000000E+00 0. -1.
        -11    1    4    4    0    0 -0.49670451298E-01  0.76737983462E-01 -0.32461842340E-01  0.97004660543E-01  0.51100000000E-03 0.  1.
         11    1    4    4    0    0 -0.15274447258E-01  0.19385209435E-01 -0.20678714132E-01  0.32201947504E-01  0.51100000000E-03 0. -1.
</event>
<event>
 8    1  0.1177602E+005  0.1043930E+01  0.7957747E-01            NaN
         13   -1    0    0    0    0  0.00000000000E+00  0.00000000000E+00  0.74505805969E-08  0.10566000000E+00  0.10566000000E+00 0.  1.
     999900   -1    0    0    0    0 -0.00000000000E+00 -0.00000000000E+00 -0.74505805969E-08  0.93827000000E+00  0.93827000000E+00 0.  1.
     999902    2    1    2    0    0 -0.15885897003E-01 -0.15409071774E-01 -0.89930101964E-02  0.10200411857E+01  0.10197614158E+01 0.  0.
     999903    2    3    3    0    0  0.12041379202E+00  0.31731745909E-01  0.20518419751E-01  0.12781319554E+00  0.20219356998E-01 0.  0.
         14    1    1    2    0    0  0.15885897003E-01  0.15409071774E-01  0.89930101964E-02  0.23888814306E-01  0.00000000000E+00 0.  1.
     999901    1    3    3    0    0 -0.13629968902E+00 -0.47140817683E-01 -0.29511429947E-01  0.89222799016E+00  0.88000000000E+00 0. -1.
        -11    1    4    4    0    0  0.10490515144E+00  0.34014979380E-01  0.20249374765E-01  0.11212674935E+00  0.51100000000E-03 0. -1.
         11    1    4    4    0    0  0.15508640583E-01 -0.22832334712E-02  0.26904498585E-03  0.15686446189E-01  0.51100000000E-03 0.  1.
</event>
<event>
 8    1  0.1177602E+005  0.1043930E+01  0.7957747E-01            NaN
         13   -1    0    0    0    0  0.00000000000E+00  0.00000000000E+00  0.74505805969E-08  0.10566000000E+00  0.10566000000E+00 0.  1.
     999900   -1    0    0    0    0 -0.00000000000E+00 -0.00000000000E+00 -0.74505805969E-08  0.93827000000E+00  0.93827000000E+00 0.  1.
     999902    2    1    2    0    0  0.62369346621E-02  0.22582837680E-01  0.13293088253E-02  0.10204640465E+01  0.10201942066E+01 0.  0.
     999903    2    3    3    0    0 -0.12512126212E+00  0.24914376279E-01 -0.17108335237E-01  0.13052002655E+00  0.21603837974E-01 0.  0.
         14    1    1    2    0    0 -0.62369346621E-02 -0.22582837680E-01 -0.13293088253E-02  0.23465953499E-01  0.00000000000E+00 0.  1.
     999901    1    3    3    0    0  0.13135819678E+00 -0.23315385988E-02  0.18437644062E-01  0.88994401995E+00  0.88000000000E+00 0. -1.
        -11    1    4    4    0    0 -0.97921586891E-01  0.21799860787E-01 -0.22000631550E-01  0.10270423564E+00  0.51100000000E-03 0. -1.
         11    1    4    4    0    0 -0.27199675229E-01  0.31145154920E-02  0.48922963133E-02  0.27815790903E-01  0.51100000000E-03 0.  1.
</event>
<event>
 8    1  0.1177602E+005  0.1043930E+01  0.7957747E-01            NaN
         13   -1    0    0    0    0  0.00000000000E+00  0.00000000000E+00  0.74505805969E-08  0.10566000000E+00  0.10566000000E+00 0.  1.
     999900   -1    0    0    0    0 -0.00000000000E+00 -0.00000000000E+00 -0.74505805969E-08  0.93827000000E+00  0.93827000000E+00 0. -1.
     999902    2    1    2    0    0  0.95609872335E-02  0.21206732721E-01  0.51751256185E-02  0.10200989296E+01  0.10198205265E+01 0.  0.
     999903    2    3    3    0    0 -0.14262550705E-01 -0.11561857885E+00  0.49384121256E-01  0.12811061013E+00  0.20061427335E-01 0.  0.
         14    1    1    2    0    0 -0.95609872335E-02 -0.21206732721E-01 -0.51751256185E-02  0.23831070365E-01  0.00000000000E+00 0.  1.
     999901    1    3    3    0    0  0.23823537939E-01  0.13682531157E+00 -0.44208995637E-01  0.89198831951E+00  0.88000000000E+00 0.  1.
        -11    1    4    4    0    0 -0.13352677695E-01 -0.34884857762E-01  0.13036696244E-01  0.39565943343E-01  0.51100000000E-03 0.  1.
         11    1    4    4    0    0 -0.90987300996E-03 -0.80733721087E-01  0.36347425012E-01  0.88544666782E-01  0.51100000000E-03 0. -1.
</event>
<event>
 8    1  0.1177602E+005  0.1043930E+01  0.7957747E-01            NaN
         13   -1    0    0    0    0  0.00000000000E+00  0.00000000000E+00  0.74505805969E-08  0.10566000000E+00  0.10566000000E+00 0. -1.
     999900   -1    0    0    0    0 -0.00000000000E+00 -0.00000000000E+00 -0.74505805969E-08  0.93827000000E+00  0.93827000000E+00 0.  1.
     999902    2    1    2    0    0  0.29316905969E-02  0.22146626827E-02  0.20912884431E-01  0.10226968119E+01  0.10224763669E+01 0.  0.
     999903    2    3    3    0    0  0.12664881306E+00  0.28430722599E-01 -0.19287710837E-01  0.13274777066E+00  0.20043128204E-01 0.  0.
         14    1    1    2    0    0 -0.29316905969E-02 -0.22146626827E-02 -0.20912884431E-01  0.21233188073E-01  0.00000000000E+00 0.  1.
     999901    1    3    3    0    0 -0.12371712247E+00 -0.26216059916E-01  0.40200595268E-01  0.88994904127E+00  0.88000000000E+00 0. -1.
        -11    1    4    4    0    0  0.63402763887E-01  0.23596863487E-01 -0.14069781891E-01  0.69100957434E-01  0.51100000000E-03 0.  1.
         11    1    4    4    0    0  0.63246049177E-01  0.48338591118E-02 -0.52179289456E-02  0.63646813227E-01  0.51100000000E-03 0. -1.
</event>
<event>
 8    1  0.1177602E+005  0.1043930E+01  0.7957747E-01            NaN
         13   -1    0    0    0    0  0.00000000000E+00  0.00000000000E+00  0.74505805969E-08  0.10566000000E+00  0.10566000000E+00 0.  1.
     999900   -1    0    0    0    0 -0.00000000000E+00 -0.00000000000E+00 -0.74505805969E-08  0.93827000000E+00  0.93827000000E+00 0. -1.
     999902    2    1    2    0    0 -0.21954755336E-01  0.58420178205E-02  0.77671751608E-02  0.10199202215E+01  0.10196375772E+01 0.  0.
     999903    2    3    3    0    0  0.47790813891E-01 -0.13204707095E-01 -0.11655592396E+00  0.12824569840E+00  0.20083564535E-01 0.  0.
         14    1    1    2    0    0  0.21954755336E-01 -0.58420178205E-02 -0.77671751608E-02  0.24009778509E-01  0.00000000000E+00 0. -1.
     999901    1    3    3    0    0 -0.69745569227E-01  0.19046724916E-01  0.12432309913E+00  0.89167452309E+00  0.88000000000E+00 0.  1.
        -11    1    4    4    0    0  0.42529667140E-01 -0.13371386676E-01 -0.82455293048E-01  0.93737415376E-01  0.51100000000E-03 0. -1.
         11    1    4    4    0    0  0.52611467513E-02  0.16667958127E-03 -0.34100630917E-01  0.34508283022E-01  0.51100000000E-03 0.  1.
</event>
<event>
 8    1  0.1177602E+005  0.1043930E+01  0.7957747E-01            NaN
         13   -1    0    0    0    0  0.00000000000E+00  0.00000000000E+00  0.74505805969E-08  0.10566000000E+00  0.10566000000E+00 0. -1.
     999900   -1    0    0    0    0 -0.00000000000E+00 -0.00000000000E+00 -0.74505805969E-08  0.93827000000E+00  0.93827000000E+00 0.  1.
     999902    2    1    2    0    0  0.12272130297E-01  0.16639784551E-01 -0.14229084441E-01  0.10188311065E+01  0.10185219041E+01 0.  0.
     999903    2    3    3    0    0  0.38962412953E-01 -0.69138513043E-01  0.97715998453E-01  0.12720226604E+00  0.18270099128E-01 0.  0.
         14    1    1    2    0    0 -0.12272130297E-01 -0.16639784551E-01  0.14229084441E-01  0.25098893521E-01  0.00000000000E+00 0. -1.
     999901    1    3    3    0    0 -0.26690282656E-01  0.85778297593E-01 -0.11194508289E+00  0.89162884044E+00  0.88000000000E+00 0. -1.
        -11    1    4    4    0    0  0.65893119867E-02 -0.23228196266E-01  0.39518788587E-01  0.46313755048E-01  0.51100000000E-03 0. -1.
         11    1    4    4    0    0  0.32373100967E-01 -0.45910316776E-01  0.58197209865E-01  0.80888510988E-01  0.51100000000E-03 0.  1.
</event>
<event>
 8    1  0.1177602E+005  0.1043930E+01  0.7957747E-01            NaN
         13   -1    0    0    0    0  0.00000000000E+00  0.00000000000E+00  0.74505805969E-08  0.10566000000E+00  0.10566000000E+00 0.  1.
     999900   -1    0    0    0    0 -0.00000000000E+00 -0.00000000000E+00 -0.74505805969E-08  0.93827000000E+00  0.93827000000E+00 0. -1.
     999902    2    1    2    0    0  0.10797028302E-01 -0.19007317276E-01 -0.10322512598E-01  0.10197554639E+01  0.10194688803E+01 0.  0.
     999903    2    3    3    0    0 -0.68391134962E-01 -0.90804975814E-01  0.60600595602E-01  0.13045475195E+00  0.20569860085E-01 0.  0.
         14    1    1    2    0    0 -0.10797028302E-01  0.19007317276E-01  0.10322512598E-01  0.24174536118E-01  0.00000000000E+00 0.  1.
     999901    1    3    3    0    0  0.79188163265E-01  0.71797658538E-01 -0.70923108200E-01  0.88930071194E+00  0.88000000000E+00 0. -1.
        -11    1    4    4    0    0 -0.42671997800E-01 -0.68987856109E-01  0.49076668037E-01  0.94810358893E-01  0.51100000000E-03 0.  1.
         11    1    4    4    0    0 -0.25719137162E-01 -0.21817119705E-01  0.11523927565E-01  0.35644393053E-01  0.51100000000E-03 0. -1.
</event>
<event>
 8    1  0.1177602E+005  0.1043930E+01  0.7957747E-01            NaN
         13   -1    0    0    0    0  0.00000000000E+00  0.00000000000E+00  0.74505805969E-08  0.10566000000E+00  0.10566000000E+00 0. -1.
     999900   -1    0    0    0    0 -0.00000000000E+00 -0.00000000000E+00 -0.74505805969E-08  0.93827000000E+00  0.93827000000E+00 0.  1.
     999902    2    1    2    0    0 -0.11829839967E-01  0.50740879140E-02 -0.20941674110E-01  0.10193486006E+01  0.10190521696E+01 0.  0.
     999903    2    3    3    0    0 -0.67106760463E-01 -0.14309230863E-01  0.10641013148E+00  0.12825391799E+00  0.20442113705E-01 0.  0.
         14    1    1    2    0    0  0.11829839967E-01 -0.50740879140E-02  0.20941674110E-01  0.24581399397E-01  0.00000000000E+00 0. -1.
     999901    1    3    3    0    0  0.55276920496E-01  0.19383318777E-01 -0.12735180558E+00  0.89109468261E+00  0.88000000000E+00 0.  1.
        -11    1    4    4    0    0 -0.29783707797E-01  0.26207386408E-02  0.36174336565E-01  0.46933796651E-01  0.51100000000E-03 0. -1.
         11    1    4    4    0    0 -0.37323052666E-01 -0.16929969503E-01  0.70235794910E-01  0.81320121343E-01  0.51100000000E-03 0.  1.
</event>
<event>
 8    1  0.1177602E+005  0.1043930E+01  0.7957747E-01            NaN
         13   -1    0    0    0    0  0.00000000000E+00  0.00000000000E+00  0.74505805969E-08  0.10566000000E+00  0.10566000000E+00 0. -1.
     999900   -1    0    0    0    0 -0.00000000000E+00 -0.00000000000E+00 -0.74505805969E-08  0.93827000000E+00  0.93827000000E+00 0. -1.
     999902    2    1    2    0    0  0.13574083282E-01  0.53591254587E-02  0.19042084638E-01  0.10199388152E+01  0.10196566136E+01 0.  0.
     999903    2    3    3    0    0  0.10026163758E+00 -0.82259250094E-01  0.10505755081E-01  0.13130808154E+00  0.17676571845E-01 0.  0.
         14    1    1    2    0    0 -0.13574083282E-01 -0.53591254587E-02 -0.19042084638E-01  0.23991184839E-01  0.00000000000E+00 0.  1.
     999901    1    3    3    0    0 -0.86687554300E-01  0.87618375553E-01  0.85363295574E-02  0.88863073362E+00  0.88000000000E+00 0. -1.
        -11    1    4    4    0    0  0.25528692916E-01 -0.24700069162E-01  0.10257352702E-01  0.36976776280E-01  0.51100000000E-03 0. -1.
         11    1    4    4    0    0  0.74732944666E-01 -0.57559180933E-01  0.24840237909E-03  0.94331305264E-01  0.51100000000E-03 0.  1.
</event>
<event>
 8    1  0.1177602E+005  0.1043930E+01  0.7957747E-01            NaN
         13   -1    0    0    0    0  0.00000000000E+00  0.00000000000E+00  0.74505805969E-08  0.10566000000E+00  0.10566000000E+00 0.  1.
     999900   -1    0    0    0    0 -0.00000000000E+00 -0.00000000000E+00 -0.74505805969E-08  0.93827000000E+00  0.93827000000E+00 0.  1.
     999902    2    1    2    0    0 -0.12565468399E-01  0.25026305671E-01  0.16660076710E-02  0.10158767907E+01  0.10154893753E+01 0.  0.
     999903    2    3    3    0    0 -0.69239328931E-01  0.88279993735E-01 -0.61483613276E-01  0.12953553013E+00  0.20292286726E-01 0.  0.
         14    1    1    2    0    0  0.12565468399E-01 -0.25026305671E-01 -0.16660076710E-02  0.28053209321E-01  0.00000000000E+00 0. -1.
     999901    1    3    3    0    0  0.56673860531E-01 -0.63253688064E-01  0.63149620947E-01  0.88634126055E+00  0.88000000000E+00 0. -1.
        -11    1    4    4    0    0 -0.26744634630E-01  0.24033452364E-01 -0.11690065033E-01  0.37812710238E-01  0.51100000000E-03 0.  1.
         11    1    4    4    0    0 -0.42494694301E-01  0.64246541371E-01 -0.49793548243E-01  0.91722819895E-01  0.51100000000E-03 0. -1.
</event>
<event>
 8    1  0.1177602E+005  0.1043930E+01  0.7957747E-01            NaN
         13   -1    0    0    0    0  0.00000000000E+00  0.00000000000E+00  0.74505805969E-08  0.10566000000E+00  0.10566000000E+00 0. -1.
     999900   -1    0    0    0    0 -0.00000000000E+00 -0.00000000000E+00 -0.74505805969E-08  0.93827000000E+00  0.93827000000E+00 0. -1.
     999902    2    1    2    0    0 -0.36352758646E-02  0.27203141648E-02  0.17978650959E-01  0.10253868819E+01  0.10252192011E+01 0.  0.
     999903    2    3    3    0    0  0.39134483613E-01  0.29718382812E-01 -0.12182247597E+00  0.13291699267E+00  0.20285985443E-01 0.  0.
         14    1    1    2    0    0  0.36352758646E-02 -0.27203141648E-02 -0.17978650959E-01  0.18543118132E-01  0.00000000000E+00 0.  1.
     999901    1    3    3    0    0 -0.42769759478E-01 -0.26998068647E-01  0.13980112692E+00  0.89246988920E+00  0.88000000000E+00 0.  1.
        -11    1    4    4    0    0  0.27839781452E-01  0.26243679719E-01 -0.70135405927E-01  0.79893807282E-01  0.51100000000E-03 0.  1.
         11    1    4    4    0    0  0.11294702161E-01  0.34747030928E-02 -0.51687070038E-01  0.53023185387E-01  0.51100000000E-03 0. -1.
</event>
<event>
 8    1  0.1177602E+005  0.1043930E+01  0.7957747E-01            NaN
         13   -1    0    0    0    0  0.00000000000E+00  0.00000000000E+00  0.74505805969E-08  0.10566000000E+00  0.10566000000E+00 0. -1.
     999900   -1    0    0    0    0 -0.00000000000E+00 -0.00000000000E+00 -0.74505805969E-08  0.93827000000E+00  0.93827000000E+00 0. -1.
     999902    2    1    2    0    0 -0.18552553692E-01  0.52054968052E-02 -0.14459885130E-01  0.10198388663E+01  0.10195542803E+01 0.  0.
     999903    2    3    3    0    0 -0.69088362092E-01 -0.59166311088E-01  0.90350416182E-01  0.12984853104E+00  0.20581281881E-01 0.  0.
         14    1    1    2    0    0  0.18552553692E-01 -0.52054968052E-02  0.14459885130E-01  0.24091133711E-01  0.00000000000E+00 0. -1.
     999901    1    3    3    0    0  0.50535808399E-01  0.64371807893E-01 -0.10481030131E+00  0.88999033525E+00  0.88000000000E+00 0. -1.
        -11    1    4    4    0    0 -0.24668803508E-01 -0.23473282978E-01  0.47977475566E-01  0.58835738824E-01  0.51100000000E-03 0. -1.
         11    1    4    4    0    0 -0.44419558583E-01 -0.35693028110E-01  0.42372940616E-01  0.71012792213E-01  0.51100000000E-03 0.  1.
</event>
<event>
 8    1  0.1177602E+005  0.1043930E+01  0.7957747E-01            NaN
         13   -1    0    0    0    0  0.00000000000E+00  0.00000000000E+00  0.74505805969E-08  0.10566000000E+00  0.10566000000E+00 0.  1.
     999900   -1    0    0    0    0 -0.00000000000E+00 -0.00000000000E+00 -0.74505805969E-08  0.93827000000E+00  0.93827000000E+00 0. -1.
     999902    2    1    2    0    0 -0.22086072776E-01 -0.72605108606E-02 -0.52297619283E-02  0.10201001859E+01  0.10198218125E+01 0.  0.
     999903    2    3    3    0    0 -0.45199920101E-01 -0.24308336343E-01  0.11877739955E+00  0.13094178925E+00  0.20093619274E-01 0.  0.
         14    1    1    2    0    0  0.22086072776E-01  0.72605108606E-02  0.52297619283E-02  0.23829814066E-01  0.00000000000E+00 0. -1.
     999901    1    3    3    0    0  0.23113847325E-01  0.17047825482E-01 -0.12400716148E+00  0.88915839668E+00  0.88000000000E+00 0. -1.
        -11    1    4    4    0    0 -0.12299157452E-01 -0.32588443608E-02  0.52389204631E-01  0.53914554839E-01  0.51100000000E-03 0.  1.
         11    1    4    4    0    0 -0.32900762649E-01 -0.21049491982E-01  0.66388194920E-01  0.77027234413E-01  0.51100000000E-03 0. -1.
</event>
<event>
 8    1  0.1177602E+005  0.1043930E+01  0.7957747E-01            NaN
         13   -1    0    0    0    0  0.00000000000E+00  0.00000000000E+00  0.74505805969E-08  0.10566000000E+00  0.10566000000E+00 0.  1.
     999900   -1    0    0    0    0 -0.00000000000E+00 -0.00000000000E+00 -0.74505805969E-08  0.93827000000E+00  0.93827000000E+00 0.  1.
     999902    2    1    2    0    0 -0.50086751231E-02  0.22139327197E-01  0.78585641041E-02  0.10199093076E+01  0.10196264031E+01 0.  0.
     999903    2    3    3    0    0 -0.10190838419E+00 -0.32587572728E-01  0.72237869889E-01  0.13056725739E+00  0.19550708213E-01 0.  0.
         14    1    1    2    0    0  0.50086751231E-02 -0.22139327197E-01 -0.78585641041E-02  0.24020692434E-01  0.00000000000E+00 0. -1.
     999901    1    3    3    0    0  0.96899709071E-01  0.54726899925E-01 -0.64379305785E-01  0.88934205017E+00  0.88000000000E+00 0. -1.
        -11    1    4    4    0    0 -0.37543879728E-01 -0.21373655921E-01  0.32873812079E-01  0.54289268867E-01  0.51100000000E-03 0.  1.
         11    1    4    4    0    0 -0.64364504466E-01 -0.11213916806E-01  0.39364057809E-01  0.76277988526E-01  0.51100000000E-03 0. -1.
</event>
<event>
 8    1  0.1177602E+005  0.1043930E+01  0.7957747E-01            NaN
         13   -1    0    0    0    0  0.00000000000E+00  0.00000000000E+00  0.74505805969E-08  0.10566000000E+00  0.10566000000E+00 0. -1.
     999900   -1    0    0    0    0 -0.00000000000E+00 -0.00000000000E+00 -0.74505805969E-08  0.93827000000E+00  0.93827000000E+00 0.  1.
     999902    2    1    2    0    0  0.16043698380E-01  0.16465271695E-01 -0.58961671738E-02  0.10201966855E+01  0.10199205885E+01 0.  0.
     999903    2    3    3    0    0  0.43798254073E-01 -0.79155144423E-01  0.90297399072E-01  0.12937303206E+00  0.19998429881E-01 0.  0.
         14    1    1    2    0    0 -0.16043698380E-01 -0.16465271695E-01  0.58961671738E-02  0.23733314497E-01  0.00000000000E+00 0.  1.
     999901    1    3    3    0    0 -0.27754555692E-01  0.95620416117E-01 -0.96193566245E-01  0.89082365344E+00  0.88000000000E+00 0.  1.
        -11    1    4    4    0    0  0.12264017740E-01 -0.40405573307E-01  0.34999078872E-01  0.54847179766E-01  0.51100000000E-03 0.  1.
         11    1    4    4    0    0  0.31534236332E-01 -0.38749571116E-01  0.55298320200E-01  0.74525852297E-01  0.51100000000E-03 0. -1.
</event>
<event>
 8    1  0.1177602E+005  0.1043930E+01  0.7957747E-01            NaN
         13   -1    0    0    0    0  0.00000000000E+00  0.00000000000E+00  0.74505805969E-08  0.10566000000E+00  0.10566000000E+00 0. -1.
     999900   -1    0    0    0    0 -0.00000000000E+00 -0.00000000000E+00 -0.74505805969E-08  0.93827000000E+00  0.93827000000E+00 0. -1.
     999902    2    1    2    0    0  0.75786889625E-02 -0.21323712339E-01  0.79306134259E-02  0.10199501780E+01  0.10196682469E+01 0.  0.
     999903    2    3    3    0    0 -0.62962335967E-01  0.57596986751E-01 -0.93095707714E-01  0.12786787769E+00  0.20042822091E-01 0.  0.
         14    1    1    2    0    0 -0.75786889625E-02  0.21323712339E-01 -0.79306134259E-02  0.23979822010E-01  0.00000000000E+00 0. -1.
     999901    1    3    3    0    0  0.70541024930E-01 -0.78920699090E-01  0.10102632114E+00  0.89208230030E+00  0.88000000000E+00 0.  1.
        -11    1    4    4    0    0 -0.46002021941E-01  0.51656004483E-01 -0.68016009913E-01  0.97010141466E-01  0.51100000000E-03 0.  1.
         11    1    4    4    0    0 -0.16960314026E-01  0.59409822677E-02 -0.25079697800E-01  0.30857736225E-01  0.51100000000E-03 0. -1.
</event>
<event>
 8    1  0.1177602E+005  0.1043930E+01  0.7957747E-01            NaN
         13   -1    0    0    0    0  0.00000000000E+00  0.00000000000E+00  0.74505805969E-08  0.10566000000E+00  0.10566000000E+00 0.  1.
     999900   -1    0    0    0    0 -0.00000000000E+00 -0.00000000000E+00 -0.74505805969E-08  0.93827000000E+00  0.93827000000E+00 0. -1.
     999902    2    1    2    0    0  0.41383740456E-03 -0.16462488481E-02 -0.23259927663E-01  0.10206082155E+01  0.10203417192E+01 0.  0.
     999903    2    3    3    0    0  0.84304733892E-01 -0.95105765120E-01  0.21455133778E-01  0.13056787912E+00  0.20862731757E-01 0.  0.
         14    1    1    2    0    0 -0.41383740456E-03  0.16462488481E-02  0.23259927663E-01  0.23321784484E-01  0.00000000000E+00 0.  1.
     999901    1    3    3    0    0 -0.83890896487E-01  0.93459516272E-01 -0.44715061441E-01  0.89004033640E+00  0.88000000000E+00 0. -1.
        -11    1    4    4    0    0  0.71219495330E-01 -0.67081455934E-01  0.17317942405E-01  0.99359501284E-01  0.51100000000E-03 0.  1.
         11    1    4    4    0    0  0.13085238561E-01 -0.28024309186E-01  0.41371913731E-02  0.31208377834E-01  0.51100000000E-03 0. -1.
</event>
<event>
 8    1  0.1177602E+005  0.1043930E+01  0.7957747E-01            NaN
         13   -1    0    0    0    0  0.00000000000E+00  0.00000000000E+00  0.74505805969E-08  0.10566000000E+00  0.10566000000E+00 0.  1.
     999900   -1    0    0    0    0 -0.00000000000E+00 -0.00000000000E+00 -0.74505805969E-08  0.93827000000E+00  0.93827000000E+00 0.  1.
     999902    2    1    2    0    0 -0.98975851184E-02 -0.26265558666E-02  0.21504184439E-01  0.10201121299E+01  0.10198340388E+01 0.  0.
     999903    2    3    3    0    0  0.11767804977E+00 -0.34815018962E-01  0.38705323628E-01  0.13016408707E+00  0.19605574319E-01 0.  0.
         14    1    1    2    0    0  0.98975851184E-02  0.26265558666E-02 -0.21504184439E-01  0.23817870083E-01  0.00000000000E+00 0. -1.
     999901    1    3    3    0    0 -0.12757563488E+00  0.32188463096E-01 -0.17201139189E-01  0.88994804284E+00  0.88000000000E+00 0.  1.
        -11    1    4    4    0    0  0.65895525417E-01 -0.13474793211E-01  0.12862765213E-01  0.68479939924E-01  0.51100000000E-03 0. -1.
         11    1    4    4    0    0  0.51782524349E-01 -0.21340225752E-01  0.25842558416E-01  0.61684147149E-01  0.51100000000E-03 0.  1.
</event>
<event>
 8    1  0.1177602E+005  0.1043930E+01  0.7957747E-01            NaN
         13   -1    0    0    0    0  0.00000000000E+00  0.00000000000E+00  0.74505805969E-08  0.10566000000E+00  0.10566000000E+00 0.  1.
     999900   -1    0    0    0    0 -0.00000000000E+00 -0.00000000000E+00 -0.74505805969E-08  0.93827000000E+00  0.93827000000E+00 0.  1.
     999902    2    1    2    0    0 -0.16689840201E-01  0.15682032707E-01 -0.45210854369E-02  0.10205865399E+01  0.10203195423E+01 0.  0.
     999903    2    3    3    0    0  0.23476454865E-01  0.11503376482E+00 -0.58018517162E-01  0.13247276727E+00  0.19974352407E-01 0.  0.
         14    1    1    2    0    0  0.16689840201E-01 -0.15682032707E-01  0.45210854369E-02  0.23343460097E-01  0.00000000000E+00 0. -1.
     999901    1    3    3    0    0 -0.40166295066E-01 -0.99351732112E-01  0.53497431725E-01  0.88811377263E+00  0.88000000000E+00 0.  1.
        -11    1    4    4    0    0  0.21084674734E-01  0.55688968567E-01 -0.25748566962E-01  0.64877380883E-01  0.51100000000E-03 0.  1.
         11    1    4    4    0    0  0.23917801310E-02  0.59344796252E-01 -0.32269950200E-01  0.67595386391E-01  0.51100000000E-03 0. -1.
</event>
<event>
 8    1  0.1177602E+005  0.1043930E+01  0.7957747E-01            NaN
         13   -1    0    0    0    0  0.00000000000E+00  0.00000000000E+00  0.74505805969E-08  0.10566000000E+00  0.10566000000E+00 0. -1.
     999900   -1    0    0    0    0 -0.00000000000E+00 -0.00000000000E+00 -0.74505805969E-08  0.93827000000E+00  0.93827000000E+00 0.  1.
     999902    2    1    2    0    0 -0.92368809839E-02 -0.10035257641E-01  0.14204393515E-01  0.10242375862E+01  0.10240482615E+01 0.  0.
     999903    2    3    3    0    0  0.10755947187E+00  0.61802187818E-01 -0.39326827264E-01  0.13201138270E+00  0.22177813508E-01 0.  0.
         14    1    1    2    0    0  0.92368809839E-02  0.10035257641E-01 -0.14204393515E-01  0.19692413802E-01  0.00000000000E+00 0.  1.
     999901    1    3    3    0    0 -0.11679635285E+00 -0.71837445459E-01  0.53531220779E-01  0.89222620350E+00  0.88000000000E+00 0. -1.
        -11    1    4    4    0    0  0.48258478402E-01  0.24050763846E-01 -0.28153736447E-01  0.60829384151E-01  0.51100000000E-03 0. -1.
         11    1    4    4    0    0  0.59300993467E-01  0.37751423972E-01 -0.11173090817E-01  0.71181998549E-01  0.51100000000E-03 0.  1.
</event>
<event>
 8    1  0.1177602E+005  0.1043930E+01  0.7957747E-01            NaN
         13   -1    0    0    0    0  0.00000000000E+00  0.00000000000E+00  0.74505805969E-08  0.10566000000E+00  0.10566000000E+00 0.  1.
     999900   -1    0    0    0    0 -0.00000000000E+00 -0.00000000000E+00 -0.74505805969E-08  0.93827000000E+00  0.93827000000E+00 0.  1.
     999902    2    1    2    0    0 -0.49849306266E-02  0.20252340254E-01  0.12296539810E-01  0.10197181907E+01  0.10194307121E+01 0.  0.
     999903    2    3    3    0    0 -0.80088208859E-01  0.88170673235E-01  0.54474861668E-01  0.13290794424E+00  0.22557089176E-01 0.  0.
         14    1    1    2    0    0  0.49849306266E-02 -0.20252340254E-01 -0.12296539810E-01  0.24211809317E-01  0.00000000000E+00 0. -1.
     999901    1    3    3    0    0  0.75103278232E-01 -0.67918332981E-01 -0.42178321858E-01  0.88681024644E+00  0.88000000000E+00 0. -1.
        -11    1    4    4    0    0 -0.64366005589E-01  0.59544278760E-01  0.32379939903E-01  0.93473126820E-01  0.51100000000E-03 0. -1.
         11    1    4    4    0    0 -0.15722203270E-01  0.28626394475E-01  0.22094921765E-01  0.39434817422E-01  0.51100000000E-03 0.  1.
</event>
<event>
 8    1  0.1304731E+005  0.1043930E+01  0.7957747E-01            NaN
         13   -1    0    0    0    0  0.00000000000E+00  0.00000000000E+00  0.74505805969E-08  0.10566000000E+00  0.10566000000E+00 0. -1.
     999900   -1    0    0    0    0 -0.00000000000E+00 -0.00000000000E+00 -0.74505805969E-08  0.93827000000E+00  0.93827000000E+00 0.  1.
     999902    2    1    2    0    0  0.17158280094E-01 -0.10566306961E-01  0.12855107161E-02  0.10237382701E+01  0.10235391247E+01 0.  0.
     999903    2    3    3    0    0 -0.12536758500E+00  0.22096238207E-01 -0.24789438976E-01  0.13129198764E+00  0.20440024954E-01 0.  0.
         14    1    1    2    0    0 -0.17158280094E-01  0.10566306961E-01 -0.12855107161E-02  0.20191729901E-01  0.00000000000E+00 0.  1.
     999901    1    3    3    0    0  0.14252586510E+00 -0.32662545169E-01  0.26074949692E-01  0.89244628246E+00  0.88000000000E+00 0. -1.
        -11    1    4    4    0    0 -0.63924148664E-01  0.96966250889E-02 -0.23090866699E-02  0.64698642356E-01  0.51100000000E-03 0.  1.
         11    1    4    4    0    0 -0.61443436341E-01  0.12399613118E-01 -0.22480352306E-01  0.66593345281E-01  0.51100000000E-03 0. -1.
</event>
<event>
 8    1  0.1177602E+005  0.1043930E+01  0.7957747E-01            NaN
         13   -1    0    0    0    0  0.00000000000E+00  0.00000000000E+00  0.74505805969E-08  0.10566000000E+00  0.10566000000E+00 0.  1.
     999900   -1    0    0    0    0 -0.00000000000E+00 -0.00000000000E+00 -0.74505805969E-08  0.93827000000E+00  0.93827000000E+00 0. -1.
     999902    2    1    2    0    0 -0.16656246176E-01  0.15801520202E-01 -0.46097901565E-02  0.10205127256E+01  0.10202440170E+01 0.  0.
     999903    2    3    3    0    0 -0.11640189680E+00 -0.14247757004E-01 -0.57610054040E-01  0.13278462424E+00  0.23673570707E-01 0.  0.
         14    1    1    2    0    0  0.16656246176E-01 -0.15801520202E-01  0.46097901565E-02  0.23417274450E-01  0.00000000000E+00 0.  1.
     999901    1    3    3    0    0  0.99745650626E-01  0.30049277206E-01  0.53000263884E-01  0.88772810131E+00  0.88000000000E+00 0.  1.
        -11    1    4    4    0    0 -0.30939590406E-01  0.63629629737E-02 -0.12518110559E-01  0.33981020663E-01  0.51100000000E-03 0.  1.
         11    1    4    4    0    0 -0.85462306396E-01 -0.20610719978E-01 -0.45091943481E-01  0.98803603580E-01  0.51100000000E-03 0. -1.
</event>
<event>
 8    1  0.1177602E+005  0.1043930E+01  0.7957747E-01            NaN
         13   -1    0    0    0    0  0.00000000000E+00  0.00000000000E+00  0.74505805969E-08  0.10566000000E+00  0.10566000000E+00 0.  1.
     999900   -1    0    0    0    0 -0.00000000000E+00 -0.00000000000E+00 -0.74505805969E-08  0.93827000000E+00  0.93827000000E+00 0.  1.
     999902    2    1    2    0    0 -0.14221775209E-01 -0.15765582060E-01  0.12779970516E-01  0.10191481495E+01  0.10188468042E+01 0.  0.
     999903    2    3    3    0    0 -0.92399335507E-01 -0.78017299905E-01  0.50637271197E-01  0.13268315723E+00  0.20404673269E-01 0.  0.
         14    1    1    2    0    0  0.14221775209E-01  0.15765582060E-01 -0.12779970516E-01  0.24781850500E-01  0.00000000000E+00 0. -1.
     999901    1    3    3    0    0  0.78177560298E-01  0.62251717845E-01 -0.37857300681E-01  0.88646499227E+00  0.88000000000E+00 0.  1.
        -11    1    4    4    0    0 -0.73918819842E-01 -0.62152123075E-01  0.31119128445E-01  0.10146693849E+00  0.51100000000E-03 0. -1.
         11    1    4    4    0    0 -0.18480515665E-01 -0.15865176830E-01  0.19518142752E-01  0.31216218743E-01  0.51100000000E-03 0.  1.
</event>
<event>
 8    1  0.1177602E+005  0.1043930E+01  0.7957747E-01            NaN
         13   -1    0    0    0    0  0.00000000000E+00  0.00000000000E+00  0.74505805969E-08  0.10566000000E+00  0.10566000000E+00 0. -1.
     999900   -1    0    0    0    0 -0.00000000000E+00 -0.00000000000E+00 -0.74505805969E-08  0.93827000000E+00  0.93827000000E+00 0.  1.
     999902    2    1    2    0    0 -0.91786102851E-02  0.19885067836E-01 -0.98672094703E-02  0.10199086630E+01  0.10196257432E+01 0.  0.
     999903    2    3    3    0    0 -0.70824122409E-01  0.92239365815E-01 -0.62016579221E-01  0.13325491412E+00  0.19663649643E-01 0.  0.
         14    1    1    2    0    0  0.91786102851E-02 -0.19885067836E-01  0.98672094703E-02  0.24021337023E-01  0.00000000000E+00 0. -1.
     999901    1    3    3    0    0  0.61645512124E-01 -0.72354297978E-01  0.52149369751E-01  0.88665374886E+00  0.88000000000E+00 0. -1.
        -11    1    4    4    0    0 -0.33520244905E-01  0.28126837891E-01 -0.22343417010E-01  0.49134664270E-01  0.51100000000E-03 0.  1.
         11    1    4    4    0    0 -0.37303877504E-01  0.64112527924E-01 -0.39673162211E-01  0.84120249848E-01  0.51100000000E-03 0. -1.
</event>
<event>
 8    1  0.1177602E+005  0.1043930E+01  0.7957747E-01            NaN
         13   -1    0    0    0    0  0.00000000000E+00  0.00000000000E+00  0.74505805969E-08  0.10566000000E+00  0.10566000000E+00 0.  1.
     999900   -1    0    0    0    0 -0.00000000000E+00 -0.00000000000E+00 -0.74505805969E-08  0.93827000000E+00  0.93827000000E+00 0. -1.
     999902    2    1    2    0    0  0.14341800384E-02  0.20409291754E-01 -0.12058366062E-01  0.10201813105E+01  0.10199048514E+01 0.  0.
     999903    2    3    3    0    0 -0.98906303778E-01  0.40792979614E-01  0.71216583729E-01  0.13033951291E+00  0.21680929746E-01 0.  0.
         14    1    1    2    0    0 -0.14341800384E-02 -0.20409291754E-01  0.12058366062E-01  0.23748689530E-01  0.00000000000E+00 0.  1.
     999901    1    3    3    0    0  0.10034048382E+00 -0.20383687860E-01 -0.83274949791E-01  0.88984179756E+00  0.88000000000E+00 0. -1.
        -11    1    4    4    0    0 -0.40019580520E-01  0.70169526734E-02  0.33605521326E-01  0.52729466472E-01  0.51100000000E-03 0.  1.
         11    1    4    4    0    0 -0.58886723258E-01  0.33776026941E-01  0.37611062403E-01  0.77610046438E-01  0.51100000000E-03 0. -1.
</event>
<event>
 8    1  0.1177602E+005  0.1043930E+01  0.7957747E-01            NaN
         13   -1    0    0    0    0  0.00000000000E+00  0.00000000000E+00  0.74505805969E-08  0.10566000000E+00  0.10566000000E+00 0. -1.
     999900   -1    0    0    0    0 -0.00000000000E+00 -0.00000000000E+00 -0.74505805969E-08  0.93827000000E+00  0.93827000000E+00 0. -1.
     999902    2    1    2    0    0  0.97334461645E-02 -0.36281618971E-03 -0.25013892181E-01  0.10170866319E+01  0.10167323396E+01 0.  0.
     999903    2    3    3    0    0  0.88737861766E-01 -0.19525776490E-01 -0.91950535659E-01  0.13080821571E+00  0.20005604995E-01 0.  0.
         14    1    1    2    0    0 -0.97334461645E-02  0.36281618971E-03  0.25013892181E-01  0.26843368117E-01  0.00000000000E+00 0. -1.
     999901    1    3    3    0    0 -0.79004415601E-01  0.19162960301E-01  0.66936643479E-01  0.88627841617E+00  0.88000000000E+00 0. -1.
        -11    1    4    4    0    0  0.52038064347E-01 -0.21133495776E-01 -0.58949181127E-01  0.81423902272E-01  0.51100000000E-03 0.  1.
         11    1    4    4    0    0  0.36699797418E-01  0.16077192855E-02 -0.33001354532E-01  0.49384313439E-01  0.51100000000E-03 0. -1.
</event>
<event>
 8    1  0.1177602E+005  0.1043930E+01  0.7957747E-01            NaN
         13   -1    0    0    0    0  0.00000000000E+00  0.00000000000E+00  0.74505805969E-08  0.10566000000E+00  0.10566000000E+00 0. -1.
     999900   -1    0    0    0    0 -0.00000000000E+00 -0.00000000000E+00 -0.74505805969E-08  0.93827000000E+00  0.93827000000E+00 0.  1.
     999902    2    1    2    0    0  0.12563970428E-01  0.50734394393E-02  0.19297279736E-01  0.10203508112E+01  0.10200783302E+01 0.  0.
     999903    2    3    3    0    0 -0.32695510082E-01  0.11960165309E+00 -0.34863936286E-01  0.13012692381E+00  0.18546440286E-01 0.  0.
         14    1    1    2    0    0 -0.12563970428E-01 -0.50734394393E-02 -0.19297279736E-01  0.23579188830E-01  0.00000000000E+00 0.  1.
     999901    1    3    3    0    0  0.45259480510E-01 -0.11452821365E+00  0.54161216022E-01  0.89022388736E+00  0.88000000000E+00 0.  1.
        -11    1    4    4    0    0 -0.12680450443E-01  0.42469797884E-01 -0.21724530514E-01  0.49362879807E-01  0.51100000000E-03 0.  1.
         11    1    4    4    0    0 -0.20015059639E-01  0.77131855203E-01 -0.13139405772E-01  0.80764044008E-01  0.51100000000E-03 0. -1.
</event>
<event>
 8    1  0.1177602E+005  0.1043930E+01  0.7957747E-01            NaN
         13   -1    0    0    0    0  0.00000000000E+00  0.00000000000E+00  0.74505805969E-08  0.10566000000E+00  0.10566000000E+00 0.  1.
     999900   -1    0    0    0    0 -0.00000000000E+00 -0.00000000000E+00 -0.74505805969E-08  0.93827000000E+00  0.93827000000E+00 0.  1.
     999902    2    1    2    0    0  0.17194783314E-01 -0.20575758566E-01 -0.83527767774E-02  0.10158445715E+01  0.10154562532E+01 0.  0.
     999903    2    3    3    0    0  0.12059459284E-01 -0.12139065042E+00 -0.38359742166E-01  0.12956559063E+00  0.20848306586E-01 0.  0.
         14    1    1    2    0    0 -0.17194783314E-01  0.20575758566E-01  0.83527767774E-02  0.28085428493E-01  0.00000000000E+00 0. -1.
     999901    1    3    3    0    0  0.51353240291E-02  0.10081489186E+00  0.30006965389E-01  0.88627898088E+00  0.88000000000E+00 0. -1.
        -11    1    4    4    0    0  0.43819443494E-02 -0.50329804400E-01 -0.26701840161E-01  0.57144903852E-01  0.51100000000E-03 0.  1.
         11    1    4    4    0    0  0.76775149350E-02 -0.71060846024E-01 -0.11657902006E-01  0.72420686778E-01  0.51100000000E-03 0. -1.
</event>
<event>
 7    1  0.1177602E+005  0.1043930E+01  0.7957747E-01            NaN
         13   -1    0    0    0    0  0.00000000000E+00  0.00000000000E+00  0.74505805969E-08  0.10566000000E+00  0.10566000000E+00 0. -1.
     999900   -1    0    0    0    0 -0.00000000000E+00 -0.00000000000E+00 -0.74505805969E-08  0.93827000000E+00  0.93827000000E+00 0.  1.
     999903    2    1    2    0    0 -0.56462990706E-01  0.60629513164E-01  0.58724878014E-01  0.10353494465E+00  0.20170926606E-01 0.  0.
         14    1    1    2    0    0  0.93581392949E-02  0.45761125702E-01 -0.22884848658E-01  0.52013187700E-01  0.00000000000E+00 0.  1.
     999901    1    1    2    0    0  0.47104851411E-01 -0.10639063887E+00 -0.35840029355E-01  0.88838186765E+00  0.88000000000E+00 0.  1.
        -11    1    3    3    0    0 -0.31779859568E-01  0.27740579411E-01  0.18690947276E-01  0.46142300022E-01  0.51100000000E-03 0. -1.
         11    1    3    3    0    0 -0.24683131137E-01  0.32888933753E-01  0.40033930738E-01  0.57392644629E-01  0.51100000000E-03 0.  1.
</event>
<event>
 8    1  0.1177602E+005  0.1043930E+01  0.7957747E-01            NaN
         13   -1    0    0    0    0  0.00000000000E+00  0.00000000000E+00  0.74505805969E-08  0.10566000000E+00  0.10566000000E+00 0. -1.
     999900   -1    0    0    0    0 -0.00000000000E+00 -0.00000000000E+00 -0.74505805969E-08  0.93827000000E+00  0.93827000000E+00 0. -1.
     999902    2    1    2    0    0  0.20695135014E-01  0.80060448961E-02 -0.83053964787E-02  0.10202368580E+01  0.10199617059E+01 0.  0.
     999903    2    3    3    0    0  0.36646145371E-01  0.10680074132E+00  0.63403521560E-01  0.13166666059E+00  0.23806819345E-01 0.  0.
         14    1    1    2    0    0 -0.20695135014E-01 -0.80060448961E-02  0.83053964787E-02  0.23693142020E-01  0.00000000000E+00 0.  1.
     999901    1    3    3    0    0 -0.15951010358E-01 -0.98794696419E-01 -0.71708918038E-01  0.88857019739E+00  0.88000000000E+00 0.  1.
        -11    1    4    4    0    0  0.23569586553E-02  0.22862851349E-01  0.22592375676E-01  0.32232619900E-01  0.51100000000E-03 0.  1.
         11    1    4    4    0    0  0.34289186716E-01  0.83937889966E-01  0.40811145884E-01  0.99434040685E-01  0.51100000000E-03 0. -1.
</event>
<event>
 8    1  0.1177602E+005  0.1043930E+01  0.7957747E-01            NaN
         13   -1    0    0    0    0  0.00000000000E+00  0.00000000000E+00  0.74505805969E-08  0.10566000000E+00  0.10566000000E+00 0.  1.
     999900   -1    0    0    0    0 -0.00000000000E+00 -0.00000000000E+00 -0.74505805969E-08  0.93827000000E+00  0.93827000000E+00 0. -1.
     999902    2    1    2    0    0 -0.39646501039E-04 -0.97850359467E-03  0.23259445033E-01  0.10206499479E+01  0.10203844155E+01 0.  0.
     999903    2    3    3    0    0  0.10879711647E+00 -0.58943237379E-01  0.41049674495E-01  0.13187447370E+00  0.19866636625E-01 0.  0.
         14    1    1    2    0    0  0.39646501039E-04  0.97850359467E-03 -0.23259445033E-01  0.23280052070E-01  0.00000000000E+00 0. -1.
     999901    1    3    3    0    0 -0.10883676297E+00  0.57964733784E-01 -0.17790229462E-01  0.88877547423E+00  0.88000000000E+00 0. -1.
        -11    1    4    4    0    0  0.93422736334E-01 -0.41978299209E-01  0.33459973808E-01  0.10774885724E+00  0.51100000000E-03 0. -1.
         11    1    4    4    0    0  0.15374380139E-01 -0.16964938170E-01  0.75897006869E-02  0.24125616454E-01  0.51100000000E-03 0.  1.
</event>
<event>
 8    1  0.1177602E+005  0.1043930E+01  0.7957747E-01            NaN
         13   -1    0    0    0    0  0.00000000000E+00  0.00000000000E+00  0.74505805969E-08  0.10566000000E+00  0.10566000000E+00 0. -1.
     999900   -1    0    0    0    0 -0.00000000000E+00 -0.00000000000E+00 -0.74505805969E-08  0.93827000000E+00  0.93827000000E+00 0.  1.
     999902    2    1    2    0    0  0.41562153514E-02  0.68174832580E-02 -0.22932482077E-01  0.10196472708E+01  0.10193580852E+01 0.  0.
     999903    2    3    3    0    0  0.10500426625E+00  0.72128589068E-01 -0.25806703689E-01  0.13147829415E+00  0.19802186374E-01 0.  0.
         14    1    1    2    0    0 -0.41562153514E-02 -0.68174832580E-02  0.22932482077E-01  0.24282729217E-01  0.00000000000E+00 0. -1.
     999901    1    3    3    0    0 -0.10084805090E+00 -0.65311105810E-01  0.28742216114E-02  0.88816897664E+00  0.88000000000E+00 0. -1.
        -11    1    4    4    0    0  0.49791931826E-01  0.39947228368E-01 -0.40437397024E-02  0.63965854024E-01  0.51100000000E-03 0.  1.
         11    1    4    4    0    0  0.55212334420E-01  0.32181360700E-01 -0.21762963986E-01  0.67512440121E-01  0.51100000000E-03 0. -1.
</event>
<event>
 8    1  0.1177602E+005  0.1043930E+01  0.7957747E-01            NaN
         13   -1    0    0    0    0  0.00000000000E+00  0.00000000000E+00  0.74505805969E-08  0.10566000000E+00  0.10566000000E+00 0.  1.
     999900   -1    0    0    0    0 -0.00000000000E+00 -0.00000000000E+00 -0.74505805969E-08  0.93827000000E+00  0.93827000000E+00 0.  1.
     999902    2    1    2    0    0  0.19157322783E-01 -0.12663874160E-01  0.56884089342E-02  0.10202712866E+01  0.10199969429E+01 0.  0.
     999903    2    3    3    0    0  0.56974039122E-01  0.96212926108E-01 -0.63501718866E-01  0.13006258326E+00  0.19515096209E-01 0.  0.
         14    1    1    2    0    0 -0.19157322783E-01  0.12663874160E-01 -0.56884089342E-02  0.23658713430E-01  0.00000000000E+00 0. -1.
     999901    1    3    3    0    0 -0.37816716339E-01 -0.10887680027E+00  0.69190127801E-01  0.89020870331E+00  0.88000000000E+00 0. -1.
        -11    1    4    4    0    0  0.40477002415E-01  0.72658546225E-01 -0.37297035113E-01  0.91153617664E-01  0.51100000000E-03 0.  1.
         11    1    4    4    0    0  0.16497036707E-01  0.23554379883E-01 -0.26204683754E-01  0.38908965592E-01  0.51100000000E-03 0. -1.
</event>
<event>
 8    1  0.1177602E+005  0.1043930E+01  0.7957747E-01            NaN
         13   -1    0    0    0    0  0.00000000000E+00  0.00000000000E+00  0.74505805969E-08  0.10566000000E+00  0.10566000000E+00 0. -1.
     999900   -1    0    0    0    0 -0.00000000000E+00 -0.00000000000E+00 -0.74505805969E-08  0.93827000000E+00  0.93827000000E+00 0. -1.
     999902    2    1    2    0    0 -0.17821880954E-01  0.12547497308E-01 -0.66451521145E-02  0.10211436625E+01  0.10208893977E+01 0.  0.
     999903    2    3    3    0    0  0.12501333085E+00 -0.23431824094E-01 -0.49464659942E-02  0.12889969653E+00  0.20329313079E-01 0.  0.
         14    1    1    2    0    0  0.17821880954E-01 -0.12547497308E-01  0.66451521145E-02  0.22786337487E-01  0.00000000000E+00 0.  1.
     999901    1    3    3    0    0 -0.14283521180E+00  0.35979321402E-01 -0.16986861203E-02  0.89224396598E+00  0.88000000000E+00 0. -1.
        -11    1    4    4    0    0  0.64178045987E-01 -0.11896818452E-01 -0.12691795677E-01  0.66495854566E-01  0.51100000000E-03 0.  1.
         11    1    4    4    0    0  0.60835284859E-01 -0.11535005643E-01  0.77453296824E-02  0.62403841964E-01  0.51100000000E-03 0. -1.
</event>
<event>
 8    1  0.1177602E+005  0.1043930E+01  0.7957747E-01            NaN
         13   -1    0    0    0    0  0.00000000000E+00  0.00000000000E+00  0.74505805969E-08  0.10566000000E+00  0.10566000000E+00 0. -1.
     999900   -1    0    0    0    0 -0.00000000000E+00 -0.00000000000E+00 -0.74505805969E-08  0.93827000000E+00  0.93827000000E+00 0. -1.
     999902    2    1    2    0    0  0.21795737702E-01 -0.80262702550E-02  0.59081389242E-02  0.10199637466E+01  0.10196821383E+01 0.  0.
     999903    2    3    3    0    0  0.17185269532E-01 -0.12236803983E+00  0.41989201912E-01  0.13182122438E+00  0.18559942319E-01 0.  0.
         14    1    1    2    0    0 -0.21795737702E-01  0.80262702550E-02 -0.59081389242E-02  0.23966253394E-01  0.00000000000E+00 0.  1.
     999901    1    3    3    0    0  0.46104681703E-02  0.11434176957E+00 -0.36081062988E-01  0.88814252223E+00  0.88000000000E+00 0. -1.
        -11    1    4    4    0    0  0.53192628232E-02 -0.61926575982E-01  0.30203515829E-01  0.69106503741E-01  0.51100000000E-03 0. -1.
         11    1    4    4    0    0  0.11866006709E-01 -0.60441463846E-01  0.11785686083E-01  0.62714720636E-01  0.51100000000E-03 0.  1.
</event>
<event>
 8    1  0.1177602E+005  0.1043930E+01  0.7957747E-01            NaN
         13   -1    0    0    0    0  0.00000000000E+00  0.00000000000E+00  0.74505805969E-08  0.10566000000E+00  0.10566000000E+00 0.  1.
     999900   -1    0    0    0    0 -0.00000000000E+00 -0.00000000000E+00 -0.74505805969E-08  0.93827000000E+00  0.93827000000E+00 0. -1.
     999902    2    1    2    0    0  0.20612125290E-01  0.67425622787E-02 -0.93565353107E-02  0.10203108000E+01  0.10200373827E+01 0.  0.
     999903    2    3    3    0    0  0.30322688790E-01 -0.11426183162E+00  0.50767264912E-01  0.12994501578E+00  0.18252679764E-01 0.  0.
         14    1    1    2    0    0 -0.20612125290E-01 -0.67425622787E-02  0.93565353107E-02  0.23619199988E-01  0.00000000000E+00 0. -1.
     999901    1    3    3    0    0 -0.97105635007E-02  0.12100439389E+00 -0.60123800223E-01  0.89036578424E+00  0.88000000000E+00 0. -1.
        -11    1    4    4    0    0  0.20588796756E-01 -0.43937553437E-01  0.18060122390E-01  0.51776793022E-01  0.51100000000E-03 0. -1.
         11    1    4    4    0    0  0.97338920343E-02 -0.70324278179E-01  0.32707142522E-01  0.78168222754E-01  0.51100000000E-03 0.  1.
</event>
<event>
 8    1  0.1177602E+005  0.1043930E+01  0.7957747E-01            NaN
         13   -1    0    0    0    0  0.00000000000E+00  0.00000000000E+00  0.74505805969E-08  0.10566000000E+00  0.10566000000E+00 0. -1.
     999900   -1    0    0    0    0 -0.00000000000E+00 -0.00000000000E+00 -0.74505805969E-08  0.93827000000E+00  0.93827000000E+00 0. -1.
     999902    2    1    2    0    0 -0.17877666071E-01 -0.78885749414E-02  0.13207208712E-01  0.10203446037E+01  0.10200719775E+01 0.  0.
     999903    2    3    3    0    0 -0.11438983115E+00  0.22202194037E-01 -0.57822834725E-01  0.13171345438E+00  0.20663565983E-01 0.  0.
         14    1    1    2    0    0  0.17877666071E-01  0.78885749414E-02 -0.13207208712E-01  0.23585396345E-01  0.00000000000E+00 0. -1.
     999901    1    3    3    0    0  0.96512165079E-01 -0.30090768978E-01  0.71030043437E-01  0.88863114927E+00  0.88000000000E+00 0. -1.
        -11    1    4    4    0    0 -0.48131083572E-01  0.13651021593E-02 -0.16556189776E-01  0.50919870881E-01  0.51100000000E-03 0. -1.
         11    1    4    4    0    0 -0.66258747579E-01  0.20837091878E-01 -0.41266644949E-01  0.80793583502E-01  0.51100000000E-03 0.  1.
</event>
<event>
 8    1  0.1177602E+005  0.1043930E+01  0.7957747E-01            NaN
         13   -1    0    0    0    0  0.00000000000E+00  0.00000000000E+00  0.74505805969E-08  0.10566000000E+00  0.10566000000E+00 0. -1.
     999900   -1    0    0    0    0 -0.00000000000E+00 -0.00000000000E+00 -0.74505805969E-08  0.93827000000E+00  0.93827000000E+00 0. -1.
     999902    2    1    2    0    0 -0.17519633031E-02  0.17626065758E-01  0.15988356736E-01  0.10200684175E+01  0.10197892926E+01 0.  0.
     999903    2    3    3    0    0 -0.12859593975E-01 -0.47757898240E-01  0.12018897373E+00  0.13144239333E+00  0.19634850522E-01 0.  0.
         14    1    1    2    0    0  0.17519633031E-02 -0.17626065758E-01 -0.15988356736E-01  0.23861582526E-01  0.00000000000E+00 0.  1.
     999901    1    3    3    0    0  0.11107630672E-01  0.65383963999E-01 -0.10420061700E+00  0.88862602415E+00  0.88000000000E+00 0. -1.
        -11    1    4    4    0    0 -0.11217734673E-01 -0.89442372308E-02  0.33310564907E-01  0.36272466228E-01  0.51100000000E-03 0. -1.
         11    1    4    4    0    0 -0.16418593022E-02 -0.38813661010E-01  0.86878408827E-01  0.95169927100E-01  0.51100000000E-03 0.  1.
</event>
<event>
 8    1  0.1177602E+005  0.1043930E+01  0.7957747E-01            NaN
         13   -1    0    0    0    0  0.00000000000E+00  0.00000000000E+00  0.74505805969E-08  0.10566000000E+00  0.10566000000E+00 0.  1.
     999900   -1    0    0    0    0 -0.00000000000E+00 -0.00000000000E+00 -0.74505805969E-08  0.93827000000E+00  0.93827000000E+00 0.  1.
     999902    2    1    2    0    0 -0.15190237932E-01 -0.30034509985E-02  0.17747230008E-01  0.10203773310E+01  0.10201054697E+01 0.  0.
     999903    2    3    3    0    0 -0.11409162125E+00 -0.57641374267E-01  0.30935531677E-01  0.13305511350E+00  0.20179941590E-01 0.  0.
         14    1    1    2    0    0  0.15190237932E-01  0.30034509985E-02 -0.17747230008E-01  0.23552669048E-01  0.00000000000E+00 0. -1.
     999901    1    3    3    0    0  0.98901383315E-01  0.54637923268E-01 -0.13188301669E-01  0.88732221745E+00  0.88000000000E+00 0. -1.
        -11    1    4    4    0    0 -0.73103663064E-01 -0.28523363476E-01  0.25347294252E-01  0.82464988112E-01  0.51100000000E-03 0.  1.
         11    1    4    4    0    0 -0.40987958183E-01 -0.29118010791E-01  0.55882374251E-02  0.50590125389E-01  0.51100000000E-03 0. -1.
</event>
<event>
 8    1  0.1177602E+005  0.1043930E+01  0.7957747E-01            NaN
         13   -1    0    0    0    0  0.00000000000E+00  0.00000000000E+00  0.74505805969E-08  0.10566000000E+00  0.10566000000E+00 0.  1.
     999900   -1    0    0    0    0 -0.00000000000E+00 -0.00000000000E+00 -0.74505805969E-08  0.93827000000E+00  0.93827000000E+00 0. -1.
     999902    2    1    2    0    0  0.10676346230E-01 -0.20896809538E-01 -0.17911969194E-02  0.10203955698E+01  0.10201241344E+01 0.  0.
     999903    2    3    3    0    0 -0.90825684323E-01 -0.90470816501E-01 -0.21914106095E-01  0.13160530427E+00  0.20135900666E-01 0.  0.
         14    1    1    2    0    0 -0.10676346230E-01  0.20896809538E-01  0.17911969194E-02  0.23534430184E-01  0.00000000000E+00 0.  1.
     999901    1    3    3    0    0  0.10150203055E+00  0.69574006963E-01  0.20122909175E-01  0.88879026554E+00  0.88000000000E+00 0.  1.
        -11    1    4    4    0    0 -0.41363262528E-01 -0.34901941088E-01 -0.18258475054E-01  0.57120031609E-01  0.51100000000E-03 0. -1.
         11    1    4    4    0    0 -0.49462421794E-01 -0.55568875413E-01 -0.36556310406E-02  0.74485272664E-01  0.51100000000E-03 0.  1.
</event>
<event>
 8    1  0.1177602E+005  0.1043930E+01  0.7957747E-01            NaN
         13   -1    0    0    0    0  0.00000000000E+00  0.00000000000E+00  0.74505805969E-08  0.10566000000E+00  0.10566000000E+00 0. -1.
     999900   -1    0    0    0    0 -0.00000000000E+00 -0.00000000000E+00 -0.74505805969E-08  0.93827000000E+00  0.93827000000E+00 0. -1.
     999902    2    1    2    0    0 -0.21219957970E-02 -0.12327686401E-01 -0.26761498880E-01  0.10143893070E+01  0.10139590789E+01 0.  0.
     999903    2    3    3    0    0  0.84966738737E-01 -0.64822878466E-01 -0.66920116723E-01  0.12762388853E+00  0.19702858635E-01 0.  0.
         14    1    1    2    0    0  0.21219957970E-02  0.12327686401E-01  0.26761498880E-01  0.29540692958E-01  0.00000000000E+00 0. -1.
     999901    1    3    3    0    0 -0.87088734534E-01  0.52495192066E-01  0.40158617843E-01  0.88676541851E+00  0.88000000000E+00 0. -1.
        -11    1    4    4    0    0  0.33103593902E-01 -0.23432575342E-01 -0.36738467247E-01  0.54725767359E-01  0.51100000000E-03 0. -1.
         11    1    4    4    0    0  0.51863144835E-01 -0.41390303125E-01 -0.30181649476E-01  0.72898121176E-01  0.51100000000E-03 0.  1.
</event>
<event>
 8    1  0.1177602E+005  0.1043930E+01  0.7957747E-01            NaN
         13   -1    0    0    0    0  0.00000000000E+00  0.00000000000E+00  0.74505805969E-08  0.10566000000E+00  0.10566000000E+00 0.  1.
     999900   -1    0    0    0    0 -0.00000000000E+00 -0.00000000000E+00 -0.74505805969E-08  0.93827000000E+00  0.93827000000E+00 0.  1.
     999902    2    1    2    0    0 -0.33979353447E-02 -0.23499195889E-01 -0.37317815365E-02  0.10198949347E+01  0.10196116876E+01 0.  0.
     999903    2    3    3    0    0  0.11444056847E+00 -0.57439624612E-01  0.19922107119E-01  0.13107697123E+00  0.19706035796E-01 0.  0.
         14    1    1    2    0    0  0.33979353447E-02  0.23499195889E-01  0.37317815365E-02  0.24035065332E-01  0.00000000000E+00 0.  1.
     999901    1    3    3    0    0 -0.11783850382E+00  0.33940428722E-01 -0.23653888655E-01  0.88881796344E+00  0.88000000000E+00 0. -1.
        -11    1    4    4    0    0  0.42134400634E-01 -0.11298938825E-01  0.37154702045E-02  0.43784010497E-01  0.51100000000E-03 0.  1.
         11    1    4    4    0    0  0.72306167839E-01 -0.46140685787E-01  0.16206636914E-01  0.87292960733E-01  0.51100000000E-03 0. -1.
</event>
<event>
 8    1  0.1177602E+005  0.1043930E+01  0.7957747E-01            NaN
         13   -1    0    0    0    0  0.00000000000E+00  0.00000000000E+00  0.74505805969E-08  0.10566000000E+00  0.10566000000E+00 0.  1.
     999900   -1    0    0    0    0 -0.00000000000E+00 -0.00000000000E+00 -0.74505805969E-08  0.93827000000E+00  0.93827000000E+00 0.  1.
     999902    2    1    2    0    0 -0.58892142871E-02 -0.21359283707E-01  0.88582323653E-02  0.10200685221E+01  0.10197893997E+01 0.  0.
     999903    2    3    3    0    0 -0.94646993542E-01 -0.84875213901E-01 -0.31574367550E-01  0.13240472772E+00  0.19292898081E-01 0.  0.
         14    1    1    2    0    0  0.58892142871E-02  0.21359283707E-01 -0.88582323653E-02  0.23861477868E-01  0.00000000000E+00 0.  1.
     999901    1    3    3    0    0  0.88757779255E-01  0.63515930194E-01  0.40432599916E-01  0.88766379441E+00  0.88000000000E+00 0. -1.
        -11    1    4    4    0    0 -0.47740724331E-01 -0.43930025502E-01 -0.25984378779E-01  0.69889004585E-01  0.51100000000E-03 0.  1.
         11    1    4    4    0    0 -0.46906269211E-01 -0.40945188398E-01 -0.55899887718E-02  0.62515723140E-01  0.51100000000E-03 0. -1.
</event>
<event>
 8    1  0.1177602E+005  0.1043930E+01  0.7957747E-01            NaN
         13   -1    0    0    0    0  0.00000000000E+00  0.00000000000E+00  0.74505805969E-08  0.10566000000E+00  0.10566000000E+00 0. -1.
     999900   -1    0    0    0    0 -0.00000000000E+00 -0.00000000000E+00 -0.74505805969E-08  0.93827000000E+00  0.93827000000E+00 0.  1.
     999902    2    1    2    0    0 -0.56672512155E-02  0.16165624446E-01  0.16300381600E-01  0.10202836982E+01  0.10200096456E+01 0.  0.
     999903    2    3    3    0    0 -0.87022041223E-01  0.68838114921E-01 -0.66927853334E-01  0.13105935516E+00  0.19639126716E-01 0.  0.
         14    1    1    2    0    0  0.56672512155E-02 -0.16165624446E-01 -0.16300381600E-01  0.23646301832E-01  0.00000000000E+00 0. -1.
     999901    1    3    3    0    0  0.81354790007E-01 -0.52672490476E-01  0.83228234933E-01  0.88922434301E+00  0.88000000000E+00 0. -1.
        -11    1    4    4    0    0 -0.47477939137E-01  0.40567283752E-01 -0.48495148370E-01  0.79068955679E-01  0.51100000000E-03 0.  1.
         11    1    4    4    0    0 -0.39544102086E-01  0.28270831169E-01 -0.18432704964E-01  0.51990399480E-01  0.51100000000E-03 0. -1.
</event>
<event>
 8    1  0.1177602E+005  0.1043930E+01  0.7957747E-01            NaN
         13   -1    0    0    0    0  0.00000000000E+00  0.00000000000E+00  0.74505805969E-08  0.10566000000E+00  0.10566000000E+00 0.  1.
     999900   -1    0    0    0    0 -0.00000000000E+00 -0.00000000000E+00 -0.74505805969E-08  0.93827000000E+00  0.93827000000E+00 0. -1.
     999902    2    1    2    0    0  0.19546587072E-01  0.12412739773E-02 -0.12539842328E-01  0.10206736574E+01  0.10204086717E+01 0.  0.
     999903    2    3    3    0    0  0.84242091687E-02  0.10472571359E+00 -0.77570721711E-01  0.13215705549E+00  0.20244210584E-01 0.  0.
         14    1    1    2    0    0 -0.19546587072E-01 -0.12412739773E-02  0.12539842328E-01  0.23256342638E-01  0.00000000000E+00 0.  1.
     999901    1    3    3    0    0  0.11122377904E-01 -0.10348443961E+00  0.65030879383E-01  0.88851660187E+00  0.88000000000E+00 0.  1.
        -11    1    4    4    0    0 -0.16577364638E-02  0.76757620201E-01 -0.61406352353E-01  0.98313181107E-01  0.51100000000E-03 0.  1.
         11    1    4    4    0    0  0.10081945633E-01  0.27968093386E-01 -0.16164369358E-01  0.33843874381E-01  0.51100000000E-03 0. -1.
</event>
<event>
 8    1  0.1177602E+005  0.1043930E+01  0.7957747E-01            NaN
         13   -1    0    0    0    0  0.00000000000E+00  0.00000000000E+00  0.74505805969E-08  0.10566000000E+00  0.10566000000E+00 0. -1.
     999900   -1    0    0    0    0 -0.00000000000E+00 -0.00000000000E+00 -0.74505805969E-08  0.93827000000E+00  0.93827000000E+00 0. -1.
     999902    2    1    2    0    0 -0.13048000389E-01 -0.13076623208E-01 -0.10615374855E-01  0.10226242596E+01  0.10224022896E+01 0.  0.
     999903    2    3    3    0    0 -0.75950236554E-01 -0.10846618210E+00  0.14673825948E-01  0.13487688402E+00  0.21049978189E-01 0.  0.
         14    1    1    2    0    0  0.13048000389E-01  0.13076623208E-01  0.10615374855E-01  0.21305740353E-01  0.00000000000E+00 0. -1.
     999901    1    3    3    0    0  0.62902236164E-01  0.95389558894E-01 -0.25289200803E-01  0.88774737563E+00  0.88000000000E+00 0.  1.
        -11    1    4    4    0    0 -0.33217060216E-01 -0.49420004966E-01 -0.38446071925E-02  0.59672037888E-01  0.51100000000E-03 0. -1.
         11    1    4    4    0    0 -0.42733176337E-01 -0.59046177136E-01  0.18518433140E-01  0.75204846128E-01  0.51100000000E-03 0.  1.
</event>
<event>
 8    1  0.1177602E+005  0.1043930E+01  0.7957747E-01            NaN
         13   -1    0    0    0    0  0.00000000000E+00  0.00000000000E+00  0.74505805969E-08  0.10566000000E+00  0.10566000000E+00 0.  1.
     999900   -1    0    0    0    0 -0.00000000000E+00 -0.00000000000E+00 -0.74505805969E-08  0.93827000000E+00  0.93827000000E+00 0. -1.
     999902    2    1    2    0    0 -0.46068089902E-02 -0.22017874572E-01 -0.78822325440E-02  0.10200943318E+01  0.10198158200E+01 0.  0.
     999903    2    3    3    0    0  0.37856298264E-01  0.41551624573E-01  0.11397567973E+00  0.12841414949E+00  0.18441838220E-01 0.  0.
         14    1    1    2    0    0  0.46068089902E-02  0.22017874572E-01  0.78822325440E-02  0.23835668222E-01  0.00000000000E+00 0.  1.
     999901    1    3    3    0    0 -0.42463107254E-01 -0.63569499144E-01 -0.12185791227E+00  0.89168018229E+00  0.88000000000E+00 0. -1.
        -11    1    4    4    0    0  0.18139072621E-01  0.32370721468E-01  0.77865957965E-01  0.86256930705E-01  0.51100000000E-03 0. -1.
         11    1    4    4    0    0  0.19717225643E-01  0.91809031051E-02  0.36109721765E-01  0.42157218786E-01  0.51100000000E-03 0.  1.
</event>
<event>
 8    1  0.1177602E+005  0.1043930E+01  0.7957747E-01            NaN
         13   -1    0    0    0    0  0.00000000000E+00  0.00000000000E+00  0.74505805969E-08  0.10566000000E+00  0.10566000000E+00 0.  1.
     999900   -1    0    0    0    0 -0.00000000000E+00 -0.00000000000E+00 -0.74505805969E-08  0.93827000000E+00  0.93827000000E+00 0.  1.
     999902    2    1    2    0    0 -0.18303010001E-01  0.15905551859E-01 -0.65610917749E-03  0.10196726870E+01  0.10193841138E+01 0.  0.
     999903    2    3    3    0    0  0.53021502850E-01  0.23247443315E-02 -0.11592200211E+00  0.12919087890E+00  0.20873150673E-01 0.  0.
         14    1    1    2    0    0  0.18303010001E-01 -0.15905551859E-01  0.65610917749E-03  0.24257313006E-01  0.00000000000E+00 0.  1.
     999901    1    3    3    0    0 -0.71324512851E-01  0.13580807527E-01  0.11526589293E+00  0.89048180809E+00  0.88000000000E+00 0. -1.
        -11    1    4    4    0    0  0.28518798183E-01 -0.38406957700E-02 -0.81900140359E-01  0.86809947043E-01  0.51100000000E-03 0. -1.
         11    1    4    4    0    0  0.24502704667E-01  0.61654401015E-02 -0.34021861747E-01  0.42380931861E-01  0.51100000000E-03 0.  1.
</event>
<event>
 8    1  0.1177602E+005  0.1043930E+01  0.7957747E-01            NaN
         13   -1    0    0    0    0  0.00000000000E+00  0.00000000000E+00  0.74505805969E-08  0.10566000000E+00  0.10566000000E+00 0. -1.
     999900   -1    0    0    0    0 -0.00000000000E+00 -0.00000000000E+00 -0.74505805969E-08  0.93827000000E+00  0.93827000000E+00 0. -1.
     999902    2    1    2    0    0 -0.22846839442E-01 -0.67528352510E-02  0.46409288256E-02  0.10196582659E+01  0.10193693453E+01 0.  0.
     999903    2    3    3    0    0 -0.77448363767E-01 -0.98253046831E-02 -0.10365364177E+00  0.13133485601E+00  0.20247994653E-01 0.  0.
         14    1    1    2    0    0  0.22846839442E-01  0.67528352510E-02 -0.46409288256E-02  0.24271734111E-01  0.00000000000E+00 0.  1.
     999901    1    3    3    0    0  0.54601524326E-01  0.30724694321E-02  0.10829457059E+00  0.88832340988E+00  0.88000000000E+00 0.  1.
        -11    1    4    4    0    0 -0.53606268447E-01  0.19656467212E-02 -0.75302222856E-01  0.92456377130E-01  0.51100000000E-03 0. -1.
         11    1    4    4    0    0 -0.23842095320E-01 -0.11790951404E-01 -0.28351418913E-01  0.38878478875E-01  0.51100000000E-03 0.  1.
</event>
<event>
 8    1  0.1177602E+005  0.1043930E+01  0.7957747E-01            NaN
         13   -1    0    0    0    0  0.00000000000E+00  0.00000000000E+00  0.74505805969E-08  0.10566000000E+00  0.10566000000E+00 0. -1.
     999900   -1    0    0    0    0 -0.00000000000E+00 -0.00000000000E+00 -0.74505805969E-08  0.93827000000E+00  0.93827000000E+00 0.  1.
     999902    2    1    2    0    0  0.12480752140E-01  0.15997801748E-01  0.10825472311E-01  0.10209323983E+01  0.10206733425E+01 0.  0.
     999903    2    3    3    0    0  0.33201879698E-01 -0.18594552572E-01  0.12552842571E+00  0.13257280687E+00  0.19236456562E-01 0.  0.
         14    1    1    2    0    0 -0.12480752140E-01 -0.15997801748E-01 -0.10825472311E-01  0.22997601734E-01  0.00000000000E+00 0. -1.
     999901    1    3    3    0    0 -0.20721127558E-01  0.34592354321E-01 -0.11470295339E+00  0.88835959139E+00  0.88000000000E+00 0.  1.
        -11    1    4    4    0    0  0.13918479058E-01 -0.15707120044E-02  0.69784170977E-01  0.71177825447E-01  0.51100000000E-03 0.  1.
         11    1    4    4    0    0  0.19283400640E-01 -0.17023840568E-01  0.55744254728E-01  0.61394981425E-01  0.51100000000E-03 0. -1.
</event>
<event>
 8    1  0.1177602E+005  0.1043930E+01  0.7957747E-01            NaN
         13   -1    0    0    0    0  0.00000000000E+00  0.00000000000E+00  0.74505805969E-08  0.10566000000E+00  0.10566000000E+00 0.  1.
     999900   -1    0    0    0    0 -0.00000000000E+00 -0.00000000000E+00 -0.74505805969E-08  0.93827000000E+00  0.93827000000E+00 0. -1.
     999902    2    1    2    0    0  0.10328506946E-01  0.21787070879E-01 -0.56334598843E-02  0.10191693380E+01  0.10188685141E+01 0.  0.
     999903    2    3    3    0    0  0.12829460806E+00 -0.11375567050E-02 -0.16975052841E-01  0.13092940908E+00  0.19838277445E-01 0.  0.
         14    1    1    2    0    0 -0.10328506946E-01 -0.21787070879E-01  0.56334598843E-02  0.24760662016E-01  0.00000000000E+00 0. -1.
     999901    1    3    3    0    0 -0.11796610111E+00  0.22924627584E-01  0.11341592957E-01  0.88823992890E+00  0.88000000000E+00 0.  1.
        -11    1    4    4    0    0  0.75319273869E-01  0.33728749625E-02 -0.18885101186E-01  0.77725655156E-01  0.51100000000E-03 0. -1.
         11    1    4    4    0    0  0.52975334189E-01 -0.45104316675E-02  0.19100483451E-02  0.53203753927E-01  0.51100000000E-03 0.  1.
</event>
<event>
 8    1  0.1177602E+005  0.1043930E+01  0.7957747E-01            NaN
         13   -1    0    0    0    0  0.00000000000E+00  0.00000000000E+00  0.74505805969E-08  0.10566000000E+00  0.10566000000E+00 0. -1.
     999900   -1    0    0    0    0 -0.00000000000E+00 -0.00000000000E+00 -0.74505805969E-08  0.93827000000E+00  0.93827000000E+00 0.  1.
     999902    2    1    2    0    0  0.44804512449E-02  0.20340888644E-01 -0.12306254123E-01  0.10197376441E+01  0.10194506328E+01 0.  0.
     999903    2    3    3    0    0  0.44145783735E-01 -0.84909179944E-01 -0.85017506270E-01  0.12960403517E+00  0.20268460687E-01 0.  0.
         14    1    1    2    0    0 -0.44804512449E-02 -0.20340888644E-01  0.12306254123E-01  0.24192355915E-01  0.00000000000E+00 0. -1.
     999901    1    3    3    0    0 -0.39665332490E-01  0.10525006859E+00  0.72711252147E-01  0.89013360892E+00  0.88000000000E+00 0. -1.
        -11    1    4    4    0    0  0.31542042840E-01 -0.67286411566E-01 -0.75487613192E-01  0.10592923352E+00  0.51100000000E-03 0.  1.
         11    1    4    4    0    0  0.12603740895E-01 -0.17622768378E-01 -0.95298930779E-02  0.23674801645E-01  0.51100000000E-03 0. -1.
</event>
<event>
 8    1  0.1177602E+005  0.1043930E+01  0.7957747E-01            NaN
         13   -1    0    0    0    0  0.00000000000E+00  0.00000000000E+00  0.74505805969E-08  0.10566000000E+00  0.10566000000E+00 0. -1.
     999900   -1    0    0    0    0 -0.00000000000E+00 -0.00000000000E+00 -0.74505805969E-08  0.93827000000E+00  0.93827000000E+00 0.  1.
     999902    2    1    2    0    0  0.18471931122E-01  0.14726407974E-01  0.42165252152E-02  0.10199329498E+01  0.10196506087E+01 0.  0.
     999903    2    3    3    0    0 -0.10517179247E+00 -0.66619374750E-01  0.19022062939E-01  0.12745095524E+00  0.19561699538E-01 0.  0.
         14    1    1    2    0    0 -0.18471931122E-01 -0.14726407974E-01 -0.42165252152E-02  0.23997050153E-01  0.00000000000E+00 0. -1.
     999901    1    3    3    0    0  0.12364372359E+00  0.81345782724E-01 -0.14805537724E-01  0.89248199461E+00  0.88000000000E+00 0.  1.
        -11    1    4    4    0    0 -0.14690687433E-01 -0.14089031815E-01  0.92690138558E-02  0.22371697602E-01  0.51100000000E-03 0. -1.
         11    1    4    4    0    0 -0.90481105040E-01 -0.52530342936E-01  0.97530490833E-02  0.10507925764E+00  0.51100000000E-03 0.  1.
</event>
<event>
 8    1  0.1177602E+005  0.1043930E+01  0.7957747E-01            NaN
         13   -1    0    0    0    0  0.00000000000E+00  0.00000000000E+00  0.74505805969E-08  0.10566000000E+00  0.10566000000E+00 0. -1.
     999900   -1    0    0    0    0 -0.00000000000E+00 -0.00000000000E+00 -0.74505805969E-08  0.93827000000E+00  0.93827000000E+00 0. -1.
     999902    2    1    2    0    0 -0.21207536775E-01  0.56193825866E-02 -0.77379153975E-02  0.10206660276E+01  0.10204008661E+01 0.  0.
     999903    2    3    3    0    0  0.58536565286E-01 -0.32841810626E-01  0.10793947152E+00  0.12869089172E+00  0.20132116104E-01 0.  0.
         14    1    1    2    0    0  0.21207536775E-01 -0.56193825866E-02  0.77379153975E-02  0.23263972391E-01  0.00000000000E+00 0. -1.
     999901    1    3    3    0    0 -0.79744102060E-01  0.38461193212E-01 -0.11567738692E+00  0.89197513589E+00  0.88000000000E+00 0. -1.
        -11    1    4    4    0    0  0.25848532996E-02 -0.84089733733E-02  0.17140024109E-01  0.19272619107E-01  0.51100000000E-03 0. -1.
         11    1    4    4    0    0  0.55951711986E-01 -0.24432837253E-01  0.90799447414E-01  0.10941827262E+00  0.51100000000E-03 0.  1.
</event>
<event>
 8    1  0.1177602E+005  0.1043930E+01  0.7957747E-01            NaN
         13   -1    0    0    0    0  0.00000000000E+00  0.00000000000E+00  0.74505805969E-08  0.10566000000E+00  0.10566000000E+00 0.  1.
     999900   -1    0    0    0    0 -0.00000000000E+00 -0.00000000000E+00 -0.74505805969E-08  0.93827000000E+00  0.93827000000E+00 0.  1.
     999902    2    1    2    0    0  0.43480309976E-02  0.97749054657E-02 -0.22256826409E-01  0.10192354566E+01  0.10189362569E+01 0.  0.
     999903    2    3    3    0    0  0.69227672745E-01  0.84252276023E-01 -0.72206678809E-01  0.13230184334E+00  0.19976400991E-01 0.  0.
         14    1    1    2    0    0 -0.43480309976E-02 -0.97749054657E-02  0.22256826409E-01  0.24694543369E-01  0.00000000000E+00 0.  1.
     999901    1    3    3    0    0 -0.64879641748E-01 -0.74477370557E-01  0.49949852399E-01  0.88693361330E+00  0.88000000000E+00 0. -1.
        -11    1    4    4    0    0  0.42285628746E-01  0.51012486268E-01 -0.55251263006E-01  0.86274627432E-01  0.51100000000E-03 0. -1.
         11    1    4    4    0    0  0.26942043999E-01  0.33239789755E-01 -0.16955415802E-01  0.46027215904E-01  0.51100000000E-03 0.  1.
</event>
<event>
 8    1  0.1177602E+005  0.1043930E+01  0.7957747E-01            NaN
         13   -1    0    0    0    0  0.00000000000E+00  0.00000000000E+00  0.74505805969E-08  0.10566000000E+00  0.10566000000E+00 0.  1.
     999900   -1    0    0    0    0 -0.00000000000E+00 -0.00000000000E+00 -0.74505805969E-08  0.93827000000E+00  0.93827000000E+00 0.  1.
     999902    2    1    2    0    0 -0.14394633431E-01  0.17359802981E-01  0.52291006927E-02  0.10207802327E+01  0.10205176979E+01 0.  0.
     999903    2    3    3    0    0 -0.26940608209E-01  0.36033885902E-01  0.12311257372E+00  0.13263461624E+00  0.20273093363E-01 0.  0.
         14    1    1    2    0    0  0.14394633431E-01 -0.17359802981E-01 -0.52291006927E-02  0.23149767282E-01  0.00000000000E+00 0. -1.
     999901    1    3    3    0    0  0.12545974778E-01 -0.18674082921E-01 -0.11788347302E+00  0.88814561648E+00  0.88000000000E+00 0.  1.
        -11    1    4    4    0    0 -0.19591889131E-01  0.34869484786E-01  0.86927054597E-01  0.95688541795E-01  0.51100000000E-03 0.  1.
         11    1    4    4    0    0 -0.73487190779E-02  0.11644011164E-02  0.36185519118E-01  0.36946074445E-01  0.51100000000E-03 0. -1.
</event>
<event>
 8    1  0.1177602E+005  0.1043930E+01  0.7957747E-01            NaN
         13   -1    0    0    0    0  0.00000000000E+00  0.00000000000E+00  0.74505805969E-08  0.10566000000E+00  0.10566000000E+00 0.  1.
     999900   -1    0    0    0    0 -0.00000000000E+00 -0.00000000000E+00 -0.74505805969E-08  0.93827000000E+00  0.93827000000E+00 0.  1.
     999902    2    1    2    0    0  0.22374767694E-01 -0.73169776337E-02 -0.68468696785E-02  0.10194137194E+01  0.10191188759E+01 0.  0.
     999903    2    3    3    0    0 -0.65689411329E-01 -0.43702819780E-01  0.98446809289E-01  0.12802940946E+00  0.21788074967E-01 0.  0.
         14    1    1    2    0    0 -0.22374767694E-01  0.73169776337E-02  0.68468696785E-02  0.24516280620E-01  0.00000000000E+00 0. -1.
     999901    1    3    3    0    0  0.88064179023E-01  0.36385842147E-01 -0.10529367897E+00  0.89138430992E+00  0.88000000000E+00 0.  1.
        -11    1    4    4    0    0 -0.38538045853E-01 -0.25796473060E-01  0.74026258307E-01  0.87354376195E-01  0.51100000000E-03 0.  1.
         11    1    4    4    0    0 -0.27151365476E-01 -0.17906346721E-01  0.24420550982E-01  0.40675033268E-01  0.51100000000E-03 0. -1.
</event>
<event>
 8    1  0.1177602E+005  0.1043930E+01  0.7957747E-01            NaN
         13   -1    0    0    0    0  0.00000000000E+00  0.00000000000E+00  0.74505805969E-08  0.10566000000E+00  0.10566000000E+00 0.  1.
     999900   -1    0    0    0    0 -0.00000000000E+00 -0.00000000000E+00 -0.74505805969E-08  0.93827000000E+00  0.93827000000E+00 0. -1.
     999902    2    1    2    0    0  0.65094502046E-02  0.17315584252E-01 -0.11291647494E-01  0.10222573513E+01  0.10220275870E+01 0.  0.
     999903    2    3    3    0    0 -0.37632711784E-03 -0.70971539783E-01  0.10721124921E+00  0.12990934363E+00  0.18576450802E-01 0.  0.
         14    1    1    2    0    0 -0.65094502046E-02 -0.17315584252E-01  0.11291647494E-01  0.21672648733E-01  0.00000000000E+00 0.  1.
     999901    1    3    3    0    0  0.68857773225E-02  0.88287124035E-01 -0.11850289671E+00  0.89234800763E+00  0.88000000000E+00 0. -1.
        -11    1    4    4    0    0  0.81985335836E-02 -0.25178950870E-01  0.44492186674E-01  0.51778483136E-01  0.51100000000E-03 0. -1.
         11    1    4    4    0    0 -0.85748607014E-02 -0.45792588914E-01  0.62719062539E-01  0.78130860498E-01  0.51100000000E-03 0.  1.
</event>
<event>
 8    1  0.1177602E+005  0.1043930E+01  0.7957747E-01            NaN
         13   -1    0    0    0    0  0.00000000000E+00  0.00000000000E+00  0.74505805969E-08  0.10566000000E+00  0.10566000000E+00 0. -1.
     999900   -1    0    0    0    0 -0.00000000000E+00 -0.00000000000E+00 -0.74505805969E-08  0.93827000000E+00  0.93827000000E+00 0. -1.
     999902    2    1    2    0    0  0.56567235998E-02  0.43651156006E-02 -0.22936193510E-01  0.10199066420E+01  0.10196236741E+01 0.  0.
     999903    2    3    3    0    0  0.93895452002E-01 -0.88069266849E-01  0.11781249470E-02  0.13034962383E+00  0.20422653708E-01 0.  0.
         14    1    1    2    0    0 -0.56567235998E-02 -0.43651156006E-02  0.22936193510E-01  0.24023357984E-01  0.00000000000E+00 0. -1.
     999901    1    3    3    0    0 -0.88238728402E-01  0.92434382449E-01 -0.24114318457E-01  0.88955701819E+00  0.88000000000E+00 0.  1.
        -11    1    4    4    0    0  0.34608534416E-01 -0.41853647680E-01  0.78696973226E-02  0.54878700199E-01  0.51100000000E-03 0. -1.
         11    1    4    4    0    0  0.59286917586E-01 -0.46215619169E-01 -0.66915723756E-02  0.75470923632E-01  0.51100000000E-03 0.  1.
</event>
<event>
 8    1  0.1177602E+005  0.1043930E+01  0.7957747E-01            NaN
         13   -1    0    0    0    0  0.00000000000E+00  0.00000000000E+00  0.74505805969E-08  0.10566000000E+00  0.10566000000E+00 0. -1.
     999900   -1    0    0    0    0 -0.00000000000E+00 -0.00000000000E+00 -0.74505805969E-08  0.93827000000E+00  0.93827000000E+00 0. -1.
     999902    2    1    2    0    0 -0.39377717589E-02 -0.18811330584E-01  0.16609514057E-01  0.10185282646E+01  0.10182114602E+01 0.  0.
     999903    2    3    3    0    0  0.49992331601E-01 -0.20747430039E-01  0.11796807180E+00  0.13106797716E+00  0.18238958314E-01 0.  0.
         14    1    1    2    0    0  0.39377717589E-02  0.18811330584E-01 -0.16609514057E-01  0.25401735412E-01  0.00000000000E+00 0.  1.
     999901    1    3    3    0    0 -0.53930103360E-01  0.19360994548E-02 -0.10135855775E+00  0.88746028743E+00  0.88000000000E+00 0. -1.
        -11    1    4    4    0    0  0.35224900585E-03  0.19485841512E-02  0.18396722062E-02  0.27507406971E-02  0.51100000000E-03 0. -1.
         11    1    4    4    0    0  0.49640082595E-01 -0.22696014190E-01  0.11612839960E+00  0.12831723646E+00  0.51100000000E-03 0.  1.
</event>
<event>
 8    1  0.1177602E+005  0.1043930E+01  0.7957747E-01            NaN
         13   -1    0    0    0    0  0.00000000000E+00  0.00000000000E+00  0.74505805969E-08  0.10566000000E+00  0.10566000000E+00 0. -1.
     999900   -1    0    0    0    0 -0.00000000000E+00 -0.00000000000E+00 -0.74505805969E-08  0.93827000000E+00  0.93827000000E+00 0.  1.
     999902    2    1    2    0    0 -0.16471508891E-01 -0.15057651688E-01  0.72087487861E-02  0.10204777178E+01  0.10202081959E+01 0.  0.
     999903    2    3    3    0    0  0.89366910774E-02 -0.42265556395E-01 -0.12134295856E+00  0.13035896836E+00  0.20077483307E-01 0.  0.
         14    1    1    2    0    0  0.16471508891E-01  0.15057651688E-01 -0.72087487861E-02  0.23452282161E-01  0.00000000000E+00 0. -1.
     999901    1    3    3    0    0 -0.25408199969E-01  0.27207904707E-01  0.12855170735E+00  0.89011874947E+00  0.88000000000E+00 0. -1.
        -11    1    4    4    0    0  0.39496611312E-02 -0.16918056696E-01 -0.77877784066E-01  0.79793676676E-01  0.51100000000E-03 0.  1.
         11    1    4    4    0    0  0.49870299462E-02 -0.25347499699E-01 -0.43465174495E-01  0.50565291689E-01  0.51100000000E-03 0. -1.
</event>
<event>
 8    1  0.1177602E+005  0.1043930E+01  0.7957747E-01            NaN
         13   -1    0    0    0    0  0.00000000000E+00  0.00000000000E+00  0.74505805969E-08  0.10566000000E+00  0.10566000000E+00 0.  1.
     999900   -1    0    0    0    0 -0.00000000000E+00 -0.00000000000E+00 -0.74505805969E-08  0.93827000000E+00  0.93827000000E+00 0. -1.
     999902    2    1    2    0    0 -0.46194865398E-02 -0.17655336476E-01 -0.17825014893E-01  0.10184195763E+01  0.10181000205E+01 0.  0.
     999903    2    3    3    0    0 -0.94306344932E-01  0.54671161867E-01  0.62551247876E-01  0.12727693981E+00  0.20103187874E-01 0.  0.
         14    1    1    2    0    0  0.46194865398E-02  0.17655336476E-01  0.17825014893E-01  0.25510423711E-01  0.00000000000E+00 0. -1.
     999901    1    3    3    0    0  0.89686858392E-01 -0.72326498343E-01 -0.80376262769E-01  0.89114263648E+00  0.88000000000E+00 0.  1.
        -11    1    4    4    0    0 -0.36220039375E-01  0.20999444378E-01  0.35485283292E-01  0.54884737112E-01  0.51100000000E-03 0.  1.
         11    1    4    4    0    0 -0.58086305557E-01  0.33671717488E-01  0.27065964584E-01  0.72392202700E-01  0.51100000000E-03 0. -1.
</event>
<event>
 8    1  0.1177602E+005  0.1043930E+01  0.7957747E-01            NaN
         13   -1    0    0    0    0  0.00000000000E+00  0.00000000000E+00  0.74505805969E-08  0.10566000000E+00  0.10566000000E+00 0. -1.
     999900   -1    0    0    0    0 -0.00000000000E+00 -0.00000000000E+00 -0.74505805969E-08  0.93827000000E+00  0.93827000000E+00 0.  1.
     999902    2    1    2    0    0  0.21917202508E-01  0.73891890337E-02  0.97107693388E-02  0.10188448865E+01  0.10185360277E+01 0.  0.
     999903    2    3    3    0    0  0.98779292744E-01  0.82961979035E-01  0.21225001816E-01  0.13219297897E+00  0.19607252373E-01 0.  0.
         14    1    1    2    0    0 -0.21917202508E-01 -0.73891890337E-02 -0.97107693388E-02  0.25085113544E-01  0.00000000000E+00 0.  1.
     999901    1    3    3    0    0 -0.76862090236E-01 -0.75572790001E-01 -0.11514232478E-01  0.88665190749E+00  0.88000000000E+00 0.  1.
        -11    1    4    4    0    0  0.32158427731E-01  0.17343749381E-01  0.10794150317E-01  0.38101770547E-01  0.51100000000E-03 0.  1.
         11    1    4    4    0    0  0.66620865014E-01  0.65618229653E-01  0.10430851499E-01  0.94091208420E-01  0.51100000000E-03 0. -1.
</event>
<event>
 8    1  0.1177602E+005  0.1043930E+01  0.7957747E-01            NaN
         13   -1    0    0    0    0  0.00000000000E+00  0.00000000000E+00  0.74505805969E-08  0.10566000000E+00  0.10566000000E+00 0.  1.
     999900   -1    0    0    0    0 -0.00000000000E+00 -0.00000000000E+00 -0.74505805969E-08  0.93827000000E+00  0.93827000000E+00 0. -1.
     999902    2    1    2    0    0  0.80073113222E-02  0.21298918566E-01  0.57400916533E-02  0.10204627970E+01  0.10201929280E+01 0.  0.
     999903    2    3    3    0    0 -0.76491850762E-01  0.10869918502E-01 -0.10265790172E+00  0.12973332208E+00  0.17970300813E-01 0.  0.
         14    1    1    2    0    0 -0.80073113222E-02 -0.21298918566E-01 -0.57400916533E-02  0.23467203048E-01  0.00000000000E+00 0.  1.
     999901    1    3    3    0    0  0.84499162084E-01  0.10429000065E-01  0.10839799337E+00  0.89072947487E+00  0.88000000000E+00 0.  1.
        -11    1    4    4    0    0 -0.56027952078E-01  0.12932856949E-01 -0.64718326944E-01  0.86574321634E-01  0.51100000000E-03 0.  1.
         11    1    4    4    0    0 -0.20463898683E-01 -0.20629384471E-02 -0.37939574777E-01  0.43159000447E-01  0.51100000000E-03 0. -1.
</event>
<event>
 8    1  0.1177602E+005  0.1043930E+01  0.7957747E-01            NaN
         13   -1    0    0    0    0  0.00000000000E+00  0.00000000000E+00  0.74505805969E-08  0.10566000000E+00  0.10566000000E+00 0.  1.
     999900   -1    0    0    0    0 -0.00000000000E+00 -0.00000000000E+00 -0.74505805969E-08  0.93827000000E+00  0.93827000000E+00 0.  1.
     999902    2    1    2    0    0  0.13304882244E-01 -0.17688452598E-01 -0.94029128232E-02  0.10198817981E+01  0.10195982375E+01 0.  0.
     999903    2    3    3    0    0  0.73341274582E-01  0.51000782800E-01  0.91520505466E-01  0.12942791614E+00  0.19888694107E-01 0.  0.
         14    1    1    2    0    0 -0.13304882244E-01  0.17688452598E-01  0.94029128232E-02  0.24048201937E-01  0.00000000000E+00 0.  1.
     999901    1    3    3    0    0 -0.60036392338E-01 -0.68689235398E-01 -0.10092341829E+00  0.89045388192E+00  0.88000000000E+00 0.  1.
        -11    1    4    4    0    0  0.58691776770E-01  0.47075098886E-01  0.67872867297E-01  0.10133003914E+00  0.51100000000E-03 0. -1.
         11    1    4    4    0    0  0.14649497812E-01  0.39256839143E-02  0.23647638169E-01  0.28097877007E-01  0.51100000000E-03 0.  1.
</event>
<event>
 8    1  0.1177602E+005  0.1043930E+01  0.7957747E-01            NaN
         13   -1    0    0    0    0  0.00000000000E+00  0.00000000000E+00  0.74505805969E-08  0.10566000000E+00  0.10566000000E+00 0. -1.
     999900   -1    0    0    0    0 -0.00000000000E+00 -0.00000000000E+00 -0.74505805969E-08  0.93827000000E+00  0.93827000000E+00 0.  1.
     999902    2    1    2    0    0  0.86881629019E-02  0.11969617415E-01  0.18206795924E-01  0.10204727339E+01  0.10202030961E+01 0.  0.
     999903    2    3    3    0    0 -0.10293454662E+00 -0.64413186599E-01  0.41599592363E-01  0.12983184949E+00  0.19524434991E-01 0.  0.
         14    1    1    2    0    0 -0.86881629019E-02 -0.11969617415E-01 -0.18206795924E-01  0.23457266113E-01  0.00000000000E+00 0.  1.
     999901    1    3    3    0    0  0.11162270952E+00  0.76382804014E-01 -0.23392796439E-01  0.89064088439E+00  0.88000000000E+00 0. -1.
        -11    1    4    4    0    0 -0.43689704916E-01 -0.16221216671E-01  0.16498098162E-01  0.49440535494E-01  0.51100000000E-03 0. -1.
         11    1    4    4    0    0 -0.59244841706E-01 -0.48191969928E-01  0.25101494202E-01  0.80391313998E-01  0.51100000000E-03 0.  1.
</event>
<event>
 8    1  0.1311108E+005  0.1043930E+01  0.7957747E-01            NaN
         13   -1    0    0    0    0  0.00000000000E+00  0.00000000000E+00  0.74505805969E-08  0.10566000000E+00  0.10566000000E+00 0. -1.
     999900   -1    0    0    0    0 -0.00000000000E+00 -0.00000000000E+00 -0.74505805969E-08  0.93827000000E+00  0.93827000000E+00 0. -1.
     999902    2    1    2    0    0 -0.19123874897E-01 -0.15189085232E-01 -0.65720736766E-02  0.10186392299E+01  0.10183252219E+01 0.  0.
     999903    2    3    3    0    0 -0.89244832122E-02 -0.12821760465E+00 -0.18916646820E-01  0.13126565449E+00  0.18799786716E-01 0.  0.
         14    1    1    2    0    0  0.19123874897E-01  0.15189085232E-01  0.65720736766E-02  0.25290770128E-01  0.00000000000E+00 0. -1.
     999901    1    3    3    0    0 -0.10199391685E-01  0.11302851942E+00  0.12344573143E-01  0.88737357538E+00  0.88000000000E+00 0.  1.
        -11    1    4    4    0    0 -0.75873083492E-02 -0.82045001334E-01 -0.31588809871E-02  0.82457195817E-01  0.51100000000E-03 0.  1.
         11    1    4    4    0    0 -0.13371748629E-02 -0.46172603314E-01 -0.15757765833E-01  0.48808458678E-01  0.51100000000E-03 0. -1.
</event>
<event>
 8    1  0.1177602E+005  0.1043930E+01  0.7957747E-01            NaN
         13   -1    0    0    0    0  0.00000000000E+00  0.00000000000E+00  0.74505805969E-08  0.10566000000E+00  0.10566000000E+00 0. -1.
     999900   -1    0    0    0    0 -0.00000000000E+00 -0.00000000000E+00 -0.74505805969E-08  0.93827000000E+00  0.93827000000E+00 0.  1.
     999902    2    1    2    0    0  0.13771147472E-01 -0.13704764587E-01  0.13345062296E-01  0.10203597696E+01  0.10200874980E+01 0.  0.
     999903    2    3    3    0    0 -0.35425969085E-01 -0.41743137285E-01  0.11899670463E+00  0.13223321544E+00  0.18108527191E-01 0.  0.
         14    1    1    2    0    0 -0.13771147472E-01  0.13704764587E-01 -0.13345062296E-01  0.23570230435E-01  0.00000000000E+00 0. -1.
     999901    1    3    3    0    0  0.49197116556E-01  0.28038372697E-01 -0.10565164233E+00  0.88812655413E+00  0.88000000000E+00 0.  1.
        -11    1    4    4    0    0 -0.10638084565E-01 -0.26042518837E-01  0.63527460336E-01  0.69479356418E-01  0.51100000000E-03 0. -1.
         11    1    4    4    0    0 -0.24787884520E-01 -0.15700618447E-01  0.55469244290E-01  0.62753859018E-01  0.51100000000E-03 0.  1.
</event>
<event>
 7    1  0.1177602E+005  0.1043930E+01  0.7957747E-01            NaN
         13   -1    0    0    0    0  0.00000000000E+00  0.00000000000E+00  0.74505805969E-08  0.10566000000E+00  0.10566000000E+00 0.  1.
     999900   -1    0    0    0    0 -0.00000000000E+00 -0.00000000000E+00 -0.74505805969E-08  0.93827000000E+00  0.93827000000E+00 0. -1.
     999902    2    1    2    0    0 -0.20880134378E-01  0.20418719682E-01 -0.24231351944E-02  0.10146251248E+01  0.10142018380E+01 0.  0.
         14    1    1    2    0    0  0.20880134378E-01 -0.20418719682E-01  0.24231351944E-02  0.29304875179E-01  0.00000000000E+00 0.  1.
     999901    1    3    3    0    0 -0.21923059653E-01 -0.78213271154E-01  0.64940805655E-01  0.88612371855E+00  0.88000000000E+00 0.  1.
        -11    1    3    3    0    0  0.22731029119E-01  0.63618381590E-01 -0.34806827803E-01  0.75998516720E-01  0.51100000000E-03 0. -1.
         11    1    3    3    0    0 -0.21688103844E-01  0.35013609246E-01 -0.32557113046E-01  0.52502889556E-01  0.51100000000E-03 0.  1.
</event>
<event>
 8    1  0.1177602E+005  0.1043930E+01  0.7957747E-01            NaN
         13   -1    0    0    0    0  0.00000000000E+00  0.00000000000E+00  0.74505805969E-08  0.10566000000E+00  0.10566000000E+00 0.  1.
     999900   -1    0    0    0    0 -0.00000000000E+00 -0.00000000000E+00 -0.74505805969E-08  0.93827000000E+00  0.93827000000E+00 0. -1.
     999902    2    1    2    0    0 -0.16355226155E-01 -0.15743412085E-01 -0.48273775108E-02  0.10207211220E+01  0.10204572293E+01 0.  0.
     999903    2    3    3    0    0 -0.43780366593E-02 -0.81312723250E-01 -0.10286229710E+00  0.13277200568E+00  0.20416345369E-01 0.  0.
         14    1    1    2    0    0  0.16355226155E-01  0.15743412085E-01  0.48273775108E-02  0.23208878049E-01  0.00000000000E+00 0.  1.
     999901    1    3    3    0    0 -0.11977189495E-01  0.65569311165E-01  0.98034919593E-01  0.88794911628E+00  0.88000000000E+00 0.  1.
        -11    1    4    4    0    0 -0.75920050815E-02 -0.35141351001E-01 -0.58457941112E-01  0.68630496802E-01  0.51100000000E-03 0.  1.
         11    1    4    4    0    0  0.32139684222E-02 -0.46171372250E-01 -0.44404355992E-01  0.64141508873E-01  0.51100000000E-03 0. -1.
</event>
<event>
 8    1  0.1177602E+005  0.1043930E+01  0.7957747E-01            NaN
         13   -1    0    0    0    0  0.00000000000E+00  0.00000000000E+00  0.74505805969E-08  0.10566000000E+00  0.10566000000E+00 0. -1.
     999900   -1    0    0    0    0 -0.00000000000E+00 -0.00000000000E+00 -0.74505805969E-08  0.93827000000E+00  0.93827000000E+00 0.  1.
     999902    2    1    2    0    0 -0.37957584882E-02 -0.18873820732E-01 -0.13627152249E-01  0.10203433900E+01  0.10200707355E+01 0.  0.
     999903    2    3    3    0    0 -0.60266944438E-01 -0.49940914657E-01 -0.10568815607E+00  0.13319662224E+00  0.21098679959E-01 0.  0.
         14    1    1    2    0    0  0.37957584882E-02  0.18873820732E-01  0.13627152249E-01  0.23586609971E-01  0.00000000000E+00 0. -1.
     999901    1    3    3    0    0  0.56471185950E-01  0.31067093926E-01  0.92061003816E-01  0.88714676778E+00  0.88000000000E+00 0. -1.
        -11    1    4    4    0    0 -0.23586583046E-01 -0.22637085954E-01 -0.27991223845E-01  0.43041076817E-01  0.51100000000E-03 0. -1.
         11    1    4    4    0    0 -0.36680361392E-01 -0.27303828704E-01 -0.77696932220E-01  0.90155545426E-01  0.51100000000E-03 0.  1.
</event>
<event>
 8    1  0.1177602E+005  0.1043930E+01  0.7957747E-01            NaN
         13   -1    0    0    0    0  0.00000000000E+00  0.00000000000E+00  0.74505805969E-08  0.10566000000E+00  0.10566000000E+00 0. -1.
     999900   -1    0    0    0    0 -0.00000000000E+00 -0.00000000000E+00 -0.74505805969E-08  0.93827000000E+00  0.93827000000E+00 0. -1.
     999902    2    1    2    0    0 -0.17124862795E-01  0.15275289831E-01  0.51003002541E-02  0.10204223743E+01  0.10201515639E+01 0.  0.
     999903    2    3    3    0    0  0.53785875032E-01  0.81064509515E-02 -0.11559223023E+00  0.12932955536E+00  0.20147836108E-01 0.  0.
         14    1    1    2    0    0  0.17124862795E-01 -0.15275289831E-01 -0.51003002541E-02  0.23507625739E-01  0.00000000000E+00 0.  1.
     999901    1    3    3    0    0 -0.70910737827E-01  0.71688388797E-02  0.12069253048E+00  0.89109281890E+00  0.88000000000E+00 0.  1.
        -11    1    4    4    0    0  0.36026709647E-01  0.13436966869E-01 -0.66048814943E-01  0.76427632195E-01  0.51100000000E-03 0. -1.
         11    1    4    4    0    0  0.17759165385E-01 -0.53305159175E-02 -0.49543415284E-01  0.52901923161E-01  0.51100000000E-03 0.  1.
</event>
<event>
 8    1  0.1177602E+005  0.1043930E+01  0.7957747E-01            NaN
         13   -1    0    0    0    0  0.00000000000E+00  0.00000000000E+00  0.74505805969E-08  0.10566000000E+00  0.10566000000E+00 0.  1.
     999900   -1    0    0    0    0 -0.00000000000E+00 -0.00000000000E+00 -0.74505805969E-08  0.93827000000E+00  0.93827000000E+00 0.  1.
     999902    2    1    2    0    0  0.12529942099E-01  0.22698430641E-02  0.13589255714E-01  0.10253069093E+01  0.10251377657E+01 0.  0.
     999903    2    3    3    0    0 -0.15549236740E-01 -0.92935573298E-01 -0.91857215350E-01  0.13347089867E+00  0.22314417588E-01 0.  0.
         14    1    1    2    0    0 -0.12529942099E-01 -0.22698430641E-02 -0.13589255714E-01  0.18623090705E-01  0.00000000000E+00 0. -1.
     999901    1    3    3    0    0  0.28079178840E-01  0.95205416362E-01  0.10544647106E+00  0.89183601063E+00  0.88000000000E+00 0.  1.
        -11    1    4    4    0    0  0.38822021263E-03 -0.42503319029E-02  0.63190870067E-03  0.43447054934E-02  0.51100000000E-03 0.  1.
         11    1    4    4    0    0 -0.15937456953E-01 -0.88685241395E-01 -0.92489124051E-01  0.12912619318E+00  0.51100000000E-03 0. -1.
</event>
<event>
 8    1  0.1177602E+005  0.1043930E+01  0.7957747E-01            NaN
         13   -1    0    0    0    0  0.00000000000E+00  0.00000000000E+00  0.74505805969E-08  0.10566000000E+00  0.10566000000E+00 0.  1.
     999900   -1    0    0    0    0 -0.00000000000E+00 -0.00000000000E+00 -0.74505805969E-08  0.93827000000E+00  0.93827000000E+00 0. -1.
     999902    2    1    2    0    0 -0.20218404315E-01 -0.11805299236E-01 -0.33869350623E-02  0.10202737050E+01  0.10199994181E+01 0.  0.
     999903    2    3    3    0    0  0.11441573855E+00  0.28356652225E-01 -0.46418287193E-01  0.12809040993E+00  0.18905945561E-01 0.  0.
         14    1    1    2    0    0  0.20218404315E-01  0.11805299236E-01  0.33869350623E-02  0.23656294980E-01  0.00000000000E+00 0. -1.
     999901    1    3    3    0    0 -0.13463414286E+00 -0.40161951462E-01  0.43031352131E-01  0.89218329509E+00  0.88000000000E+00 0. -1.
        -11    1    4    4    0    0  0.78635348422E-01  0.20637011584E-01 -0.41102278687E-01  0.91099191560E-01  0.51100000000E-03 0. -1.
         11    1    4    4    0    0  0.35780390125E-01  0.77196406413E-02 -0.53160085062E-02  0.36991218371E-01  0.51100000000E-03 0.  1.
</event>
<event>
 8    1  0.1177602E+005  0.1043930E+01  0.7957747E-01            NaN
         13   -1    0    0    0    0  0.00000000000E+00  0.00000000000E+00  0.74505805969E-08  0.10566000000E+00  0.10566000000E+00 0. -1.
     999900   -1    0    0    0    0 -0.00000000000E+00 -0.00000000000E+00 -0.74505805969E-08  0.93827000000E+00  0.93827000000E+00 0.  1.
     999902    2    1    2    0    0  0.40690195021E-03  0.23004817013E-01 -0.53253830624E-02  0.10203133347E+01  0.10200399767E+01 0.  0.
     999903    2    3    3    0    0  0.66807627055E-01 -0.34049852136E-01 -0.10470517027E+00  0.13040287085E+00  0.20471555419E-01 0.  0.
         14    1    1    2    0    0 -0.40690195021E-03 -0.23004817013E-01  0.53253830624E-02  0.23616665297E-01  0.00000000000E+00 0. -1.
     999901    1    3    3    0    0 -0.66400725105E-01  0.57054669149E-01  0.99379787210E-01  0.88991046385E+00  0.88000000000E+00 0. -1.
        -11    1    4    4    0    0  0.82419658686E-02 -0.18784489879E-02 -0.24984914720E-01  0.26381161016E-01  0.51100000000E-03 0.  1.
         11    1    4    4    0    0  0.58565661186E-01 -0.32171403148E-01 -0.79720255552E-01  0.10402170984E+00  0.51100000000E-03 0. -1.
</event>
<event>
 8    1  0.1177602E+005  0.1043930E+01  0.7957747E-01            NaN
         13   -1    0    0    0    0  0.00000000000E+00  0.00000000000E+00  0.74505805969E-08  0.10566000000E+00  0.10566000000E+00 0. -1.
     999900   -1    0    0    0    0 -0.00000000000E+00 -0.00000000000E+00 -0.74505805969E-08  0.93827000000E+00  0.93827000000E+00 0.  1.
     999902    2    1    2    0    0  0.14582205348E-01 -0.14848143035E-01  0.11458061883E-01  0.10201729958E+01  0.10198963409E+01 0.  0.
     999903    2    3    3    0    0 -0.10826316453E+00 -0.60061263643E-01  0.35304880936E-01  0.13017081497E+00  0.19228579493E-01 0.  0.
         14    1    1    2    0    0 -0.14582205348E-01  0.14848143035E-01 -0.11458061883E-01  0.23757004156E-01  0.00000000000E+00 0.  1.
     999901    1    3    3    0    0  0.12284536987E+00  0.45213120608E-01 -0.23846819054E-01  0.89000218087E+00  0.88000000000E+00 0.  1.
        -11    1    4    4    0    0 -0.57625968543E-01 -0.42295045786E-01  0.17089639004E-01  0.73497891336E-01  0.51100000000E-03 0. -1.
         11    1    4    4    0    0 -0.50637195983E-01 -0.17766217857E-01  0.18215241932E-01  0.56672923638E-01  0.51100000000E-03 0.  1.
</event>
<event>
 8    1  0.1177602E+005  0.1043930E+01  0.7957747E-01            NaN
         13   -1    0    0    0    0  0.00000000000E+00  0.00000000000E+00  0.74505805969E-08  0.10566000000E+00  0.10566000000E+00 0. -1.
     999900   -1    0    0    0    0 -0.00000000000E+00 -0.00000000000E+00 -0.74505805969E-08  0.93827000000E+00  0.93827000000E+00 0.  1.
     999902    2    1    2    0    0 -0.19561411456E-01  0.80538661984E-02  0.10653070287E-01  0.10202445301E+01  0.10199695582E+01 0.  0.
     999903    2    3    3    0    0  0.18090723072E-01  0.10245462487E+00 -0.75503615117E-01  0.13021522668E+00  0.20760176910E-01 0.  0.
         14    1    1    2    0    0  0.19561411456E-01 -0.80538661984E-02 -0.10653070287E-01  0.23685469922E-01  0.00000000000E+00 0.  1.
     999901    1    3    3    0    0 -0.37652134528E-01 -0.94400758668E-01  0.86156685404E-01  0.89002930340E+00  0.88000000000E+00 0.  1.
        -11    1    4    4    0    0  0.55742267462E-02  0.30138860808E-01 -0.11196585197E-01  0.32635066657E-01  0.51100000000E-03 0.  1.
         11    1    4    4    0    0  0.12516496326E-01  0.72315764058E-01 -0.64307029920E-01  0.97580160021E-01  0.51100000000E-03 0. -1.
</event>
<event>
 8    1  0.1177602E+005  0.1043930E+01  0.7957747E-01            NaN
         13   -1    0    0    0    0  0.00000000000E+00  0.00000000000E+00  0.74505805969E-08  0.10566000000E+00  0.10566000000E+00 0. -1.
     999900   -1    0    0    0    0 -0.00000000000E+00 -0.00000000000E+00 -0.74505805969E-08  0.93827000000E+00  0.93827000000E+00 0. -1.
     999902    2    1    2    0    0  0.41443876688E-02 -0.23043851802E-01 -0.30350910295E-04  0.10205164147E+01  0.10202477918E+01 0.  0.
     999903    2    3    3    0    0  0.32682155192E-01 -0.21670182967E-01 -0.12412411594E+00  0.13135076441E+00  0.17564368927E-01 0.  0.
         14    1    1    2    0    0 -0.41443876688E-02  0.23043851802E-01  0.30350910295E-04  0.23413585292E-01  0.00000000000E+00 0.  1.
     999901    1    3    3    0    0 -0.28537767524E-01 -0.13736688359E-02  0.12409376503E+00  0.88916565029E+00  0.88000000000E+00 0.  1.
        -11    1    4    4    0    0  0.31396952448E-01 -0.12668488818E-01 -0.97938658615E-01  0.10362673981E+00  0.51100000000E-03 0.  1.
         11    1    4    4    0    0  0.12852027448E-02 -0.90016941482E-02 -0.26185457329E-01  0.27724024602E-01  0.51100000000E-03 0. -1.
</event>
<event>
 8    1  0.1177602E+005  0.1043930E+01  0.7957747E-01            NaN
         13   -1    0    0    0    0  0.00000000000E+00  0.00000000000E+00  0.74505805969E-08  0.10566000000E+00  0.10566000000E+00 0. -1.
     999900   -1    0    0    0    0 -0.00000000000E+00 -0.00000000000E+00 -0.74505805969E-08  0.93827000000E+00  0.93827000000E+00 0. -1.
     999902    2    1    2    0    0  0.20867497830E-01  0.91632724202E-02  0.58700240094E-02  0.10203954465E+01  0.10201240081E+01 0.  0.
     999903    2    3    3    0    0  0.12042150916E+00 -0.16213473215E-01 -0.49511129954E-01  0.13268938444E+00  0.19771296640E-01 0.  0.
         14    1    1    2    0    0 -0.20867497830E-01 -0.91632724202E-02 -0.58700240094E-02  0.23534553512E-01  0.00000000000E+00 0. -1.
     999901    1    3    3    0    0 -0.99554011328E-01  0.25376745635E-01  0.55381153964E-01  0.88770606205E+00  0.88000000000E+00 0.  1.
        -11    1    4    4    0    0  0.48558913143E-01 -0.52005277979E-03 -0.27966021091E-01  0.56041038152E-01  0.51100000000E-03 0. -1.
         11    1    4    4    0    0  0.71862596016E-01 -0.15693420435E-01 -0.21545108863E-01  0.76648346283E-01  0.51100000000E-03 0.  1.
</event>
<event>
 8    1  0.1177602E+005  0.1043930E+01  0.7957747E-01            NaN
         13   -1    0    0    0    0  0.00000000000E+00  0.00000000000E+00  0.74505805969E-08  0.10566000000E+00  0.10566000000E+00 0.  1.
     999900   -1    0    0    0    0 -0.00000000000E+00 -0.00000000000E+00 -0.74505805969E-08  0.93827000000E+00  0.93827000000E+00 0. -1.
     999902    2    1    2    0    0 -0.46212230689E-02 -0.43925948424E-02  0.22867425917E-01  0.10201903757E+01  0.10199141302E+01 0.  0.
     999903    2    3    3    0    0 -0.12130716205E+00  0.44985258473E-01  0.16183785098E-02  0.13086180723E+00  0.19572746266E-01 0.  0.
         14    1    1    2    0    0  0.46212230689E-02  0.43925948424E-02 -0.22867425917E-01  0.23739624263E-01  0.00000000000E+00 0.  1.
     999901    1    3    3    0    0  0.11668593898E+00 -0.49377853315E-01  0.21249047407E-01  0.88932856851E+00  0.88000000000E+00 0.  1.
        -11    1    4    4    0    0 -0.10797621129E+00  0.46189941440E-01  0.20479157375E-02  0.11745989943E+00  0.51100000000E-03 0. -1.
         11    1    4    4    0    0 -0.13330950762E-01 -0.12046829675E-02 -0.42953722775E-03  0.13401907793E-01  0.51100000000E-03 0.  1.
</event>
<event>
 8    1  0.1177602E+005  0.1043930E+01  0.7957747E-01            NaN
         13   -1    0    0    0    0  0.00000000000E+00  0.00000000000E+00  0.74505805969E-08  0.10566000000E+00  0.10566000000E+00 0. -1.
     999900   -1    0    0    0    0 -0.00000000000E+00 -0.00000000000E+00 -0.74505805969E-08  0.93827000000E+00  0.93827000000E+00 0.  1.
     999902    2    1    2    0    0  0.16437332739E-01  0.64268051291E-03  0.56598024945E-03  0.10274703743E+01  0.10273385278E+01 0.  0.
     999903    2    3    3    0    0 -0.12699050024E-01 -0.19725909819E-01 -0.13348277857E+00  0.13660962307E+00  0.17151080202E-01 0.  0.
         14    1    1    2    0    0 -0.16437332739E-01 -0.64268051291E-03 -0.56598024945E-03  0.16459625739E-01  0.00000000000E+00 0. -1.
     999901    1    3    3    0    0  0.29136382763E-01  0.20368590332E-01  0.13404875882E+00  0.89086075119E+00  0.88000000000E+00 0. -1.
        -11    1    4    4    0    0 -0.97969368588E-02 -0.20472939629E-01 -0.83398359753E-01  0.86433030488E-01  0.51100000000E-03 0. -1.
         11    1    4    4    0    0 -0.29021131647E-02  0.74702980965E-03 -0.50084418813E-01  0.50176592582E-01  0.51100000000E-03 0.  1.
</event>
<event>
 8    1  0.1177602E+005  0.1043930E+01  0.7957747E-01            NaN
         13   -1    0    0    0    0  0.00000000000E+00  0.00000000000E+00  0.74505805969E-08  0.10566000000E+00  0.10566000000E+00 0. -1.
     999900   -1    0    0    0    0 -0.00000000000E+00 -0.00000000000E+00 -0.74505805969E-08  0.93827000000E+00  0.93827000000E+00 0.  1.
     999902    2    1    2    0    0 -0.48261159751E-02  0.19421080666E-01  0.12567978279E-01  0.10202990066E+01  0.10200253130E+01 0.  0.
     999903    2    3    3    0    0 -0.50372851916E-01 -0.11878081364E-01 -0.11657607123E+00  0.12915798063E+00  0.20329548691E-01 0.  0.
         14    1    1    2    0    0  0.48261159751E-02 -0.19421080666E-01 -0.12567978279E-01  0.23630993370E-01  0.00000000000E+00 0.  1.
     999901    1    3    3    0    0  0.45546735941E-01  0.31299162030E-01  0.12914404951E+00  0.89114102600E+00  0.88000000000E+00 0. -1.
        -11    1    4    4    0    0 -0.34334336442E-01 -0.53714377580E-02 -0.53900219748E-01  0.64134185988E-01  0.51100000000E-03 0. -1.
         11    1    4    4    0    0 -0.16038515474E-01 -0.65066436064E-02 -0.62675851481E-01  0.65023794641E-01  0.51100000000E-03 0.  1.
</event>
<event>
 8    1  0.1177602E+005  0.1043930E+01  0.7957747E-01            NaN
         13   -1    0    0    0    0  0.00000000000E+00  0.00000000000E+00  0.74505805969E-08  0.10566000000E+00  0.10566000000E+00 0.  1.
     999900   -1    0    0    0    0 -0.00000000000E+00 -0.00000000000E+00 -0.74505805969E-08  0.93827000000E+00  0.93827000000E+00 0.  1.
     999902    2    1    2    0    0 -0.12788250992E-01  0.52935189818E-02  0.19430454309E-01  0.10200741147E+01  0.10197951247E+01 0.  0.
     999903    2    3    3    0    0  0.42143625401E-01 -0.10401656725E+00  0.63438901312E-01  0.13052200868E+00  0.20395321173E-01 0.  0.
         14    1    1    2    0    0  0.12788250992E-01 -0.52935189818E-02 -0.19430454309E-01  0.23855885255E-01  0.00000000000E+00 0.  1.
     999901    1    3    3    0    0 -0.54931876392E-01  0.10931008623E+00 -0.44008447003E-01  0.88955210606E+00  0.88000000000E+00 0.  1.
        -11    1    4    4    0    0  0.74028397113E-03 -0.21014613527E-01  0.15359983486E-01  0.26045195637E-01  0.51100000000E-03 0.  1.
         11    1    4    4    0    0  0.41403341430E-01 -0.83001953725E-01  0.48078917825E-01  0.10447681304E+00  0.51100000000E-03 0. -1.
</event>
<event>
 8    1  0.1177602E+005  0.1043930E+01  0.7957747E-01            NaN
         13   -1    0    0    0    0  0.00000000000E+00  0.00000000000E+00  0.74505805969E-08  0.10566000000E+00  0.10566000000E+00 0. -1.
     999900   -1    0    0    0    0 -0.00000000000E+00 -0.00000000000E+00 -0.74505805969E-08  0.93827000000E+00  0.93827000000E+00 0. -1.
     999902    2    1    2    0    0  0.12374868254E-01  0.66159422205E-02  0.16444419336E-01  0.10223122531E+01  0.10220836638E+01 0.  0.
     999903    2    3    3    0    0 -0.11250664819E-01 -0.13877188834E-01  0.13158050826E+00  0.13426132365E+00  0.19837314478E-01 0.  0.
         14    1    1    2    0    0 -0.12374868254E-01 -0.66159422205E-02 -0.16444419336E-01  0.21617746947E-01  0.00000000000E+00 0.  1.
     999901    1    3    3    0    0  0.23625533073E-01  0.20493131054E-01 -0.11513608893E+00  0.88805092940E+00  0.88000000000E+00 0. -1.
        -11    1    4    4    0    0 -0.54977042050E-02 -0.15720725502E-01  0.55694126350E-01  0.58133147108E-01  0.51100000000E-03 0.  1.
         11    1    4    4    0    0 -0.57529606137E-02  0.18435366683E-02  0.75886381913E-01  0.76128176545E-01  0.51100000000E-03 0. -1.
</event>
<event>
 8    1  0.1177602E+005  0.1043930E+01  0.7957747E-01            NaN
         13   -1    0    0    0    0  0.00000000000E+00  0.00000000000E+00  0.74505805969E-08  0.10566000000E+00  0.10566000000E+00 0.  1.
     999900   -1    0    0    0    0 -0.00000000000E+00 -0.00000000000E+00 -0.74505805969E-08  0.93827000000E+00  0.93827000000E+00 0.  1.
     999902    2    1    2    0    0 -0.48793776182E-02 -0.45180906062E-02  0.22481952524E-01  0.10204851784E+01  0.10202158300E+01 0.  0.
     999903    2    3    3    0    0 -0.11718621280E+00 -0.45237148073E-01 -0.31218432773E-01  0.13079163668E+00  0.18784398995E-01 0.  0.
         14    1    1    2    0    0  0.48793776182E-02  0.45180906062E-02 -0.22481952524E-01  0.23444821560E-01  0.00000000000E+00 0. -1.
     999901    1    3    3    0    0  0.11230683518E+00  0.40719057467E-01  0.53700385298E-01  0.88969354176E+00  0.88000000000E+00 0. -1.
        -11    1    4    4    0    0 -0.63884798524E-01 -0.33946557560E-01 -0.14363957158E-01  0.73757851371E-01  0.51100000000E-03 0.  1.
         11    1    4    4    0    0 -0.53301414271E-01 -0.11290590513E-01 -0.16854475615E-01  0.57033785309E-01  0.51100000000E-03 0. -1.
</event>
<event>
 8    1  0.1177602E+005  0.1043930E+01  0.7957747E-01            NaN
         13   -1    0    0    0    0  0.00000000000E+00  0.00000000000E+00  0.74505805969E-08  0.10566000000E+00  0.10566000000E+00 0. -1.
     999900   -1    0    0    0    0 -0.00000000000E+00 -0.00000000000E+00 -0.74505805969E-08  0.93827000000E+00  0.93827000000E+00 0.  1.
     999902    2    1    2    0    0 -0.56645764705E-02  0.17937131787E-01 -0.15193109975E-01  0.10197502830E+01  0.10194635751E+01 0.  0.
     999903    2    3    3    0    0  0.44450099547E-01  0.22590014229E-01  0.11673451763E+00  0.12849385021E+00  0.19939955924E-01 0.  0.
         14    1    1    2    0    0  0.56645764705E-02 -0.17937131787E-01  0.15193109975E-01  0.24179716997E-01  0.00000000000E+00 0. -1.
     999901    1    3    3    0    0 -0.50114676018E-01 -0.46528824424E-02 -0.13192762761E+00  0.89125643279E+00  0.88000000000E+00 0.  1.
        -11    1    4    4    0    0  0.55355867830E-02  0.96953351991E-02  0.14228192792E-01  0.18092673566E-01  0.51100000000E-03 0.  1.
         11    1    4    4    0    0  0.38914512764E-01  0.12894679030E-01  0.10250632484E+00  0.11040117664E+00  0.51100000000E-03 0. -1.
</event>
<event>
 8    1  0.1177602E+005  0.1043930E+01  0.7957747E-01            NaN
         13   -1    0    0    0    0  0.00000000000E+00  0.00000000000E+00  0.74505805969E-08  0.10566000000E+00  0.10566000000E+00 0.  1.
     999900   -1    0    0    0    0 -0.00000000000E+00 -0.00000000000E+00 -0.74505805969E-08  0.93827000000E+00  0.93827000000E+00 0. -1.
     999902    2    1    2    0    0 -0.10716051132E-02 -0.17991846723E-02  0.22382763803E-01  0.10214494858E+01  0.10212020753E+01 0.  0.
     999903    2    3    3    0    0 -0.26195564768E-01 -0.55918382527E-01  0.11751776531E+00  0.13431321136E+00  0.20409322980E-01 0.  0.
         14    1    1    2    0    0  0.10716051132E-02  0.17991846723E-02 -0.22382763803E-01  0.22480514195E-01  0.00000000000E+00 0. -1.
     999901    1    3    3    0    0  0.25123959655E-01  0.54119197855E-01 -0.95135001506E-01  0.88713627445E+00  0.88000000000E+00 0. -1.
        -11    1    4    4    0    0 -0.29070095176E-01 -0.43885009986E-01  0.94177210101E-01  0.10789148511E+00  0.51100000000E-03 0. -1.
         11    1    4    4    0    0  0.28745304084E-02 -0.12033372541E-01  0.23340555209E-01  0.26421726254E-01  0.51100000000E-03 0.  1.
</event>
<event>
 8    1  0.1177602E+005  0.1043930E+01  0.7957747E-01            NaN
         13   -1    0    0    0    0  0.00000000000E+00  0.00000000000E+00  0.74505805969E-08  0.10566000000E+00  0.10566000000E+00 0. -1.
     999900   -1    0    0    0    0 -0.00000000000E+00 -0.00000000000E+00 -0.74505805969E-08  0.93827000000E+00  0.93827000000E+00 0.  1.
     999902    2    1    2    0    0 -0.14083626871E-01 -0.43550995496E-02  0.18250454167E-01  0.10204695116E+01  0.10201997989E+01 0.  0.
     999903    2    3    3    0    0 -0.84144003754E-01  0.50972781795E-02  0.10179453173E+00  0.13369027373E+00  0.20118821720E-01 0.  0.
         14    1    1    2    0    0  0.14083626871E-01  0.43550995496E-02 -0.18250454167E-01  0.23460488385E-01  0.00000000000E+00 0.  1.
     999901    1    3    3    0    0  0.70060376882E-01 -0.94523777291E-02 -0.83544077559E-01  0.88677923789E+00  0.88000000000E+00 0.  1.
        -11    1    4    4    0    0 -0.62980941269E-01 -0.50550329048E-02  0.73765804968E-01  0.97127789146E-01  0.51100000000E-03 0.  1.
         11    1    4    4    0    0 -0.21163062485E-01  0.10152311084E-01  0.28028726758E-01  0.36562484582E-01  0.51100000000E-03 0. -1.
</event>
<event>
 8    1  0.1177602E+005  0.1043930E+01  0.7957747E-01            NaN
         13   -1    0    0    0    0  0.00000000000E+00  0.00000000000E+00  0.74505805969E-08  0.10566000000E+00  0.10566000000E+00 0.  1.
     999900   -1    0    0    0    0 -0.00000000000E+00 -0.00000000000E+00 -0.74505805969E-08  0.93827000000E+00  0.93827000000E+00 0.  1.
     999902    2    1    2    0    0 -0.22577058012E-01 -0.16564098225E-02  0.70347878634E-02  0.10202243998E+01  0.10199489548E+01 0.  0.
     999903    2    3    3    0    0 -0.28177731046E-01 -0.73803132459E-01 -0.10192780874E+00  0.13055627930E+00  0.20366074267E-01 0.  0.
         14    1    1    2    0    0  0.22577058012E-01  0.16564098225E-02 -0.70347878634E-02  0.23705600230E-01  0.00000000000E+00 0. -1.
     999901    1    3    3    0    0  0.56006730339E-02  0.72146722636E-01  0.10896259661E+00  0.88966812047E+00  0.88000000000E+00 0. -1.
        -11    1    4    4    0    0 -0.17044654496E-01 -0.23545836924E-01 -0.27192048717E-01  0.39806975742E-01  0.51100000000E-03 0.  1.
         11    1    4    4    0    0 -0.11133076551E-01 -0.50257295535E-01 -0.74735760027E-01  0.90749303555E-01  0.51100000000E-03 0. -1.
</event>
<event>
 8    1  0.1177602E+005  0.1043930E+01  0.7957747E-01            NaN
         13   -1    0    0    0    0  0.00000000000E+00  0.00000000000E+00  0.74505805969E-08  0.10566000000E+00  0.10566000000E+00 0. -1.
     999900   -1    0    0    0    0 -0.00000000000E+00 -0.00000000000E+00 -0.74505805969E-08  0.93827000000E+00  0.93827000000E+00 0. -1.
     999902    2    1    2    0    0  0.12179487345E-01 -0.73905225080E-02 -0.18705075245E-01  0.10204174592E+01  0.10201465343E+01 0.  0.
     999903    2    3    3    0    0 -0.10393710525E+00  0.69199325788E-01  0.23026115594E-01  0.12851468410E+00  0.19858335629E-01 0.  0.
         14    1    1    2    0    0 -0.12179487345E-01  0.73905225080E-02  0.18705075245E-01  0.23512540800E-01  0.00000000000E+00 0. -1.
     999901    1    3    3    0    0  0.11611659259E+00 -0.76589848296E-01 -0.41731190840E-01  0.89190277510E+00  0.88000000000E+00 0. -1.
        -11    1    4    4    0    0 -0.38574415967E-01  0.37425893047E-01  0.90685648634E-02  0.54508559211E-01  0.51100000000E-03 0.  1.
         11    1    4    4    0    0 -0.65362689280E-01  0.31773432741E-01  0.13957550731E-01  0.74006124892E-01  0.51100000000E-03 0. -1.
</event>
<event>
 8    1  0.1177602E+005  0.1043930E+01  0.7957747E-01            NaN
         13   -1    0    0    0    0  0.00000000000E+00  0.00000000000E+00  0.74505805969E-08  0.10566000000E+00  0.10566000000E+00 0.  1.
     999900   -1    0    0    0    0 -0.00000000000E+00 -0.00000000000E+00 -0.74505805969E-08  0.93827000000E+00  0.93827000000E+00 0.  1.
     999902    2    1    2    0    0 -0.14686183314E-01  0.16332837534E-01 -0.63038147486E-02  0.10210786621E+01  0.10208229281E+01 0.  0.
     999903    2    3    3    0    0  0.47440484416E-01  0.79825616096E-01 -0.92394536410E-01  0.13242649838E+00  0.19424174846E-01 0.  0.
         14    1    1    2    0    0  0.14686183314E-01 -0.16332837534E-01  0.63038147486E-02  0.22851337874E-01  0.00000000000E+00 0. -1.
     999901    1    3    3    0    0 -0.62126667730E-01 -0.63492778562E-01  0.86090721661E-01  0.88865216375E+00  0.88000000000E+00 0.  1.
        -11    1    4    4    0    0  0.29344992912E-01  0.49512640260E-01 -0.43644474830E-01  0.72233866425E-01  0.51100000000E-03 0. -1.
         11    1    4    4    0    0  0.18095491504E-01  0.30312975836E-01 -0.48750061580E-01  0.60192631956E-01  0.51100000000E-03 0.  1.
</event>
<event>
 8    1  0.1177602E+005  0.1043930E+01  0.7957747E-01            NaN
         13   -1    0    0    0    0  0.00000000000E+00  0.00000000000E+00  0.74505805969E-08  0.10566000000E+00  0.10566000000E+00 0. -1.
     999900   -1    0    0    0    0 -0.00000000000E+00 -0.00000000000E+00 -0.74505805969E-08  0.93827000000E+00  0.93827000000E+00 0.  1.
     999902    2    1    2    0    0 -0.14147665991E-01  0.12421307584E-02  0.18861958360E-01  0.10203191378E+01  0.10200459157E+01 0.  0.
     999903    2    3    3    0    0 -0.99500843587E-01  0.63707155773E-01 -0.53033436216E-01  0.13107451899E+00  0.20222873205E-01 0.  0.
         14    1    1    2    0    0  0.14147665991E-01 -0.12421307584E-02 -0.18861958360E-01  0.23610862225E-01  0.00000000000E+00 0.  1.
     999901    1    3    3    0    0  0.85353177596E-01 -0.62465025014E-01  0.71895394576E-01  0.88924461878E+00  0.88000000000E+00 0. -1.
        -11    1    4    4    0    0 -0.42745626935E-01  0.29680390222E-01 -0.12676279839E-01  0.53563638575E-01  0.51100000000E-03 0.  1.
         11    1    4    4    0    0 -0.56755216652E-01  0.34026765551E-01 -0.40357156377E-01  0.77510880416E-01  0.51100000000E-03 0. -1.
</event>
<event>
 8    1  0.1177602E+005  0.1043930E+01  0.7957747E-01            NaN
         13   -1    0    0    0    0  0.00000000000E+00  0.00000000000E+00  0.74505805969E-08  0.10566000000E+00  0.10566000000E+00 0. -1.
     999900   -1    0    0    0    0 -0.00000000000E+00 -0.00000000000E+00 -0.74505805969E-08  0.93827000000E+00  0.93827000000E+00 0.  1.
     999902    2    1    2    0    0  0.48698794610E-02  0.14088940419E-01 -0.17972773510E-01  0.10205797418E+01  0.10203125869E+01 0.  0.
     999903    2    3    3    0    0  0.24222525992E-01 -0.95558799323E-01 -0.85229474432E-01  0.13101770603E+00  0.13541088831E-01 0.  0.
         14    1    1    2    0    0 -0.48698794610E-02 -0.14088940419E-01  0.17972773510E-01  0.23350258151E-01  0.00000000000E+00 0. -1.
     999901    1    3    3    0    0 -0.19352646531E-01  0.10964773974E+00  0.67256700922E-01  0.88956203582E+00  0.88000000000E+00 0. -1.
        -11    1    4    4    0    0  0.22180887633E-01 -0.68091585504E-01 -0.56543047820E-01  0.91246003586E-01  0.51100000000E-03 0. -1.
         11    1    4    4    0    0  0.20416383588E-02 -0.27467213819E-01 -0.28686426612E-01  0.39771702439E-01  0.51100000000E-03 0.  1.
</event>
<event>
 8    1  0.1177602E+005  0.1043930E+01  0.7957747E-01            NaN
         13   -1    0    0    0    0  0.00000000000E+00  0.00000000000E+00  0.74505805969E-08  0.10566000000E+00  0.10566000000E+00 0.  1.
     999900   -1    0    0    0    0 -0.00000000000E+00 -0.00000000000E+00 -0.74505805969E-08  0.93827000000E+00  0.93827000000E+00 0. -1.
     999902    2    1    2    0    0  0.24697141437E-01 -0.10716390803E-01  0.84505802323E-02  0.10157129461E+01  0.10153209279E+01 0.  0.
     999903    2    3    3    0    0 -0.54727902307E-02  0.10449171667E+00  0.67326423722E-01  0.12574131856E+00  0.18153830913E-01 0.  0.
         14    1    1    2    0    0 -0.24697141437E-01  0.10716390803E-01 -0.84505802323E-02  0.28217053944E-01  0.00000000000E+00 0. -1.
     999901    1    3    3    0    0  0.30169931668E-01 -0.11520810747E+00 -0.58875843489E-01  0.88997162750E+00  0.88000000000E+00 0. -1.
        -11    1    4    4    0    0 -0.45342389448E-02  0.68289149017E-01  0.33569895643E-01  0.76231005573E-01  0.51100000000E-03 0. -1.
         11    1    4    4    0    0 -0.93855128588E-03  0.36202567651E-01  0.33756528079E-01  0.49510312986E-01  0.51100000000E-03 0.  1.
</event>
<event>
 8    1  0.1177602E+005  0.1043930E+01  0.7957747E-01            NaN
         13   -1    0    0    0    0  0.00000000000E+00  0.00000000000E+00  0.74505805969E-08  0.10566000000E+00  0.10566000000E+00 0. -1.
     999900   -1    0    0    0    0 -0.00000000000E+00 -0.00000000000E+00 -0.74505805969E-08  0.93827000000E+00  0.93827000000E+00 0. -1.
     999902    2    1    2    0    0  0.32390300685E-02 -0.26350427574E-01 -0.11951604524E-02  0.10173543578E+01  0.10170071900E+01 0.  0.
     999903    2    3    3    0    0 -0.58981396174E-01 -0.10905046487E+00 -0.35818296411E-01  0.13061344912E+00  0.20152264137E-01 0.  0.
         14    1    1    2    0    0 -0.32390300685E-02  0.26350427574E-01  0.11951604524E-02  0.26575642186E-01  0.00000000000E+00 0. -1.
     999901    1    3    3    0    0  0.62220426243E-01  0.82700037296E-01  0.34623135958E-01  0.88674090870E+00  0.88000000000E+00 0.  1.
        -11    1    4    4    0    0 -0.28998322576E-01 -0.60865515671E-01 -0.29202809199E-01  0.73475022261E-01  0.51100000000E-03 0.  1.
         11    1    4    4    0    0 -0.29983073599E-01 -0.48184949199E-01 -0.66154872114E-02  0.57138426857E-01  0.51100000000E-03 0. -1.
</event>
<event>
 8    1  0.1177602E+005  0.1043930E+01  0.7957747E-01            NaN
         13   -1    0    0    0    0  0.00000000000E+00  0.00000000000E+00  0.74505805969E-08  0.10566000000E+00  0.10566000000E+00 0.  1.
     999900   -1    0    0    0    0 -0.00000000000E+00 -0.00000000000E+00 -0.74505805969E-08  0.93827000000E+00  0.93827000000E+00 0. -1.
     999902    2    1    2    0    0 -0.11780020811E-01 -0.19027081942E-01 -0.48645039507E-02  0.10210288617E+01  0.10207719992E+01 0.  0.
     999903    2    3    3    0    0 -0.55085953644E-01  0.10281894679E+00 -0.54230665925E-01  0.13020964518E+00  0.20183866425E-01 0.  0.
         14    1    1    2    0    0  0.11780020811E-01  0.19027081942E-01  0.48645039507E-02  0.22901138318E-01  0.00000000000E+00 0.  1.
     999901    1    3    3    0    0  0.43305932833E-01 -0.12184602873E+00  0.49366161975E-01  0.89081921650E+00  0.88000000000E+00 0.  1.
        -11    1    4    4    0    0 -0.35823583849E-01  0.78379929962E-01 -0.31854733268E-01  0.91878875337E-01  0.51100000000E-03 0.  1.
         11    1    4    4    0    0 -0.19262369795E-01  0.24439016830E-01 -0.22375932658E-01  0.38330769846E-01  0.51100000000E-03 0. -1.
</event>
<event>
 8    1  0.1177602E+005  0.1043930E+01  0.7957747E-01            NaN
         13   -1    0    0    0    0  0.00000000000E+00  0.00000000000E+00  0.74505805969E-08  0.10566000000E+00  0.10566000000E+00 0. -1.
     999900   -1    0    0    0    0 -0.00000000000E+00 -0.00000000000E+00 -0.74505805969E-08  0.93827000000E+00  0.93827000000E+00 0.  1.
     999902    2    1    2    0    0 -0.15731429124E-02 -0.19713564254E-01  0.13225833267E-01  0.10201387819E+01  0.10198613201E+01 0.  0.
     999903    2    3    3    0    0 -0.12744618938E+00 -0.13752571619E-01  0.19081933031E-01  0.13114280260E+00  0.20066142918E-01 0.  0.
         14    1    1    2    0    0  0.15731429124E-02  0.19713564254E-01 -0.13225833267E-01  0.23791218124E-01  0.00000000000E+00 0.  1.
     999901    1    3    3    0    0  0.12587304647E+00 -0.59609926358E-02 -0.58560997643E-02  0.88899597927E+00  0.88000000000E+00 0. -1.
        -11    1    4    4    0    0 -0.77735754004E-01 -0.24158189014E-02  0.36136687976E-02  0.77858868183E-01  0.51100000000E-03 0. -1.
         11    1    4    4    0    0 -0.49710435379E-01 -0.11336752717E-01  0.15468264234E-01  0.53283934419E-01  0.51100000000E-03 0.  1.
</event>
<event>
 8    1  0.1177602E+005  0.1043930E+01  0.7957747E-01            NaN
         13   -1    0    0    0    0  0.00000000000E+00  0.00000000000E+00  0.74505805969E-08  0.10566000000E+00  0.10566000000E+00 0.  1.
     999900   -1    0    0    0    0 -0.00000000000E+00 -0.00000000000E+00 -0.74505805969E-08  0.93827000000E+00  0.93827000000E+00 0.  1.
     999902    2    1    2    0    0  0.16812300548E-01  0.16033081271E-01 -0.53443349460E-02  0.10200914795E+01  0.10198129002E+01 0.  0.
     999903    2    3    3    0    0  0.64837287287E-01  0.10244527792E+00  0.50201884671E-01  0.13281539528E+00  0.20513195936E-01 0.  0.
         14    1    1    2    0    0 -0.16812300548E-01 -0.16033081271E-01  0.53443349460E-02  0.23838520525E-01  0.00000000000E+00 0.  1.
     999901    1    3    3    0    0 -0.48024986739E-01 -0.86412196645E-01 -0.55546219617E-01  0.88727608420E+00  0.88000000000E+00 0.  1.
        -11    1    4    4    0    0  0.41400781554E-01  0.50645854191E-01  0.19835354890E-01  0.68357367449E-01  0.51100000000E-03 0. -1.
         11    1    4    4    0    0  0.23436505733E-01  0.51799423725E-01  0.30366529781E-01  0.64458027826E-01  0.51100000000E-03 0.  1.
</event>
<event>
 8    1  0.1177602E+005  0.1043930E+01  0.7957747E-01            NaN
         13   -1    0    0    0    0  0.00000000000E+00  0.00000000000E+00  0.74505805969E-08  0.10566000000E+00  0.10566000000E+00 0.  1.
     999900   -1    0    0    0    0 -0.00000000000E+00 -0.00000000000E+00 -0.74505805969E-08  0.93827000000E+00  0.93827000000E+00 0.  1.
     999902    2    1    2    0    0  0.11222369506E-01 -0.89062757135E-02 -0.19691225306E-01  0.10195782510E+01  0.10192873993E+01 0.  0.
     999903    2    3    3    0    0  0.15236096938E-01  0.58669544719E-01  0.11035479232E+00  0.12744901811E+00  0.19769114811E-01 0.  0.
         14    1    1    2    0    0 -0.11222369506E-01  0.89062757135E-02  0.19691225306E-01  0.24351748982E-01  0.00000000000E+00 0.  1.
     999901    1    3    3    0    0 -0.40137274317E-02 -0.67575820433E-01 -0.13004601763E+00  0.89212923291E+00  0.88000000000E+00 0. -1.
        -11    1    4    4    0    0  0.12758371827E-01  0.45373542763E-01  0.66199985122E-01  0.81266435788E-01  0.51100000000E-03 0.  1.
         11    1    4    4    0    0  0.24777251112E-02  0.13296001957E-01  0.44154807199E-01  0.46182582318E-01  0.51100000000E-03 0. -1.
</event>
<event>
 8    1  0.1177602E+005  0.1043930E+01  0.7957747E-01            NaN
         13   -1    0    0    0    0  0.00000000000E+00  0.00000000000E+00  0.74505805969E-08  0.10566000000E+00  0.10566000000E+00 0. -1.
     999900   -1    0    0    0    0 -0.00000000000E+00 -0.00000000000E+00 -0.74505805969E-08  0.93827000000E+00  0.93827000000E+00 0.  1.
     999902    2    1    2    0    0  0.15184534165E-01 -0.53176973571E-02  0.17483138067E-01  0.10201706208E+01  0.10198939099E+01 0.  0.
     999903    2    3    3    0    0  0.27316399280E-01 -0.11189409894E+00  0.62268299347E-01  0.13252687346E+00  0.20483067124E-01 0.  0.
         14    1    1    2    0    0 -0.15184534165E-01  0.53176973571E-02 -0.17483138067E-01  0.23759379193E-01  0.00000000000E+00 0.  1.
     999901    1    3    3    0    0 -0.12131865116E-01  0.10657640159E+00 -0.44785161279E-01  0.88764374734E+00  0.88000000000E+00 0.  1.
        -11    1    4    4    0    0  0.18869718364E-01 -0.92770959452E-01  0.42585300951E-01  0.10380889252E+00  0.51100000000E-03 0. -1.
         11    1    4    4    0    0  0.84466809168E-02 -0.19123139491E-01  0.19682998396E-01  0.28717980941E-01  0.51100000000E-03 0.  1.
</event>
<event>
 8    1  0.1177602E+005  0.1043930E+01  0.7957747E-01            NaN
         13   -1    0    0    0    0  0.00000000000E+00  0.00000000000E+00  0.74505805969E-08  0.10566000000E+00  0.10566000000E+00 0. -1.
     999900   -1    0    0    0    0 -0.00000000000E+00 -0.00000000000E+00 -0.74505805969E-08  0.93827000000E+00  0.93827000000E+00 0. -1.
     999902    2    1    2    0    0 -0.17994823254E-01  0.15321387987E-01  0.83740187752E-04  0.10202960074E+01  0.10200222434E+01 0.  0.
     999903    2    3    3    0    0  0.10775657741E+00  0.29369535772E-01  0.62780032230E-01  0.12903757672E+00  0.15339952816E-01 0.  0.
         14    1    1    2    0    0  0.17994823254E-01 -0.15321387987E-01 -0.83740187752E-04  0.23633992600E-01  0.00000000000E+00 0.  1.
     999901    1    3    3    0    0 -0.12575140066E+00 -0.14048147785E-01 -0.62696292042E-01  0.89125843068E+00  0.88000000000E+00 0. -1.
        -11    1    4    4    0    0  0.89653794284E-02  0.24286373373E-02  0.10620502246E-01  0.14118516089E-01  0.51100000000E-03 0. -1.
         11    1    4    4    0    0  0.98791197980E-01  0.26940898435E-01  0.52159529984E-01  0.11491906063E+00  0.51100000000E-03 0.  1.
</event>
<event>
 8    1  0.1177602E+005  0.1043930E+01  0.7957747E-01            NaN
         13   -1    0    0    0    0  0.00000000000E+00  0.00000000000E+00  0.74505805969E-08  0.10566000000E+00  0.10566000000E+00 0.  1.
     999900   -1    0    0    0    0 -0.00000000000E+00 -0.00000000000E+00 -0.74505805969E-08  0.93827000000E+00  0.93827000000E+00 0.  1.
     999902    2    1    2    0    0 -0.16311606399E-01  0.42587606963E-02 -0.15750359436E-01  0.10208588195E+01  0.10205980845E+01 0.  0.
     999903    2    3    3    0    0  0.97020063498E-01 -0.79362364897E-01 -0.23938389707E-01  0.12962169963E+00  0.22747765380E-01 0.  0.
         14    1    1    2    0    0  0.16311606399E-01 -0.42587606963E-02  0.15750359436E-01  0.23071180471E-01  0.00000000000E+00 0.  1.
     999901    1    3    3    0    0 -0.11333166990E+00  0.83621125593E-01  0.81880302714E-02  0.89123711990E+00  0.88000000000E+00 0.  1.
        -11    1    4    4    0    0  0.71176290025E-01 -0.70184663111E-01 -0.19019689769E-01  0.10175441473E+00  0.51100000000E-03 0. -1.
         11    1    4    4    0    0  0.25843773474E-01 -0.91777017860E-02 -0.49186999385E-02  0.27867284897E-01  0.51100000000E-03 0.  1.
</event>
<event>
 8    1  0.1177602E+005  0.1043930E+01  0.7957747E-01            NaN
         13   -1    0    0    0    0  0.00000000000E+00  0.00000000000E+00  0.74505805969E-08  0.10566000000E+00  0.10566000000E+00 0. -1.
     999900   -1    0    0    0    0 -0.00000000000E+00 -0.00000000000E+00 -0.74505805969E-08  0.93827000000E+00  0.93827000000E+00 0. -1.
     999902    2    1    2    0    0  0.18189744398E-01 -0.15350134044E-01  0.16308095886E-02  0.10200730732E+01  0.10197940585E+01 0.  0.
     999903    2    3    3    0    0  0.61813022550E-01 -0.54605767828E-01 -0.10131913983E+00  0.13213012049E+00  0.19752493701E-01 0.  0.
         14    1    1    2    0    0 -0.18189744398E-01  0.15350134044E-01 -0.16308095886E-02  0.23856926801E-01  0.00000000000E+00 0. -1.
     999901    1    3    3    0    0 -0.43623278151E-01  0.39255633784E-01  0.10294994942E+00  0.88794295271E+00  0.88000000000E+00 0.  1.
        -11    1    4    4    0    0  0.41368203377E-01 -0.47710119845E-01 -0.77943610039E-01  0.10031476089E+00  0.51100000000E-03 0.  1.
         11    1    4    4    0    0  0.20444819172E-01 -0.68956479836E-02 -0.23375529794E-01  0.31815359596E-01  0.51100000000E-03 0. -1.
</event>
<event>
 8    1  0.1177602E+005  0.1043930E+01  0.7957747E-01            NaN
         13   -1    0    0    0    0  0.00000000000E+00  0.00000000000E+00  0.74505805969E-08  0.10566000000E+00  0.10566000000E+00 0. -1.
     999900   -1    0    0    0    0 -0.00000000000E+00 -0.00000000000E+00 -0.74505805969E-08  0.93827000000E+00  0.93827000000E+00 0.  1.
     999902    2    1    2    0    0  0.18490932728E-01 -0.14324264640E-01  0.11800336936E-01  0.10177317729E+01  0.10173945225E+01 0.  0.
     999903    2    3    3    0    0  0.91240336169E-01  0.59690832333E-01 -0.64615122311E-01  0.12834432490E+00  0.20232579987E-01 0.  0.
         14    1    1    2    0    0 -0.18490932728E-01  0.14324264640E-01 -0.11800336936E-01  0.26198227085E-01  0.00000000000E+00 0.  1.
     999901    1    3    3    0    0 -0.72749403442E-01 -0.74015096973E-01  0.76415459247E-01  0.88938744802E+00  0.88000000000E+00 0. -1.
        -11    1    4    4    0    0  0.53644991981E-01  0.27680417464E-01 -0.26321716983E-01  0.65856545473E-01  0.51100000000E-03 0.  1.
         11    1    4    4    0    0  0.37595344188E-01  0.32010414869E-01 -0.38293405328E-01  0.62487779424E-01  0.51100000000E-03 0. -1.
</event>
<event>
 8    1  0.1177602E+005  0.1043930E+01  0.7957747E-01            NaN
         13   -1    0    0    0    0  0.00000000000E+00  0.00000000000E+00  0.74505805969E-08  0.10566000000E+00  0.10566000000E+00 0. -1.
     999900   -1    0    0    0    0 -0.00000000000E+00 -0.00000000000E+00 -0.74505805969E-08  0.93827000000E+00  0.93827000000E+00 0.  1.
     999902    2    1    2    0    0 -0.17477963096E-01  0.52886011924E-02 -0.17455796905E-01  0.10186683029E+01  0.10183550255E+01 0.  0.
     999903    2    3    3    0    0 -0.83479734101E-01  0.70097165895E-01  0.67574087541E-01  0.12974397252E+00  0.19615361982E-01 0.  0.
         14    1    1    2    0    0  0.17477963096E-01 -0.52886011924E-02  0.17455796905E-01  0.25261697135E-01  0.00000000000E+00 0. -1.
     999901    1    3    3    0    0  0.66001771005E-01 -0.64808564703E-01 -0.85029884445E-01  0.88892433035E+00  0.88000000000E+00 0.  1.
        -11    1    4    4    0    0 -0.35896780775E-01  0.34717153788E-01  0.20302217230E-01  0.53910117628E-01  0.51100000000E-03 0.  1.
         11    1    4    4    0    0 -0.47582953326E-01  0.35380012108E-01  0.47271870310E-01  0.75833854891E-01  0.51100000000E-03 0. -1.
</event>
<event>
 8    1  0.1177602E+005  0.1043930E+01  0.7957747E-01            NaN
         13   -1    0    0    0    0  0.00000000000E+00  0.00000000000E+00  0.74505805969E-08  0.10566000000E+00  0.10566000000E+00 0. -1.
     999900   -1    0    0    0    0 -0.00000000000E+00 -0.00000000000E+00 -0.74505805969E-08  0.93827000000E+00  0.93827000000E+00 0.  1.
     999902    2    1    2    0    0 -0.22870590892E-01  0.31991968477E-02 -0.68739474195E-02  0.10198353960E+01  0.10195507270E+01 0.  0.
     999903    2    3    3    0    0 -0.93834448201E-01  0.21636963280E-01  0.87690653708E-01  0.13173726852E+00  0.19798871661E-01 0.  0.
         14    1    1    2    0    0  0.22870590892E-01 -0.31991968477E-02  0.68739474195E-02  0.24094603989E-01  0.00000000000E+00 0. -1.
     999901    1    3    3    0    0  0.70963857308E-01 -0.18437766432E-01 -0.94564601128E-01  0.88809812750E+00  0.88000000000E+00 0.  1.
        -11    1    4    4    0    0 -0.44830513425E-01  0.12026828596E-01  0.29252026831E-01  0.54866763480E-01  0.51100000000E-03 0.  1.
         11    1    4    4    0    0 -0.49003934775E-01  0.96101346835E-02  0.58438626877E-01  0.76870505035E-01  0.51100000000E-03 0. -1.
</event>
<event>
 8    1  0.1177602E+005  0.1043930E+01  0.7957747E-01            NaN
         13   -1    0    0    0    0  0.00000000000E+00  0.00000000000E+00  0.74505805969E-08  0.10566000000E+00  0.10566000000E+00 0.  1.
     999900   -1    0    0    0    0 -0.00000000000E+00 -0.00000000000E+00 -0.74505805969E-08  0.93827000000E+00  0.93827000000E+00 0.  1.
     999902    2    1    2    0    0 -0.28673025232E-02 -0.22688214060E-01  0.58412473847E-02  0.10203271050E+01  0.10200540694E+01 0.  0.
     999903    2    3    3    0    0  0.50756140357E-01 -0.12075718911E+00  0.12928659657E-01  0.13322889798E+00  0.20598653156E-01 0.  0.
         14    1    1    2    0    0  0.28673025232E-02  0.22688214060E-01 -0.58412473847E-02  0.23602894992E-01  0.00000000000E+00 0. -1.
     999901    1    3    3    0    0 -0.53623442880E-01  0.98068975049E-01 -0.70874122723E-02  0.88709820702E+00  0.88000000000E+00 0. -1.
        -11    1    4    4    0    0  0.25526578809E-01 -0.76077150648E-01  0.15987054646E-01  0.81824116944E-01  0.51100000000E-03 0. -1.
         11    1    4    4    0    0  0.25229561548E-01 -0.44680038461E-01 -0.30583949892E-02  0.51404781039E-01  0.51100000000E-03 0.  1.
</event>
<event>
 7    1  0.1177602E+005  0.1043930E+01  0.7957747E-01            NaN
         13   -1    0    0    0    0  0.00000000000E+00  0.00000000000E+00  0.74505805969E-08  0.10566000000E+00  0.10566000000E+00 0.  1.
     999900   -1    0    0    0    0 -0.00000000000E+00 -0.00000000000E+00 -0.74505805969E-08  0.93827000000E+00  0.93827000000E+00 0.  1.
     999903    2    1    2    0    0  0.22840537712E-01 -0.78496756279E-01 -0.63018573844E-01  0.10520512104E+00  0.20330910797E-01 0.  0.
         14    1    1    2    0    0  0.42882817105E-01 -0.22445262707E-01  0.31694025391E-02  0.48505370150E-01  0.00000000000E+00 0. -1.
     999901    1    1    2    0    0 -0.65723354818E-01  0.10094201899E+00  0.59849171305E-01  0.89021950881E+00  0.88000000000E+00 0. -1.
        -11    1    3    3    0    0  0.12026649903E-01 -0.18704385911E-01 -0.25292340219E-01  0.33681715439E-01  0.51100000000E-03 0. -1.
         11    1    3    3    0    0  0.10813887809E-01 -0.59792370368E-01 -0.37726233625E-01  0.71523405598E-01  0.51100000000E-03 0.  1.
</event>
<event>
 8    1  0.1177602E+005  0.1043930E+01  0.7957747E-01            NaN
         13   -1    0    0    0    0  0.00000000000E+00  0.00000000000E+00  0.74505805969E-08  0.10566000000E+00  0.10566000000E+00 0. -1.
     999900   -1    0    0    0    0 -0.00000000000E+00 -0.00000000000E+00 -0.74505805969E-08  0.93827000000E+00  0.93827000000E+00 0.  1.
     999902    2    1    2    0    0  0.27983242087E-02 -0.16592780640E-01  0.17125006569E-01  0.10199213175E+01  0.10196386992E+01 0.  0.
     999903    2    3    3    0    0  0.10071989291E-01 -0.12204924078E+00 -0.43076834661E-01  0.13155301946E+00  0.21286641397E-01 0.  0.
         14    1    1    2    0    0 -0.27983242087E-02  0.16592780640E-01 -0.17125006569E-01  0.24008682549E-01  0.00000000000E+00 0.  1.
     999901    1    3    3    0    0 -0.72736650826E-02  0.10545646014E+00  0.60201841230E-01  0.88836829799E+00  0.88000000000E+00 0. -1.
        -11    1    4    4    0    0  0.14425442675E-01 -0.84519007168E-01 -0.23042615685E-01  0.88785016910E-01  0.51100000000E-03 0.  1.
         11    1    4    4    0    0 -0.43534533840E-02 -0.37530233609E-01 -0.20034218977E-01  0.42768002550E-01  0.51100000000E-03 0. -1.
</event>
<event>
 8    1  0.1177602E+005  0.1043930E+01  0.7957747E-01            NaN
         13   -1    0    0    0    0  0.00000000000E+00  0.00000000000E+00  0.74505805969E-08  0.10566000000E+00  0.10566000000E+00 0.  1.
     999900   -1    0    0    0    0 -0.00000000000E+00 -0.00000000000E+00 -0.74505805969E-08  0.93827000000E+00  0.93827000000E+00 0. -1.
     999902    2    1    2    0    0 -0.12083322407E-01 -0.12775985979E-01 -0.11630054498E-01  0.10228470527E+01  0.10226297485E+01 0.  0.
     999903    2    3    3    0    0 -0.48260784969E-01 -0.54552647150E-01  0.10935516532E+00  0.13285181587E+00  0.19645816833E-01 0.  0.
         14    1    1    2    0    0  0.12083322407E-01  0.12775985979E-01  0.11630054498E-01  0.21082947274E-01  0.00000000000E+00 0.  1.
     999901    1    3    3    0    0  0.36177462562E-01  0.41776661171E-01 -0.12098521982E+00  0.88999523686E+00  0.88000000000E+00 0. -1.
        -11    1    4    4    0    0 -0.24053252862E-01 -0.38234231546E-01  0.55214292276E-01  0.71339292313E-01  0.51100000000E-03 0.  1.
         11    1    4    4    0    0 -0.24207532107E-01 -0.16318415605E-01  0.54140873048E-01  0.61512523554E-01  0.51100000000E-03 0. -1.
</event>
<event>
 8    1  0.1177602E+005  0.1043930E+01  0.7957747E-01            NaN
         13   -1    0    0    0    0  0.00000000000E+00  0.00000000000E+00  0.74505805969E-08  0.10566000000E+00  0.10566000000E+00 0.  1.
     999900   -1    0    0    0    0 -0.00000000000E+00 -0.00000000000E+00 -0.74505805969E-08  0.93827000000E+00  0.93827000000E+00 0. -1.
     999902    2    1    2    0    0 -0.56183625352E-02 -0.24960041012E-02 -0.21276246130E-01  0.10217833370E+01  0.10215432996E+01 0.  0.
     999903    2    3    3    0    0  0.99833918168E-01 -0.49325076339E-01  0.63952883248E-01  0.13016842569E+00  0.21308998081E-01 0.  0.
         14    1    1    2    0    0  0.56183625352E-02  0.24960041012E-02  0.21276246130E-01  0.22146663032E-01  0.00000000000E+00 0.  1.
     999901    1    3    3    0    0 -0.10545228070E+00  0.46829072238E-01 -0.85229129378E-01  0.89161491127E+00  0.88000000000E+00 0.  1.
        -11    1    4    4    0    0  0.75143443245E-02  0.19111253358E-02  0.49931467904E-02  0.92363632750E-02  0.51100000000E-03 0.  1.
         11    1    4    4    0    0  0.92319573844E-01 -0.51236201675E-01  0.58959736457E-01  0.12093206242E+00  0.51100000000E-03 0. -1.
</event>
<event>
 8    1  0.1177602E+005  0.1043930E+01  0.7957747E-01            NaN
         13   -1    0    0    0    0  0.00000000000E+00  0.00000000000E+00  0.74505805969E-08  0.10566000000E+00  0.10566000000E+00 0.  1.
     999900   -1    0    0    0    0 -0.00000000000E+00 -0.00000000000E+00 -0.74505805969E-08  0.93827000000E+00  0.93827000000E+00 0.  1.
     999902    2    1    2    0    0 -0.16066394787E-01 -0.21270257281E-02  0.17304593444E-01  0.10202213047E+01  0.10199457869E+01 0.  0.
     999903    2    3    3    0    0  0.11221514274E+00 -0.21607258820E-01  0.58652022703E-01  0.12974657608E+00  0.18303069256E-01 0.  0.
         14    1    1    2    0    0  0.16066394787E-01  0.21270257281E-02 -0.17304593444E-01  0.23708695328E-01  0.00000000000E+00 0. -1.
     999901    1    3    3    0    0 -0.12828153753E+00  0.19480233092E-01 -0.41347429259E-01  0.89047472859E+00  0.88000000000E+00 0.  1.
        -11    1    4    4    0    0  0.86107193919E-01 -0.23578397285E-01  0.48969580955E-01  0.10182666961E+00  0.51100000000E-03 0.  1.
         11    1    4    4    0    0  0.26107948819E-01  0.19711384644E-02  0.96824417481E-02  0.27919906475E-01  0.51100000000E-03 0. -1.
</event>
<event>
 8    1  0.1177602E+005  0.1043930E+01  0.7957747E-01            NaN
         13   -1    0    0    0    0  0.00000000000E+00  0.00000000000E+00  0.74505805969E-08  0.10566000000E+00  0.10566000000E+00 0.  1.
     999900   -1    0    0    0    0 -0.00000000000E+00 -0.00000000000E+00 -0.74505805969E-08  0.93827000000E+00  0.93827000000E+00 0.  1.
     999902    2    1    2    0    0  0.35567359872E-02  0.20806279157E-01  0.11115531529E-01  0.10200740434E+01  0.10197950517E+01 0.  0.
     999903    2    3    3    0    0  0.11345222374E+00  0.50045277939E-01 -0.38315505314E-01  0.13138097791E+00  0.20419267723E-01 0.  0.
         14    1    1    2    0    0 -0.35567359872E-02 -0.20806279157E-01 -0.11115531529E-01  0.23855956581E-01  0.00000000000E+00 0. -1.
     999901    1    3    3    0    0 -0.10989548775E+00 -0.29238998782E-01  0.49431036844E-01  0.88869306551E+00  0.88000000000E+00 0. -1.
        -11    1    4    4    0    0  0.63309009905E-01  0.36168051431E-01 -0.15373034625E-01  0.74516776594E-01  0.51100000000E-03 0.  1.
         11    1    4    4    0    0  0.50143213833E-01  0.13877226508E-01 -0.22942470689E-01  0.56864201317E-01  0.51100000000E-03 0. -1.
</event>
<event>
 8    1  0.1177602E+005  0.1043930E+01  0.7957747E-01            NaN
         13   -1    0    0    0    0  0.00000000000E+00  0.00000000000E+00  0.74505805969E-08  0.10566000000E+00  0.10566000000E+00 0. -1.
     999900   -1    0    0    0    0 -0.00000000000E+00 -0.00000000000E+00 -0.74505805969E-08  0.93827000000E+00  0.93827000000E+00 0.  1.
     999902    2    1    2    0    0  0.18866370815E-01  0.27487089141E-01 -0.24637544168E-02  0.10105002213E+01  0.10099471012E+01 0.  0.
     999903    2    3    3    0    0 -0.76050740091E-01 -0.87860775919E-01  0.72481956154E-04  0.11790802977E+00  0.19976666796E-01 0.  0.
         14    1    1    2    0    0 -0.18866370815E-01 -0.27487089141E-01  0.24637544168E-02  0.33429778686E-01  0.00000000000E+00 0. -1.
     999901    1    3    3    0    0  0.94917110906E-01  0.11534786506E+00 -0.25362363730E-02  0.89259219155E+00  0.88000000000E+00 0.  1.
        -11    1    4    4    0    0 -0.55393121901E-01 -0.74076241875E-01 -0.46844869840E-02  0.92616915861E-01  0.51100000000E-03 0. -1.
         11    1    4    4    0    0 -0.20657618190E-01 -0.13784534044E-01  0.47569689401E-02  0.25291113905E-01  0.51100000000E-03 0.  1.
</event>
<event>
 8    1  0.1177602E+005  0.1043930E+01  0.7957747E-01            NaN
         13   -1    0    0    0    0  0.00000000000E+00  0.00000000000E+00  0.74505805969E-08  0.10566000000E+00  0.10566000000E+00 0.  1.
     999900   -1    0    0    0    0 -0.00000000000E+00 -0.00000000000E+00 -0.74505805969E-08  0.93827000000E+00  0.93827000000E+00 0.  1.
     999902    2    1    2    0    0  0.85253096288E-02 -0.13483030044E-01  0.18037165177E-01  0.10198507074E+01  0.10195664045E+01 0.  0.
     999903    2    3    3    0    0 -0.57468844757E-01  0.10966685157E+00 -0.24099878363E-01  0.12783240481E+00  0.20756520249E-01 0.  0.
         14    1    1    2    0    0 -0.85253096288E-02  0.13483030044E-01 -0.18037165177E-01  0.24079292578E-01  0.00000000000E+00 0. -1.
     999901    1    3    3    0    0  0.65994154386E-01 -0.12314988161E+00  0.42137043540E-01  0.89201830261E+00  0.88000000000E+00 0.  1.
        -11    1    4    4    0    0  0.38995047063E-03  0.77657177717E-03  0.15838569573E-02  0.18774581102E-02  0.51100000000E-03 0.  1.
         11    1    4    4    0    0 -0.57858795227E-01  0.10889027979E+00 -0.25683735320E-01  0.12595494670E+00  0.51100000000E-03 0. -1.
</event>
<event>
 8    1  0.1177602E+005  0.1043930E+01  0.7957747E-01            NaN
         13   -1    0    0    0    0  0.00000000000E+00  0.00000000000E+00  0.74505805969E-08  0.10566000000E+00  0.10566000000E+00 0. -1.
     999900   -1    0    0    0    0 -0.00000000000E+00 -0.00000000000E+00 -0.74505805969E-08  0.93827000000E+00  0.93827000000E+00 0.  1.
     999902    2    1    2    0    0 -0.16665979537E-01  0.10441225713E-01 -0.79150616660E-02  0.10227304182E+01  0.10225106777E+01 0.  0.
     999903    2    3    3    0    0  0.53408597349E-01 -0.20110373671E-02 -0.11991126348E+00  0.13278173741E+00  0.19893620496E-01 0.  0.
         14    1    1    2    0    0  0.16665979537E-01 -0.10441225713E-01  0.79150616660E-02  0.21199581824E-01  0.00000000000E+00 0. -1.
     999901    1    3    3    0    0 -0.70074576886E-01  0.12452263081E-01  0.11199620182E+00  0.88994868077E+00  0.88000000000E+00 0.  1.
        -11    1    4    4    0    0  0.11558637032E-01 -0.73970485695E-02 -0.19370080273E-01  0.23744042376E-01  0.51100000000E-03 0. -1.
         11    1    4    4    0    0  0.41849960317E-01  0.53860112024E-02 -0.10054118321E+00  0.10903769503E+00  0.51100000000E-03 0.  1.
</event>
<event>
 8    1  0.1177602E+005  0.1043930E+01  0.7957747E-01            NaN
         13   -1    0    0    0    0  0.00000000000E+00  0.00000000000E+00  0.74505805969E-08  0.10566000000E+00  0.10566000000E+00 0.  1.
     999900   -1    0    0    0    0 -0.00000000000E+00 -0.00000000000E+00 -0.74505805969E-08  0.93827000000E+00  0.93827000000E+00 0.  1.
     999902    2    1    2    0    0 -0.10319674319E-01 -0.77695579901E-02 -0.13692996935E-01  0.10251055512E+01  0.10249326959E+01 0.  0.
     999903    2    3    3    0    0 -0.31910084204E-01 -0.40052437007E-01  0.12216983808E+00  0.13383284316E+00  0.19060676423E-01 0.  0.
         14    1    1    2    0    0  0.10319674319E-01  0.77695579901E-02  0.13692996935E-01  0.18824448849E-01  0.00000000000E+00 0.  1.
     999901    1    3    3    0    0  0.21590409885E-01  0.32282879017E-01 -0.13586283502E+00  0.89127270799E+00  0.88000000000E+00 0.  1.
        -11    1    4    4    0    0 -0.30061841234E-01 -0.24260680693E-01  0.90137160688E-01  0.98067649018E-01  0.51100000000E-03 0. -1.
         11    1    4    4    0    0 -0.18482429693E-02 -0.15791756314E-01  0.32032677396E-01  0.35765194138E-01  0.51100000000E-03 0.  1.
</event>
<event>
 7    1  0.1177602E+005  0.1043930E+01  0.7957747E-01            NaN
         13   -1    0    0    0    0  0.00000000000E+00  0.00000000000E+00  0.74505805969E-08  0.10566000000E+00  0.10566000000E+00 0.  1.
     999900   -1    0    0    0    0 -0.00000000000E+00 -0.00000000000E+00 -0.74505805969E-08  0.93827000000E+00  0.93827000000E+00 0.  1.
     999903    2    1    2    0    0  0.19002262451E-01  0.41960020583E-01  0.79943106252E-02  0.50909730947E-01  0.20153471096E-01 0.  0.
         14    1    1    2    0    0 -0.49499575271E-01 -0.86342732097E-01 -0.47940263292E-01  0.11046965277E+00  0.00000000000E+00 0. -1.
     999901    1    1    2    0    0  0.30497312820E-01  0.44382711515E-01  0.39945952667E-01  0.88255061629E+00  0.88000000000E+00 0. -1.
        -11    1    3    3    0    0  0.53250995018E-02  0.97901590421E-02  0.11192913492E-01  0.15803364585E-01  0.51100000000E-03 0. -1.
         11    1    3    3    0    0  0.13677162949E-01  0.32169861540E-01 -0.31986028664E-02  0.35106366362E-01  0.51100000000E-03 0.  1.
</event>
<event>
 8    1  0.1177602E+005  0.1043930E+01  0.7957747E-01            NaN
         13   -1    0    0    0    0  0.00000000000E+00  0.00000000000E+00  0.74505805969E-08  0.10566000000E+00  0.10566000000E+00 0.  1.
     999900   -1    0    0    0    0 -0.00000000000E+00 -0.00000000000E+00 -0.74505805969E-08  0.93827000000E+00  0.93827000000E+00 0. -1.
     999902    2    1    2    0    0  0.17713414751E-01 -0.10136182634E-01  0.12625328101E-01  0.10199319549E+01  0.10196495900E+01 0.  0.
     999903    2    3    3    0    0  0.48942534971E-02 -0.12463353420E+00  0.38563012824E-01  0.13204303282E+00  0.19768282475E-01 0.  0.
         14    1    1    2    0    0 -0.17713414751E-01  0.10136182634E-01 -0.12625328101E-01  0.23998045133E-01  0.00000000000E+00 0.  1.
     999901    1    3    3    0    0  0.12819161254E-01  0.11449735157E+00 -0.25937684723E-01  0.88788892205E+00  0.88000000000E+00 0. -1.
        -11    1    4    4    0    0  0.46720686831E-02 -0.36154641181E-01  0.20186453721E-01  0.41674216724E-01  0.51100000000E-03 0.  1.
         11    1    4    4    0    0  0.22218481401E-03 -0.88478893022E-01  0.18376559103E-01  0.90368816093E-01  0.51100000000E-03 0. -1.
</event>
<event>
 8    1  0.1177602E+005  0.1043930E+01  0.7957747E-01            NaN
         13   -1    0    0    0    0  0.00000000000E+00  0.00000000000E+00  0.74505805969E-08  0.10566000000E+00  0.10566000000E+00 0.  1.
     999900   -1    0    0    0    0 -0.00000000000E+00 -0.00000000000E+00 -0.74505805969E-08  0.93827000000E+00  0.93827000000E+00 0. -1.
     999902    2    1    2    0    0  0.20895705277E-01 -0.80462640810E-02  0.30179233109E-02  0.10213361795E+01  0.10210862406E+01 0.  0.
     999903    2    3    3    0    0  0.82891495251E-01  0.85038510844E-03 -0.10195036055E+00  0.13288754902E+00  0.19836872990E-01 0.  0.
         14    1    1    2    0    0 -0.20895705277E-01  0.80462640810E-02 -0.30179233109E-02  0.22593820522E-01  0.00000000000E+00 0. -1.
     999901    1    3    3    0    0 -0.61995789974E-01 -0.88966491895E-02  0.10496828386E+00  0.88844863045E+00  0.88000000000E+00 0.  1.
        -11    1    4    4    0    0  0.60632305621E-01  0.56264012848E-03 -0.59510110791E-01  0.84960622975E-01  0.51100000000E-03 0. -1.
         11    1    4    4    0    0  0.22259189629E-01  0.28774497996E-03 -0.42440249756E-01  0.47926926049E-01  0.51100000000E-03 0.  1.
</event>
<event>
 8    1  0.1177602E+005  0.1043930E+01  0.7957747E-01            NaN
         13   -1    0    0    0    0  0.00000000000E+00  0.00000000000E+00  0.74505805969E-08  0.10566000000E+00  0.10566000000E+00 0. -1.
     999900   -1    0    0    0    0 -0.00000000000E+00 -0.00000000000E+00 -0.74505805969E-08  0.93827000000E+00  0.93827000000E+00 0.  1.
     999902    2    1    2    0    0  0.37812276290E-02  0.30415461684E-02  0.24394231732E-01  0.10190577820E+01  0.10187542078E+01 0.  0.
     999903    2    3    3    0    0 -0.94434332675E-01 -0.21579139541E-01 -0.78481507078E-01  0.12729778511E+00  0.25726964254E-01 0.  0.
         14    1    1    2    0    0 -0.37812276290E-02 -0.30415461684E-02 -0.24394231732E-01  0.24872217981E-01  0.00000000000E+00 0.  1.
     999901    1    3    3    0    0  0.98215560304E-01  0.24620685709E-01  0.10287573881E+00  0.89175999691E+00  0.88000000000E+00 0.  1.
        -11    1    4    4    0    0 -0.59511021548E-01 -0.15428958450E-01 -0.64693066150E-01  0.89247231741E-01  0.51100000000E-03 0.  1.
         11    1    4    4    0    0 -0.34923311127E-01 -0.61501810914E-02 -0.13788440928E-01  0.38050553370E-01  0.51100000000E-03 0. -1.
</event>
<event>
 8    1  0.1177602E+005  0.1043930E+01  0.7957747E-01            NaN
         13   -1    0    0    0    0  0.00000000000E+00  0.00000000000E+00  0.74505805969E-08  0.10566000000E+00  0.10566000000E+00 0.  1.
     999900   -1    0    0    0    0 -0.00000000000E+00 -0.00000000000E+00 -0.74505805969E-08  0.93827000000E+00  0.93827000000E+00 0. -1.
     999902    2    1    2    0    0 -0.25222965345E-02  0.39601160966E-02 -0.23681474715E-01  0.10197875738E+01  0.10195017601E+01 0.  0.
     999903    2    3    3    0    0 -0.98992167155E-01 -0.36208688001E-01 -0.76931260716E-01  0.13200634596E+00  0.19918289397E-01 0.  0.
         14    1    1    2    0    0  0.25222965345E-02 -0.39601160966E-02  0.23681474715E-01  0.24142426224E-01  0.00000000000E+00 0.  1.
     999901    1    3    3    0    0  0.96469870621E-01  0.40168804098E-01  0.53249786001E-01  0.88778122782E+00  0.88000000000E+00 0. -1.
        -11    1    4    4    0    0 -0.82856738069E-01 -0.37544437822E-01 -0.63149327753E-01  0.11073808095E+00  0.51100000000E-03 0.  1.
         11    1    4    4    0    0 -0.16135429086E-01  0.13357498204E-02 -0.13781932963E-01  0.21268265011E-01  0.51100000000E-03 0. -1.
</event>
<event>
 8    1  0.1177602E+005  0.1043930E+01  0.7957747E-01            NaN
         13   -1    0    0    0    0  0.00000000000E+00  0.00000000000E+00  0.74505805969E-08  0.10566000000E+00  0.10566000000E+00 0.  1.
     999900   -1    0    0    0    0 -0.00000000000E+00 -0.00000000000E+00 -0.74505805969E-08  0.93827000000E+00  0.93827000000E+00 0. -1.
     999902    2    1    2    0    0 -0.20811093660E-01 -0.25764152243E-02  0.10791841795E-01  0.10203460354E+01  0.10200734428E+01 0.  0.
     999903    2    3    3    0    0  0.30049254441E-02 -0.90600074216E-01 -0.90620898747E-01  0.12984061084E+00  0.20713133729E-01 0.  0.
         14    1    1    2    0    0  0.20811093660E-01  0.25764152243E-02 -0.10791841795E-01  0.23583964553E-01  0.00000000000E+00 0. -1.
     999901    1    3    3    0    0 -0.23816019104E-01  0.88023658992E-01  0.10141274054E+00  0.89050542461E+00  0.88000000000E+00 0.  1.
        -11    1    4    4    0    0  0.59706374004E-02 -0.57133946670E-01 -0.43944745423E-01  0.72327990047E-01  0.51100000000E-03 0.  1.
         11    1    4    4    0    0 -0.29657119563E-02 -0.33466127546E-01 -0.46676153324E-01  0.57512620793E-01  0.51100000000E-03 0. -1.
</event>
<event>
 8    1  0.1177602E+005  0.1043930E+01  0.7957747E-01            NaN
         13   -1    0    0    0    0  0.00000000000E+00  0.00000000000E+00  0.74505805969E-08  0.10566000000E+00  0.10566000000E+00 0.  1.
     999900   -1    0    0    0    0 -0.00000000000E+00 -0.00000000000E+00 -0.74505805969E-08  0.93827000000E+00  0.93827000000E+00 0.  1.
     999902    2    1    2    0    0  0.16539839586E-02 -0.11282296934E-01 -0.22725792289E-01  0.10185038811E+01  0.10181864605E+01 0.  0.
     999903    2    3    3    0    0  0.74408736889E-01  0.24469076194E-01  0.97560656163E-01  0.12662931344E+00  0.19532167752E-01 0.  0.
         14    1    1    2    0    0 -0.16539839586E-02  0.11282296934E-01  0.22725792289E-01  0.25426118898E-01  0.00000000000E+00 0.  1.
     999901    1    3    3    0    0 -0.72754752930E-01 -0.35751373128E-01 -0.12028644845E+00  0.89187456766E+00  0.88000000000E+00 0.  1.
        -11    1    4    4    0    0  0.47037473258E-01  0.11510930695E-01  0.45783036591E-01  0.66643626675E-01  0.51100000000E-03 0. -1.
         11    1    4    4    0    0  0.27371263631E-01  0.12958145499E-01  0.51777619573E-01  0.59985686769E-01  0.51100000000E-03 0.  1.
</event>
<event>
 8    1  0.1177602E+005  0.1043930E+01  0.7957747E-01            NaN
         13   -1    0    0    0    0  0.00000000000E+00  0.00000000000E+00  0.74505805969E-08  0.10566000000E+00  0.10566000000E+00 0.  1.
     999900   -1    0    0    0    0 -0.00000000000E+00 -0.00000000000E+00 -0.74505805969E-08  0.93827000000E+00  0.93827000000E+00 0.  1.
     999902    2    1    2    0    0 -0.21829197602E-01 -0.73756380766E-02  0.59590599496E-02  0.10201303298E+01  0.10198526685E+01 0.  0.
     999903    2    3    3    0    0  0.45104705363E-01 -0.29900238784E-01 -0.11542540489E+00  0.12899527086E+00  0.19705255295E-01 0.  0.
         14    1    1    2    0    0  0.21829197602E-01  0.73756380766E-02 -0.59590599496E-02  0.23799670175E-01  0.00000000000E+00 0. -1.
     999901    1    3    3    0    0 -0.66933902964E-01  0.22524600708E-01  0.12138446484E+00  0.89113505896E+00  0.88000000000E+00 0. -1.
        -11    1    4    4    0    0  0.42577092775E-01 -0.23569660645E-01 -0.86287546233E-01  0.99066338824E-01  0.51100000000E-03 0.  1.
         11    1    4    4    0    0  0.25276125872E-02 -0.63305781396E-02 -0.29137858657E-01  0.29928932041E-01  0.51100000000E-03 0. -1.
</event>
<event>
 8    1  0.1177602E+005  0.1043930E+01  0.7957747E-01            NaN
         13   -1    0    0    0    0  0.00000000000E+00  0.00000000000E+00  0.74505805969E-08  0.10566000000E+00  0.10566000000E+00 0.  1.
     999900   -1    0    0    0    0 -0.00000000000E+00 -0.00000000000E+00 -0.74505805969E-08  0.93827000000E+00  0.93827000000E+00 0.  1.
     999902    2    1    2    0    0  0.30127507234E-01 -0.14381514594E-01 -0.11533908143E-01  0.10086096703E+01  0.10079910423E+01 0.  0.
     999903    2    3    3    0    0  0.26195289986E-01  0.98828550625E-01  0.56688864529E-01  0.11872971888E+00  0.20732658967E-01 0.  0.
         14    1    1    2    0    0 -0.30127507234E-01  0.14381514594E-01  0.11533908143E-01  0.35320329716E-01  0.00000000000E+00 0.  1.
     999901    1    3    3    0    0  0.39322172481E-02 -0.11321006522E+00 -0.68222772673E-01  0.88987995140E+00  0.88000000000E+00 0.  1.
        -11    1    4    4    0    0  0.30480733719E-02  0.45459119908E-01  0.18715999933E-01  0.49258218690E-01  0.51100000000E-03 0.  1.
         11    1    4    4    0    0  0.23147216614E-01  0.53369430717E-01  0.37972864596E-01  0.69471500190E-01  0.51100000000E-03 0. -1.
</event>
<event>
 8    1  0.1177602E+005  0.1043930E+01  0.7957747E-01            NaN
         13   -1    0    0    0    0  0.00000000000E+00  0.00000000000E+00  0.74505805969E-08  0.10566000000E+00  0.10566000000E+00 0. -1.
     999900   -1    0    0    0    0 -0.00000000000E+00 -0.00000000000E+00 -0.74505805969E-08  0.93827000000E+00  0.93827000000E+00 0.  1.
     999902    2    1    2    0    0 -0.12456524831E-01 -0.20340401071E-01 -0.44141645212E-02  0.10196734179E+01  0.10193848623E+01 0.  0.
     999903    2    3    3    0    0 -0.32531191467E-01 -0.12724084710E+00 -0.61646518074E-02  0.13297518186E+00  0.19896845681E-01 0.  0.
         14    1    1    2    0    0  0.12456524831E-01  0.20340401071E-01  0.44141645212E-02  0.24256582097E-01  0.00000000000E+00 0.  1.
     999901    1    3    3    0    0  0.20074666636E-01  0.10690044603E+00  0.17504872861E-02  0.88669823605E+00  0.88000000000E+00 0.  1.
        -11    1    4    4    0    0 -0.55825475408E-03 -0.23188404500E-01  0.43797865886E-02  0.23610535851E-01  0.51100000000E-03 0.  1.
         11    1    4    4    0    0 -0.31972936713E-01 -0.10405244260E+00 -0.10544438396E-01  0.10936464601E+00  0.51100000000E-03 0. -1.
</event>
<event>
 8    1  0.1177602E+005  0.1043930E+01  0.7957747E-01            NaN
         13   -1    0    0    0    0  0.00000000000E+00  0.00000000000E+00  0.74505805969E-08  0.10566000000E+00  0.10566000000E+00 0.  1.
     999900   -1    0    0    0    0 -0.00000000000E+00 -0.00000000000E+00 -0.74505805969E-08  0.93827000000E+00  0.93827000000E+00 0.  1.
     999902    2    1    2    0    0  0.20205955306E-01  0.31234742659E-02 -0.11847774551E-01  0.10202993740E+01  0.10200256890E+01 0.  0.
     999903    2    3    3    0    0 -0.14071044139E-01  0.10495113377E+00  0.72188771258E-01  0.12979057231E+00  0.20533855043E-01 0.  0.
         14    1    1    2    0    0 -0.20205955306E-01 -0.31234742659E-02  0.11847774551E-01  0.23630625957E-01  0.00000000000E+00 0. -1.
     999901    1    3    3    0    0  0.34276999445E-01 -0.10182765950E+00 -0.84036545809E-01  0.89050880173E+00  0.88000000000E+00 0.  1.
        -11    1    4    4    0    0 -0.51902119610E-02  0.85439283329E-01  0.50976745102E-01  0.99627802837E-01  0.51100000000E-03 0. -1.
         11    1    4    4    0    0 -0.88808321780E-02  0.19511850438E-01  0.21212026156E-01  0.30162769474E-01  0.51100000000E-03 0.  1.
</event>
<event>
 8    1  0.1177602E+005  0.1043930E+01  0.7957747E-01            NaN
         13   -1    0    0    0    0  0.00000000000E+00  0.00000000000E+00  0.74505805969E-08  0.10566000000E+00  0.10566000000E+00 0. -1.
     999900   -1    0    0    0    0 -0.00000000000E+00 -0.00000000000E+00 -0.74505805969E-08  0.93827000000E+00  0.93827000000E+00 0.  1.
     999902    2    1    2    0    0  0.95039083714E-02  0.19528517214E-01 -0.87547964365E-02  0.10205134734E+01  0.10202447822E+01 0.  0.
     999903    2    3    3    0    0  0.65077156848E-01  0.68111982509E-01 -0.92460714952E-01  0.13346476003E+00  0.19737777343E-01 0.  0.
         14    1    1    2    0    0 -0.95039083714E-02 -0.19528517214E-01  0.87547964365E-02  0.23416526633E-01  0.00000000000E+00 0. -1.
     999901    1    3    3    0    0 -0.55573248477E-01 -0.48583465295E-01  0.83705918516E-01  0.88704871334E+00  0.88000000000E+00 0. -1.
        -11    1    4    4    0    0  0.78477161308E-02  0.17588936845E-01 -0.25186104188E-01  0.31710539462E-01  0.51100000000E-03 0.  1.
         11    1    4    4    0    0  0.57229440717E-01  0.50523045664E-01 -0.67274610764E-01  0.10175422056E+00  0.51100000000E-03 0. -1.
</event>
<event>
 8    1  0.1177602E+005  0.1043930E+01  0.7957747E-01            NaN
         13   -1    0    0    0    0  0.00000000000E+00  0.00000000000E+00  0.74505805969E-08  0.10566000000E+00  0.10566000000E+00 0. -1.
     999900   -1    0    0    0    0 -0.00000000000E+00 -0.00000000000E+00 -0.74505805969E-08  0.93827000000E+00  0.93827000000E+00 0.  1.
     999902    2    1    2    0    0  0.19723283459E-01 -0.10916570447E-01  0.43065919060E-03  0.10213830515E+01  0.10211341601E+01 0.  0.
     999903    2    3    3    0    0 -0.79972421242E-01 -0.74516571388E-02  0.10028483193E+00  0.13013555780E+00  0.20666410818E-01 0.  0.
         14    1    1    2    0    0 -0.19723283459E-01  0.10916570447E-01 -0.43065919060E-03  0.22546948531E-01  0.00000000000E+00 0.  1.
     999901    1    3    3    0    0  0.99695704701E-01 -0.34649133078E-02 -0.99854172735E-01  0.89124749367E+00  0.88000000000E+00 0.  1.
        -11    1    4    4    0    0 -0.78277276710E-01 -0.53575161892E-02  0.89572648109E-01  0.11907793851E+00  0.51100000000E-03 0.  1.
         11    1    4    4    0    0 -0.16951445319E-02 -0.20941409496E-02  0.10712183817E-01  0.11057619293E-01  0.51100000000E-03 0. -1.
</event>
<event>
 8    1  0.1177602E+005  0.1043930E+01  0.7957747E-01            NaN
         13   -1    0    0    0    0  0.00000000000E+00  0.00000000000E+00  0.74505805969E-08  0.10566000000E+00  0.10566000000E+00 0.  1.
     999900   -1    0    0    0    0 -0.00000000000E+00 -0.00000000000E+00 -0.74505805969E-08  0.93827000000E+00  0.93827000000E+00 0. -1.
     999902    2    1    2    0    0 -0.22235734894E-02 -0.71263562786E-02  0.22320305159E-01  0.10203943833E+01  0.10201229201E+01 0.  0.
     999903    2    3    3    0    0  0.97709581909E-01 -0.13242758292E-01 -0.80349219078E-01  0.12878624224E+00  0.20183313427E-01 0.  0.
         14    1    1    2    0    0  0.22235734894E-02  0.71263562786E-02 -0.22320305159E-01  0.23535616739E-01  0.00000000000E+00 0. -1.
     999901    1    3    3    0    0 -0.99933155398E-01  0.61164020138E-02  0.10266952424E+00  0.89160814102E+00  0.88000000000E+00 0.  1.
        -11    1    4    4    0    0  0.83266488628E-01 -0.64144110487E-02 -0.59629885343E-01  0.10261791824E+00  0.51100000000E-03 0. -1.
         11    1    4    4    0    0  0.14443093281E-01 -0.68283472438E-02 -0.20719333735E-01  0.26168324001E-01  0.51100000000E-03 0.  1.
</event>
<event>
 8    1  0.1185932E+005  0.1043930E+01  0.7957747E-01            NaN
         13   -1    0    0    0    0  0.00000000000E+00  0.00000000000E+00  0.74505805969E-08  0.10566000000E+00  0.10566000000E+00 0. -1.
     999900   -1    0    0    0    0 -0.00000000000E+00 -0.00000000000E+00 -0.74505805969E-08  0.93827000000E+00  0.93827000000E+00 0.  1.
     999902    2    1    2    0    0 -0.22528728198E-01  0.22158464122E-02  0.10008396393E-01  0.10191788067E+01  0.10188782158E+01 0.  0.
     999903    2    3    3    0    0 -0.24265701045E-01  0.12543216969E+00  0.20614586169E-01  0.13052939856E+00  0.17056062966E-01 0.  0.
         14    1    1    2    0    0  0.22528728198E-01 -0.22158464122E-02 -0.10008396393E-01  0.24751193262E-01  0.00000000000E+00 0. -1.
     999901    1    3    3    0    0  0.17369728475E-02 -0.12321632328E+00 -0.10606189776E-01  0.88864940818E+00  0.88000000000E+00 0.  1.
        -11    1    4    4    0    0 -0.19425848906E-01  0.72594918059E-01  0.18658395706E-01  0.77432438842E-01  0.51100000000E-03 0. -1.
         11    1    4    4    0    0 -0.48398521395E-02  0.52837251634E-01  0.19561904634E-02  0.53096959716E-01  0.51100000000E-03 0.  1.
</event>
<event>
 8    1  0.1177602E+005  0.1043930E+01  0.7957747E-01            NaN
         13   -1    0    0    0    0  0.00000000000E+00  0.00000000000E+00  0.74505805969E-08  0.10566000000E+00  0.10566000000E+00 0. -1.
     999900   -1    0    0    0    0 -0.00000000000E+00 -0.00000000000E+00 -0.74505805969E-08  0.93827000000E+00  0.93827000000E+00 0.  1.
     999902    2    1    2    0    0 -0.17597193365E-01  0.15380925635E-01  0.16047850875E-03  0.10205577977E+01  0.10202901345E+01 0.  0.
     999903    2    3    3    0    0 -0.11142984952E+00 -0.63315821710E-01 -0.23127379777E-01  0.13177206999E+00  0.20087261908E-01 0.  0.
         14    1    1    2    0    0  0.17597193365E-01 -0.15380925635E-01 -0.16047850875E-03  0.23372202315E-01  0.00000000000E+00 0. -1.
     999901    1    3    3    0    0  0.93832656160E-01  0.78696747345E-01  0.23287858285E-01  0.88878572769E+00  0.88000000000E+00 0. -1.
        -11    1    4    4    0    0 -0.58657751948E-01 -0.40217166334E-01 -0.20863189247E-01  0.74119404464E-01  0.51100000000E-03 0. -1.
         11    1    4    4    0    0 -0.52772097577E-01 -0.23098655376E-01 -0.22641905293E-02  0.57652665529E-01  0.51100000000E-03 0.  1.
</event>
<event>
 8    1  0.1177602E+005  0.1043930E+01  0.7957747E-01            NaN
         13   -1    0    0    0    0  0.00000000000E+00  0.00000000000E+00  0.74505805969E-08  0.10566000000E+00  0.10566000000E+00 0.  1.
     999900   -1    0    0    0    0 -0.00000000000E+00 -0.00000000000E+00 -0.74505805969E-08  0.93827000000E+00  0.93827000000E+00 0.  1.
     999902    2    1    2    0    0  0.48954324469E-02 -0.21537643664E-01  0.71760594947E-02  0.10207064950E+01  0.10204422658E+01 0.  0.
     999903    2    3    3    0    0 -0.40867559654E-01 -0.11141256041E+00 -0.55718987901E-01  0.13271576360E+00  0.20638610586E-01 0.  0.
         14    1    1    2    0    0 -0.48954324469E-02  0.21537643664E-01 -0.71760594947E-02  0.23223504975E-01  0.00000000000E+00 0.  1.
     999901    1    3    3    0    0  0.45762992101E-01  0.89874916745E-01  0.62895047396E-01  0.88799073142E+00  0.88000000000E+00 0.  1.
        -11    1    4    4    0    0 -0.14053667893E-01 -0.35295630685E-01 -0.28679220892E-01  0.47603003673E-01  0.51100000000E-03 0.  1.
         11    1    4    4    0    0 -0.26813891760E-01 -0.76116929724E-01 -0.27039767009E-01  0.85112759930E-01  0.51100000000E-03 0. -1.
</event>
<event>
 8    1  0.1177602E+005  0.1043930E+01  0.7957747E-01            NaN
         13   -1    0    0    0    0  0.00000000000E+00  0.00000000000E+00  0.74505805969E-08  0.10566000000E+00  0.10566000000E+00 0.  1.
     999900   -1    0    0    0    0 -0.00000000000E+00 -0.00000000000E+00 -0.74505805969E-08  0.93827000000E+00  0.93827000000E+00 0. -1.
     999902    2    1    2    0    0  0.14192034625E-01 -0.18762852487E-01  0.48511045013E-02  0.10199093486E+01  0.10196264451E+01 0.  0.
     999903    2    3    3    0    0 -0.53455659427E-01  0.18001471926E-01 -0.11391300985E+00  0.12859978343E+00  0.19497947802E-01 0.  0.
         14    1    1    2    0    0 -0.14192034625E-01  0.18762852487E-01 -0.48511045013E-02  0.24020651430E-01  0.00000000000E+00 0. -1.
     999901    1    3    3    0    0  0.67647694052E-01 -0.36764324413E-01  0.11876411435E+00  0.89130956514E+00  0.88000000000E+00 0.  1.
        -11    1    4    4    0    0 -0.16050543772E-01  0.84375999062E-02 -0.19691674427E-01  0.26773797084E-01  0.51100000000E-03 0.  1.
         11    1    4    4    0    0 -0.37405115655E-01  0.95638720198E-02 -0.94221335420E-01  0.10182598634E+00  0.51100000000E-03 0. -1.
</event>
<event>
 8    1  0.1177602E+005  0.1043930E+01  0.7957747E-01            NaN
         13   -1    0    0    0    0  0.00000000000E+00  0.00000000000E+00  0.74505805969E-08  0.10566000000E+00  0.10566000000E+00 0. -1.
     999900   -1    0    0    0    0 -0.00000000000E+00 -0.00000000000E+00 -0.74505805969E-08  0.93827000000E+00  0.93827000000E+00 0.  1.
     999902    2    1    2    0    0  0.15336850852E-01  0.53944944803E-03 -0.18445573451E-01  0.10199352260E+01  0.10196529390E+01 0.  0.
     999903    2    3    3    0    0 -0.53509731955E-01 -0.86641137665E-01  0.75306288690E-01  0.12801049913E+00  0.18592273155E-01 0.  0.
         14    1    1    2    0    0 -0.15336850852E-01 -0.53944944803E-03  0.18445573451E-01  0.23994774009E-01  0.00000000000E+00 0. -1.
     999901    1    3    3    0    0  0.68846582808E-01  0.87180587113E-01 -0.93751862142E-01  0.89192472686E+00  0.88000000000E+00 0.  1.
        -11    1    4    4    0    0 -0.17337992585E-01 -0.23096277467E-01  0.11944651997E-01  0.31256676919E-01  0.51100000000E-03 0.  1.
         11    1    4    4    0    0 -0.36171739370E-01 -0.63544860198E-01  0.63361636694E-01  0.96753822209E-01  0.51100000000E-03 0. -1.
</event>
<event>
 8    1  0.1177602E+005  0.1043930E+01  0.7957747E-01            NaN
         13   -1    0    0    0    0  0.00000000000E+00  0.00000000000E+00  0.74505805969E-08  0.10566000000E+00  0.10566000000E+00 0.  1.
     999900   -1    0    0    0    0 -0.00000000000E+00 -0.00000000000E+00 -0.74505805969E-08  0.93827000000E+00  0.93827000000E+00 0. -1.
     999902    2    1    2    0    0  0.33295273541E-03 -0.10384090559E-01  0.21634885209E-01  0.10199298239E+01  0.10196474083E+01 0.  0.
     999903    2    3    3    0    0 -0.21368513473E-01  0.12263068097E+00 -0.24695344885E-01  0.12846452829E+00  0.19959400909E-01 0.  0.
         14    1    1    2    0    0 -0.33295273541E-03  0.10384090559E-01 -0.21634885209E-01  0.24000176089E-01  0.00000000000E+00 0. -1.
     999901    1    3    3    0    0  0.21701466208E-01 -0.13301477153E+00  0.46330230095E-01  0.89146529562E+00  0.88000000000E+00 0. -1.
        -11    1    4    4    0    0 -0.33315313796E-03  0.39738308954E-01 -0.14641876041E-01  0.42354336786E-01  0.51100000000E-03 0. -1.
         11    1    4    4    0    0 -0.21035360335E-01  0.82892372021E-01 -0.10053468845E-01  0.86110191502E-01  0.51100000000E-03 0.  1.
</event>
<event>
 7    1  0.1177602E+005  0.1043930E+01  0.7957747E-01            NaN
         13   -1    0    0    0    0  0.00000000000E+00  0.00000000000E+00  0.74505805969E-08  0.10566000000E+00  0.10566000000E+00 0. -1.
     999900   -1    0    0    0    0 -0.00000000000E+00 -0.00000000000E+00 -0.74505805969E-08  0.93827000000E+00  0.93827000000E+00 0. -1.
     999902    2    1    2    0    0 -0.50882726845E-02 -0.20633789166E-01 -0.92903960912E-02  0.10207361380E+01  0.10204725906E+01 0.  0.
         14    1    1    2    0    0  0.50882726845E-02  0.20633789166E-01  0.92903960912E-02  0.23193861985E-01  0.00000000000E+00 0. -1.
     999901    1    3    3    0    0  0.11481900100E+00 -0.97108966987E-02  0.32383719162E-01  0.88810270227E+00  0.88000000000E+00 0. -1.
        -11    1    3    3    0    0 -0.24387811594E-01  0.12492792200E-01 -0.63415372669E-02  0.28130258214E-01  0.51100000000E-03 0.  1.
         11    1    3    3    0    0 -0.95519462092E-01 -0.23415684667E-01 -0.35332577986E-01  0.10450317753E+00  0.51100000000E-03 0. -1.
</event>
<event>
 8    1  0.1177602E+005  0.1043930E+01  0.7957747E-01            NaN
         13   -1    0    0    0    0  0.00000000000E+00  0.00000000000E+00  0.74505805969E-08  0.10566000000E+00  0.10566000000E+00 0. -1.
     999900   -1    0    0    0    0 -0.00000000000E+00 -0.00000000000E+00 -0.74505805969E-08  0.93827000000E+00  0.93827000000E+00 0. -1.
     999902    2    1    2    0    0 -0.17326895100E-02 -0.98042641782E-02 -0.17550890659E-01  0.10237518045E+01  0.10235529286E+01 0.  0.
     999903    2    3    3    0    0 -0.32807407261E-01  0.49630640566E-01  0.11520173772E+00  0.13127132502E+00  0.20523010118E-01 0.  0.
         14    1    1    2    0    0  0.17326895100E-02  0.98042641782E-02  0.17550890659E-01  0.20178195458E-01  0.00000000000E+00 0. -1.
     999901    1    3    3    0    0  0.31074717751E-01 -0.59434904744E-01 -0.13275262838E+00  0.89248047952E+00  0.88000000000E+00 0. -1.
        -11    1    4    4    0    0 -0.19182741596E-01  0.12805076577E-01  0.34206423703E-01  0.41258794272E-01  0.51100000000E-03 0. -1.
         11    1    4    4    0    0 -0.13624665665E-01  0.36825563989E-01  0.80995314020E-01  0.90012530749E-01  0.51100000000E-03 0.  1.
</event>
<event>
 8    1  0.1177602E+005  0.1043930E+01  0.7957747E-01            NaN
         13   -1    0    0    0    0  0.00000000000E+00  0.00000000000E+00  0.74505805969E-08  0.10566000000E+00  0.10566000000E+00 0.  1.
     999900   -1    0    0    0    0 -0.00000000000E+00 -0.00000000000E+00 -0.74505805969E-08  0.93827000000E+00  0.93827000000E+00 0.  1.
     999902    2    1    2    0    0  0.18350801148E-01  0.39231956497E-02 -0.14143599233E-01  0.10204313880E+01  0.10201607877E+01 0.  0.
     999903    2    3    3    0    0 -0.26828942037E-01 -0.12088324386E+00  0.31818509136E-01  0.12929145962E+00  0.19269489642E-01 0.  0.
         14    1    1    2    0    0 -0.18350801148E-01 -0.39231956497E-02  0.14143599233E-01  0.23498612005E-01  0.00000000000E+00 0. -1.
     999901    1    3    3    0    0  0.45179743186E-01  0.12480643951E+00 -0.45962108370E-01  0.89113992837E+00  0.88000000000E+00 0.  1.
        -11    1    4    4    0    0 -0.17746267425E-01 -0.65941894413E-01  0.26857497852E-01  0.73381535540E-01  0.51100000000E-03 0.  1.
         11    1    4    4    0    0 -0.90826746119E-02 -0.54941349444E-01  0.49610112846E-02  0.55909924081E-01  0.51100000000E-03 0. -1.
</event>
<event>
 8    1  0.1177602E+005  0.1043930E+01  0.7957747E-01            NaN
         13   -1    0    0    0    0  0.00000000000E+00  0.00000000000E+00  0.74505805969E-08  0.10566000000E+00  0.10566000000E+00 0.  1.
     999900   -1    0    0    0    0 -0.00000000000E+00 -0.00000000000E+00 -0.74505805969E-08  0.93827000000E+00  0.93827000000E+00 0.  1.
     999902    2    1    2    0    0  0.18817874062E-01  0.13099320762E-01 -0.68326917080E-02  0.10200053210E+01  0.10197247004E+01 0.  0.
     999903    2    3    3    0    0  0.12194126372E+00  0.46341454881E-02 -0.49106208328E-01  0.13293534469E+00  0.19215594450E-01 0.  0.
         14    1    1    2    0    0 -0.18817874062E-01 -0.13099320762E-01  0.68326917080E-02  0.23924678986E-01  0.00000000000E+00 0.  1.
     999901    1    3    3    0    0 -0.10312338966E+00  0.84651752739E-02  0.42273516620E-01  0.88706997632E+00  0.88000000000E+00 0. -1.
        -11    1    4    4    0    0  0.56046625681E-01  0.11389652644E-01 -0.25375313374E-01  0.62570888498E-01  0.51100000000E-03 0.  1.
         11    1    4    4    0    0  0.65894638037E-01 -0.67555071558E-02 -0.23730894953E-01  0.70364456192E-01  0.51100000000E-03 0. -1.
</event>
<event>
 8    1  0.1177602E+005  0.1043930E+01  0.7957747E-01            NaN
         13   -1    0    0    0    0  0.00000000000E+00  0.00000000000E+00  0.74505805969E-08  0.10566000000E+00  0.10566000000E+00 0. -1.
     999900   -1    0    0    0    0 -0.00000000000E+00 -0.00000000000E+00 -0.74505805969E-08  0.93827000000E+00  0.93827000000E+00 0.  1.
     999902    2    1    2    0    0  0.13719299108E-01  0.24242568703E-03  0.18655217157E-01  0.10207719546E+01  0.10205092299E+01 0.  0.
     999903    2    3    3    0    0  0.10598938277E+00  0.42992555626E-01 -0.61214050362E-01  0.13132243844E+00  0.20403768699E-01 0.  0.
         14    1    1    2    0    0 -0.13719299108E-01 -0.24242568703E-03 -0.18655217157E-01  0.23158045371E-01  0.00000000000E+00 0.  1.
     999901    1    3    3    0    0 -0.92270083665E-01 -0.42750129939E-01  0.79869267519E-01  0.88944951619E+00  0.88000000000E+00 0. -1.
        -11    1    4    4    0    0  0.50183685189E-01  0.13665718488E-01 -0.36802124380E-01  0.63716650891E-01  0.51100000000E-03 0.  1.
         11    1    4    4    0    0  0.55805697585E-01  0.29326837138E-01 -0.24411925982E-01  0.67605787552E-01  0.51100000000E-03 0. -1.
</event>
<event>
 7    1  0.1177602E+005  0.1043930E+01  0.7957747E-01            NaN
         13   -1    0    0    0    0  0.00000000000E+00  0.00000000000E+00  0.74505805969E-08  0.10566000000E+00  0.10566000000E+00 0.  1.
     999900   -1    0    0    0    0 -0.00000000000E+00 -0.00000000000E+00 -0.74505805969E-08  0.93827000000E+00  0.93827000000E+00 0.  1.
     999902    2    1    2    0    0 -0.22310550218E-01 -0.29620461459E-02  0.10957572124E-01  0.10188979654E+01  0.10185904286E+01 0.  0.
         14    1    1    2    0    0  0.22310550218E-01  0.29620461459E-02 -0.10957572124E-01  0.25032034581E-01  0.00000000000E+00 0. -1.
     999901    1    3    3    0    0 -0.25985244440E-01  0.19277153096E-02  0.13124769766E+00  0.89011510894E+00  0.88000000000E+00 0. -1.
        -11    1    3    3    0    0  0.13854068546E-01  0.16939950637E-01 -0.55861516706E-01  0.59997227541E-01  0.51100000000E-03 0. -1.
         11    1    3    3    0    0 -0.10179374324E-01 -0.21829712093E-01 -0.64428608834E-01  0.68785628942E-01  0.51100000000E-03 0.  1.
</event>
<event>
 8    1  0.1177602E+005  0.1043930E+01  0.7957747E-01            NaN
         13   -1    0    0    0    0  0.00000000000E+00  0.00000000000E+00  0.74505805969E-08  0.10566000000E+00  0.10566000000E+00 0.  1.
     999900   -1    0    0    0    0 -0.00000000000E+00 -0.00000000000E+00 -0.74505805969E-08  0.93827000000E+00  0.93827000000E+00 0.  1.
     999902    2    1    2    0    0  0.17669156765E-01 -0.43667179039E-02  0.15383508601E-01  0.10200989349E+01  0.10198205319E+01 0.  0.
     999903    2    3    3    0    0 -0.55249130096E-01  0.11329430288E+00 -0.16250513491E-01  0.12871691596E+00  0.20393622158E-01 0.  0.
         14    1    1    2    0    0 -0.17669156765E-01  0.43667179039E-02 -0.15383508601E-01  0.23831065082E-01  0.00000000000E+00 0. -1.
     999901    1    3    3    0    0  0.72918286861E-01 -0.11766102078E+00  0.31634022092E-01  0.89138201896E+00  0.88000000000E+00 0.  1.
        -11    1    4    4    0    0 -0.12015523580E-01  0.46834878931E-01 -0.78467016102E-02  0.48986840463E-01  0.51100000000E-03 0.  1.
         11    1    4    4    0    0 -0.43233606516E-01  0.66459423946E-01 -0.84038118807E-02  0.79730075497E-01  0.51100000000E-03 0. -1.
</event>
<event>
 8    1  0.1177602E+005  0.1043930E+01  0.7957747E-01            NaN
         13   -1    0    0    0    0  0.00000000000E+00  0.00000000000E+00  0.74505805969E-08  0.10566000000E+00  0.10566000000E+00 0. -1.
     999900   -1    0    0    0    0 -0.00000000000E+00 -0.00000000000E+00 -0.74505805969E-08  0.93827000000E+00  0.93827000000E+00 0.  1.
     999902    2    1    2    0    0 -0.23538740064E-01 -0.18016224715E-02  0.36418988629E-02  0.10200431510E+01  0.10197634276E+01 0.  0.
     999903    2    3    3    0    0  0.73321428341E-01 -0.43164178258E-01  0.94969886075E-01  0.12906977627E+00  0.20013738964E-01 0.  0.
         14    1    1    2    0    0  0.23538740064E-01  0.18016224715E-02 -0.36418988629E-02  0.23886848989E-01  0.00000000000E+00 0. -1.
     999901    1    3    3    0    0 -0.96860168404E-01  0.41362555786E-01 -0.91327987212E-01  0.89097337474E+00  0.88000000000E+00 0.  1.
        -11    1    4    4    0    0  0.48934920222E-01 -0.18227073233E-01  0.51629242941E-01  0.73434953962E-01  0.51100000000E-03 0.  1.
         11    1    4    4    0    0  0.24386508119E-01 -0.24937105024E-01  0.43340643134E-01  0.55634822310E-01  0.51100000000E-03 0. -1.
</event>
<event>
 8    1  0.1177602E+005  0.1043930E+01  0.7957747E-01            NaN
         13   -1    0    0    0    0  0.00000000000E+00  0.00000000000E+00  0.74505805969E-08  0.10566000000E+00  0.10566000000E+00 0. -1.
     999900   -1    0    0    0    0 -0.00000000000E+00 -0.00000000000E+00 -0.74505805969E-08  0.93827000000E+00  0.93827000000E+00 0. -1.
     999902    2    1    2    0    0 -0.18711610816E-02  0.23716481353E-01  0.24602737389E-02  0.10200129417E+01  0.10197325019E+01 0.  0.
     999903    2    3    3    0    0 -0.10488820552E-01  0.59987334969E-01 -0.11484186564E+00  0.13144688855E+00  0.19522671245E-01 0.  0.
         14    1    1    2    0    0  0.18711610816E-02 -0.23716481353E-01 -0.24602737389E-02  0.23917058315E-01  0.00000000000E+00 0. -1.
     999901    1    3    3    0    0  0.86176594705E-02 -0.36270853616E-01  0.11730213938E+00  0.88856605313E+00  0.88000000000E+00 0.  1.
        -11    1    4    4    0    0 -0.11115282143E-01  0.25124942669E-01 -0.36437604980E-01  0.45637401536E-01  0.51100000000E-03 0.  1.
         11    1    4    4    0    0  0.62646159131E-03  0.34862392300E-01 -0.78404260662E-01  0.85809487016E-01  0.51100000000E-03 0. -1.
</event>
<event>
 8    1  0.1177602E+005  0.1043930E+01  0.7957747E-01            NaN
         13   -1    0    0    0    0  0.00000000000E+00  0.00000000000E+00  0.74505805969E-08  0.10566000000E+00  0.10566000000E+00 0.  1.
     999900   -1    0    0    0    0 -0.00000000000E+00 -0.00000000000E+00 -0.74505805969E-08  0.93827000000E+00  0.93827000000E+00 0.  1.
     999902    2    1    2    0    0  0.20584206960E-01 -0.12209807569E-01  0.48230013907E-02  0.10195158582E+01  0.10192234960E+01 0.  0.
     999903    2    3    3    0    0  0.48050255431E-01 -0.38148105795E-01 -0.11373851667E+00  0.13076166683E+00  0.19951398786E-01 0.  0.
         14    1    1    2    0    0 -0.20584206960E-01  0.12209807569E-01 -0.48230013907E-02  0.24414141793E-01  0.00000000000E+00 0. -1.
     999901    1    3    3    0    0 -0.27466048471E-01  0.25938298226E-01  0.11856151806E+00  0.88875419138E+00  0.88000000000E+00 0. -1.
        -11    1    4    4    0    0  0.75125273075E-02 -0.17010950576E-01 -0.28468891067E-01  0.34008078241E-01  0.51100000000E-03 0. -1.
         11    1    4    4    0    0  0.40537728124E-01 -0.21137155218E-01 -0.85269625605E-01  0.96753588585E-01  0.51100000000E-03 0.  1.
</event>
<event>
 8    1  0.1177602E+005  0.1043930E+01  0.7957747E-01            NaN
         13   -1    0    0    0    0  0.00000000000E+00  0.00000000000E+00  0.74505805969E-08  0.10566000000E+00  0.10566000000E+00 0.  1.
     999900   -1    0    0    0    0 -0.00000000000E+00 -0.00000000000E+00 -0.74505805969E-08  0.93827000000E+00  0.93827000000E+00 0. -1.
     999902    2    1    2    0    0  0.19984748885E-01  0.59388115120E-02 -0.10107791960E-01  0.10207604698E+01  0.10204974814E+01 0.  0.
     999903    2    3    3    0    0  0.12727140405E+00 -0.31392891433E-01 -0.15678392338E-01  0.13344140996E+00  0.19423542005E-01 0.  0.
         14    1    1    2    0    0 -0.19984748885E-01 -0.59388115120E-02  0.10107791960E-01  0.23169530174E-01  0.00000000000E+00 0.  1.
     999901    1    3    3    0    0 -0.10728665516E+00  0.37331702945E-01  0.55706003775E-02  0.88731905987E+00  0.88000000000E+00 0.  1.
        -11    1    4    4    0    0  0.10446049695E+00 -0.31708665402E-01 -0.84042409001E-02  0.10949122006E+00  0.51100000000E-03 0.  1.
         11    1    4    4    0    0  0.22810907100E-01  0.31577396930E-03 -0.72741514375E-02  0.23950189896E-01  0.51100000000E-03 0. -1.
</event>
<event>
 8    1  0.1177602E+005  0.1043930E+01  0.7957747E-01            NaN
         13   -1    0    0    0    0  0.00000000000E+00  0.00000000000E+00  0.74505805969E-08  0.10566000000E+00  0.10566000000E+00 0.  1.
     999900   -1    0    0    0    0 -0.00000000000E+00 -0.00000000000E+00 -0.74505805969E-08  0.93827000000E+00  0.93827000000E+00 0. -1.
     999902    2    1    2    0    0 -0.12433083746E-01  0.44102630912E-02  0.19228964682E-01  0.10206108003E+01  0.10203443637E+01 0.  0.
     999903    2    3    3    0    0 -0.11890561310E+00  0.44271431474E-01 -0.30372768042E-01  0.13191195134E+00  0.19487262398E-01 0.  0.
         14    1    1    2    0    0  0.12433083746E-01 -0.44102630912E-02 -0.19228964682E-01  0.23319199702E-01  0.00000000000E+00 0. -1.
     999901    1    3    3    0    0  0.10647252936E+00 -0.39861168383E-01  0.49601732724E-01  0.88869884896E+00  0.88000000000E+00 0.  1.
        -11    1    4    4    0    0 -0.21126022772E-01  0.93735254673E-02  0.18842836179E-02  0.23194470539E-01  0.51100000000E-03 0. -1.
         11    1    4    4    0    0 -0.97779590330E-01  0.34897906007E-01 -0.32257051659E-01  0.10871748080E+00  0.51100000000E-03 0.  1.
</event>
<event>
 8    1  0.1177602E+005  0.1043930E+01  0.7957747E-01            NaN
         13   -1    0    0    0    0  0.00000000000E+00  0.00000000000E+00  0.74505805969E-08  0.10566000000E+00  0.10566000000E+00 0.  1.
     999900   -1    0    0    0    0 -0.00000000000E+00 -0.00000000000E+00 -0.74505805969E-08  0.93827000000E+00  0.93827000000E+00 0. -1.
     999902    2    1    2    0    0 -0.75643945815E-02  0.20076830832E-02  0.23171737810E-01  0.10194722755E+01  0.10191788558E+01 0.  0.
     999903    2    3    3    0    0  0.11041733179E+00 -0.63496195884E-01  0.22244980191E-02  0.12893915829E+00  0.19914921492E-01 0.  0.
         14    1    1    2    0    0  0.75643945815E-02 -0.20076830832E-02 -0.23171737810E-01  0.24457724544E-01  0.00000000000E+00 0. -1.
     999901    1    3    3    0    0 -0.11798172637E+00  0.65503878967E-01  0.20947239791E-01  0.89053311717E+00  0.88000000000E+00 0.  1.
        -11    1    4    4    0    0  0.68840980784E-01 -0.46082469375E-01 -0.62211146255E-02  0.83076097689E-01  0.51100000000E-03 0. -1.
         11    1    4    4    0    0  0.41576351003E-01 -0.17413726509E-01  0.84456126446E-02  0.45863060600E-01  0.51100000000E-03 0.  1.
</event>
<event>
 8    1  0.1177602E+005  0.1043930E+01  0.7957747E-01            NaN
         13   -1    0    0    0    0  0.00000000000E+00  0.00000000000E+00  0.74505805969E-08  0.10566000000E+00  0.10566000000E+00 0. -1.
     999900   -1    0    0    0    0 -0.00000000000E+00 -0.00000000000E+00 -0.74505805969E-08  0.93827000000E+00  0.93827000000E+00 0.  1.
     999902    2    1    2    0    0  0.47125976172E-02  0.23786265983E-01  0.47750400803E-02  0.10192157120E+01  0.10189160277E+01 0.  0.
     999903    2    3    3    0    0  0.89877037320E-01  0.75136518375E-01 -0.56311143111E-01  0.13151004453E+00  0.20014213498E-01 0.  0.
         14    1    1    2    0    0 -0.47125976172E-02 -0.23786265983E-01 -0.47750400803E-02  0.24714288044E-01  0.00000000000E+00 0. -1.
     999901    1    3    3    0    0 -0.85164439703E-01 -0.51350252391E-01  0.61086183191E-01  0.88770566743E+00  0.88000000000E+00 0. -1.
        -11    1    4    4    0    0  0.50238143750E-01  0.28976798035E-01 -0.27374660929E-01  0.64133915316E-01  0.51100000000E-03 0. -1.
         11    1    4    4    0    0  0.39638893570E-01  0.46159720339E-01 -0.28936482182E-01  0.67376129210E-01  0.51100000000E-03 0.  1.
</event>
<event>
 8    1  0.1177602E+005  0.1043930E+01  0.7957747E-01            NaN
         13   -1    0    0    0    0  0.00000000000E+00  0.00000000000E+00  0.74505805969E-08  0.10566000000E+00  0.10566000000E+00 0.  1.
     999900   -1    0    0    0    0 -0.00000000000E+00 -0.00000000000E+00 -0.74505805969E-08  0.93827000000E+00  0.93827000000E+00 0.  1.
     999902    2    1    2    0    0 -0.72763493456E-02  0.18915680464E-01  0.12909685683E-01  0.10199006802E+01  0.10196175701E+01 0.  0.
     999903    2    3    3    0    0  0.98323002680E-01  0.77322907034E-01  0.34984061745E-01  0.13139074475E+00  0.19834273876E-01 0.  0.
         14    1    1    2    0    0  0.72763493456E-02 -0.18915680464E-01 -0.12909685683E-01  0.24029319834E-01  0.00000000000E+00 0. -1.
     999901    1    3    3    0    0 -0.10559935203E+00 -0.58407226570E-01 -0.22074376061E-01  0.88850993542E+00  0.88000000000E+00 0.  1.
        -11    1    4    4    0    0  0.18626775714E-01  0.14228702521E-01 -0.12444415206E-02  0.23478128218E-01  0.51100000000E-03 0.  1.
         11    1    4    4    0    0  0.79696226967E-01  0.63094204513E-01  0.36228503265E-01  0.10791261653E+00  0.51100000000E-03 0. -1.
</event>
<event>
 8    1  0.1177602E+005  0.1043930E+01  0.7957747E-01            NaN
         13   -1    0    0    0    0  0.00000000000E+00  0.00000000000E+00  0.74505805969E-08  0.10566000000E+00  0.10566000000E+00 0. -1.
     999900   -1    0    0    0    0 -0.00000000000E+00 -0.00000000000E+00 -0.74505805969E-08  0.93827000000E+00  0.93827000000E+00 0.  1.
     999902    2    1    2    0    0 -0.15841449243E-01 -0.16327215417E-01 -0.66137754286E-02  0.10202388307E+01  0.10199637249E+01 0.  0.
     999903    2    3    3    0    0  0.75269100542E-01 -0.10524805965E+00 -0.65518665870E-02  0.13107739842E+00  0.19893864992E-01 0.  0.
         14    1    1    2    0    0  0.15841449243E-01  0.16327215417E-01  0.66137754286E-02  0.23691169301E-01  0.00000000000E+00 0.  1.
     999901    1    3    3    0    0 -0.91110549786E-01  0.88920844232E-01 -0.61908841624E-04  0.88916143228E+00  0.88000000000E+00 0.  1.
        -11    1    4    4    0    0  0.16686399063E-01 -0.12505875727E-01  0.24997310275E-02  0.21008155978E-01  0.51100000000E-03 0. -1.
         11    1    4    4    0    0  0.58582701479E-01 -0.92742183922E-01 -0.90515976145E-02  0.11006924244E+00  0.51100000000E-03 0.  1.
</event>
<event>
 8    1  0.1177602E+005  0.1043930E+01  0.7957747E-01            NaN
         13   -1    0    0    0    0  0.00000000000E+00  0.00000000000E+00  0.74505805969E-08  0.10566000000E+00  0.10566000000E+00 0.  1.
     999900   -1    0    0    0    0 -0.00000000000E+00 -0.00000000000E+00 -0.74505805969E-08  0.93827000000E+00  0.93827000000E+00 0.  1.
     999902    2    1    2    0    0 -0.14401213182E-01  0.99809458630E-03 -0.18543728159E-01  0.10204297662E+01  0.10201591282E+01 0.  0.
     999903    2    3    3    0    0  0.45057475368E-01 -0.11911652348E+00  0.14520471621E-01  0.12966823897E+00  0.19598108260E-01 0.  0.
         14    1    1    2    0    0  0.14401213182E-01 -0.99809458630E-03  0.18543728159E-01  0.23500233785E-01  0.00000000000E+00 0.  1.
     999901    1    3    3    0    0 -0.59458688550E-01  0.12011461807E+00 -0.33064199780E-01  0.89076152725E+00  0.88000000000E+00 0.  1.
        -11    1    4    4    0    0 -0.70232385039E-03 -0.55684642812E-02  0.37564626791E-02  0.67729746863E-02  0.51100000000E-03 0.  1.
         11    1    4    4    0    0  0.45759799218E-01 -0.11354805920E+00  0.10764008942E-01  0.12289526428E+00  0.51100000000E-03 0. -1.
</event>
<event>
 8    1  0.1177602E+005  0.1043930E+01  0.7957747E-01            NaN
         13   -1    0    0    0    0  0.00000000000E+00  0.00000000000E+00  0.74505805969E-08  0.10566000000E+00  0.10566000000E+00 0.  1.
     999900   -1    0    0    0    0 -0.00000000000E+00 -0.00000000000E+00 -0.74505805969E-08  0.93827000000E+00  0.93827000000E+00 0. -1.
     999902    2    1    2    0    0  0.17075715424E-01  0.10319780135E-01 -0.13453478068E-01  0.10198660437E+01  0.10195821071E+01 0.  0.
     999903    2    3    3    0    0  0.12430406341E+00  0.36299333916E-01 -0.22504771820E-01  0.13293043065E+00  0.19871910221E-01 0.  0.
         14    1    1    2    0    0 -0.17075715424E-01 -0.10319780135E-01  0.13453478068E-01  0.24063956271E-01  0.00000000000E+00 0.  1.
     999901    1    3    3    0    0 -0.10722834798E+00 -0.25979553781E-01  0.90512937525E-02  0.88693561308E+00  0.88000000000E+00 0.  1.
        -11    1    4    4    0    0  0.80227900597E-01  0.26925058140E-01 -0.56454972555E-02  0.84815137507E-01  0.51100000000E-03 0. -1.
         11    1    4    4    0    0  0.44076162812E-01  0.93742757759E-02 -0.16859274565E-01  0.48115293145E-01  0.51100000000E-03 0.  1.
</event>
<event>
 8    1  0.1177602E+005  0.1043930E+01  0.7957747E-01            NaN
         13   -1    0    0    0    0  0.00000000000E+00  0.00000000000E+00  0.74505805969E-08  0.10566000000E+00  0.10566000000E+00 0.  1.
     999900   -1    0    0    0    0 -0.00000000000E+00 -0.00000000000E+00 -0.74505805969E-08  0.93827000000E+00  0.93827000000E+00 0.  1.
     999902    2    1    2    0    0  0.17343368250E-01  0.15031787520E-01  0.80216978833E-02  0.10196175609E+01  0.10193276587E+01 0.  0.
     999903    2    3    3    0    0  0.55065911300E-01 -0.15853838109E-01 -0.11463794221E+00  0.12977358613E+00  0.20389386766E-01 0.  0.
         14    1    1    2    0    0 -0.17343368250E-01 -0.15031787520E-01 -0.80216978833E-02  0.24312439105E-01  0.00000000000E+00 0.  1.
     999901    1    3    3    0    0 -0.37722543050E-01  0.30885625628E-01  0.12265964009E+00  0.88984397477E+00  0.88000000000E+00 0. -1.
        -11    1    4    4    0    0  0.34039009984E-01  0.69784423889E-03 -0.65186843212E-01  0.73544046912E-01  0.51100000000E-03 0. -1.
         11    1    4    4    0    0  0.21026901316E-01 -0.16551682347E-01 -0.49451098994E-01  0.56229539214E-01  0.51100000000E-03 0.  1.
</event>
<event>
 8    1  0.1177602E+005  0.1043930E+01  0.7957747E-01            NaN
         13   -1    0    0    0    0  0.00000000000E+00  0.00000000000E+00  0.74505805969E-08  0.10566000000E+00  0.10566000000E+00 0. -1.
     999900   -1    0    0    0    0 -0.00000000000E+00 -0.00000000000E+00 -0.74505805969E-08  0.93827000000E+00  0.93827000000E+00 0.  1.
     999902    2    1    2    0    0  0.13751414563E-01 -0.19600651276E-01 -0.15717624342E-02  0.10199350553E+01  0.10196527643E+01 0.  0.
     999903    2    3    3    0    0  0.68464339934E-01  0.29728758257E-02  0.10974787759E+00  0.13094960517E+00  0.20174206960E-01 0.  0.
         14    1    1    2    0    0 -0.13751414563E-01  0.19600651276E-01  0.15717624342E-02  0.23994944678E-01  0.00000000000E+00 0.  1.
     999901    1    3    3    0    0 -0.54712925371E-01 -0.22573527102E-01 -0.11131964002E+00  0.88898545015E+00  0.88000000000E+00 0.  1.
        -11    1    4    4    0    0  0.16693594997E-01 -0.47907607036E-02  0.16234227264E-01  0.23778956199E-01  0.51100000000E-03 0.  1.
         11    1    4    4    0    0  0.51770744937E-01  0.77636365294E-02  0.93513650322E-01  0.10717064897E+00  0.51100000000E-03 0. -1.
</event>
<event>
 8    1  0.1177602E+005  0.1043930E+01  0.7957747E-01            NaN
         13   -1    0    0    0    0  0.00000000000E+00  0.00000000000E+00  0.74505805969E-08  0.10566000000E+00  0.10566000000E+00 0.  1.
     999900   -1    0    0    0    0 -0.00000000000E+00 -0.00000000000E+00 -0.74505805969E-08  0.93827000000E+00  0.93827000000E+00 0. -1.
     999902    2    1    2    0    0  0.22616868441E-01 -0.22541568451E-02 -0.42324662821E-02  0.10208103605E+01  0.10205485164E+01 0.  0.
     999903    2    3    3    0    0  0.11657195275E+00 -0.63893979339E-01  0.98803393423E-02  0.13355267700E+00  0.81997356718E-02 0.  0.
         14    1    1    2    0    0 -0.22616868441E-01  0.22541568451E-02  0.42324662821E-02  0.23119639530E-01  0.00000000000E+00 0. -1.
     999901    1    3    3    0    0 -0.93955084313E-01  0.61639822494E-01 -0.14112805624E-01  0.88725768347E+00  0.88000000000E+00 0.  1.
        -11    1    4    4    0    0  0.80011634022E-01 -0.39566240067E-01  0.59506849546E-02  0.89459603757E-01  0.51100000000E-03 0. -1.
         11    1    4    4    0    0  0.36560318731E-01 -0.24327739272E-01  0.39296543877E-02  0.44093073248E-01  0.51100000000E-03 0.  1.
</event>
<event>
 8    1  0.1177602E+005  0.1043930E+01  0.7957747E-01            NaN
         13   -1    0    0    0    0  0.00000000000E+00  0.00000000000E+00  0.74505805969E-08  0.10566000000E+00  0.10566000000E+00 0.  1.
     999900   -1    0    0    0    0 -0.00000000000E+00 -0.00000000000E+00 -0.74505805969E-08  0.93827000000E+00  0.93827000000E+00 0.  1.
     999902    2    1    2    0    0 -0.11145686975E-01 -0.65854951907E-02  0.20305572403E-01  0.10198486513E+01  0.10195642992E+01 0.  0.
     999903    2    3    3    0    0  0.89642745887E-01 -0.45912546433E-01  0.81413497781E-01  0.13111972541E+00  0.20504657028E-01 0.  0.
         14    1    1    2    0    0  0.11145686975E-01  0.65854951907E-02 -0.20305572403E-01  0.24081348709E-01  0.00000000000E+00 0. -1.
     999901    1    3    3    0    0 -0.10078843286E+00  0.39327051242E-01 -0.61107925378E-01  0.88872892588E+00  0.88000000000E+00 0.  1.
        -11    1    4    4    0    0  0.12109318742E-01 -0.14457503662E-02  0.39129270215E-02  0.12817874761E-01  0.51100000000E-03 0.  1.
         11    1    4    4    0    0  0.77533427145E-01 -0.44466796067E-01  0.77500570759E-01  0.11830185065E+00  0.51100000000E-03 0. -1.
</event>
<event>
 8    1  0.1177602E+005  0.1043930E+01  0.7957747E-01            NaN
         13   -1    0    0    0    0  0.00000000000E+00  0.00000000000E+00  0.74505805969E-08  0.10566000000E+00  0.10566000000E+00 0. -1.
     999900   -1    0    0    0    0 -0.00000000000E+00 -0.00000000000E+00 -0.74505805969E-08  0.93827000000E+00  0.93827000000E+00 0. -1.
     999902    2    1    2    0    0 -0.19240801201E-01  0.45609163932E-02  0.11954693253E-01  0.10208231811E+01  0.10205616307E+01 0.  0.
     999903    2    3    3    0    0  0.80682758474E-01  0.40975615855E-01 -0.89124499557E-01  0.12867535067E+00  0.20626702075E-01 0.  0.
         14    1    1    2    0    0  0.19240801201E-01 -0.45609163932E-02 -0.11954693253E-01  0.23106818907E-01  0.00000000000E+00 0.  1.
     999901    1    3    3    0    0 -0.99923559675E-01 -0.36414699461E-01  0.10107919281E+00  0.89214783043E+00  0.88000000000E+00 0.  1.
        -11    1    4    4    0    0  0.55309093856E-01  0.33765857158E-01 -0.73600717894E-01  0.98064039118E-01  0.51100000000E-03 0. -1.
         11    1    4    4    0    0  0.25373664618E-01  0.72097586965E-02 -0.15523781663E-01  0.30611311549E-01  0.51100000000E-03 0.  1.
</event>
<event>
 8    1  0.1177602E+005  0.1043930E+01  0.7957747E-01            NaN
         13   -1    0    0    0    0  0.00000000000E+00  0.00000000000E+00  0.74505805969E-08  0.10566000000E+00  0.10566000000E+00 0. -1.
     999900   -1    0    0    0    0 -0.00000000000E+00 -0.00000000000E+00 -0.74505805969E-08  0.93827000000E+00  0.93827000000E+00 0. -1.
     999902    2    1    2    0    0  0.17869086676E-02 -0.32675443119E-02  0.21896108837E-01  0.10217194289E+01  0.10214779889E+01 0.  0.
     999903    2    3    3    0    0  0.93862631091E-01  0.84532396933E-01  0.34335439165E-01  0.13248295565E+00  0.20417921243E-01 0.  0.
         14    1    1    2    0    0 -0.17869086676E-02  0.32675443119E-02 -0.21896108837E-01  0.22210571146E-01  0.00000000000E+00 0.  1.
     999901    1    3    3    0    0 -0.92075722423E-01 -0.87799941245E-01 -0.12439330328E-01  0.88923647321E+00  0.88000000000E+00 0.  1.
        -11    1    4    4    0    0  0.73559445768E-01  0.54449069075E-01  0.21785969229E-01  0.94077535901E-01  0.51100000000E-03 0. -1.
         11    1    4    4    0    0  0.20303185322E-01  0.30083327858E-01  0.12549469935E-01  0.38405419747E-01  0.51100000000E-03 0.  1.
</event>
<event>
 8    1  0.1177602E+005  0.1043930E+01  0.7957747E-01            NaN
         13   -1    0    0    0    0  0.00000000000E+00  0.00000000000E+00  0.74505805969E-08  0.10566000000E+00  0.10566000000E+00 0.  1.
     999900   -1    0    0    0    0 -0.00000000000E+00 -0.00000000000E+00 -0.74505805969E-08  0.93827000000E+00  0.93827000000E+00 0.  1.
     999902    2    1    2    0    0  0.68113477188E-02 -0.26626519639E-02  0.22904231790E-01  0.10198865392E+01  0.10196030918E+01 0.  0.
     999903    2    3    3    0    0 -0.56106968603E-01  0.45371048072E-01 -0.10325514460E+00  0.12737203561E+00  0.18854353363E-01 0.  0.
         14    1    1    2    0    0 -0.68113477188E-02  0.26626519639E-02 -0.22904231790E-01  0.24043460797E-01  0.00000000000E+00 0. -1.
     999901    1    3    3    0    0  0.62918316322E-01 -0.48033700036E-01  0.12615937639E+00  0.89251450359E+00  0.88000000000E+00 0. -1.
        -11    1    4    4    0    0 -0.42153006112E-01  0.41588823934E-01 -0.74368863072E-01  0.95065741023E-01  0.51100000000E-03 0.  1.
         11    1    4    4    0    0 -0.13953962491E-01  0.37822241378E-02 -0.28886281528E-01  0.32306294590E-01  0.51100000000E-03 0. -1.
</event>
<event>
 8    1  0.1177602E+005  0.1043930E+01  0.7957747E-01            NaN
         13   -1    0    0    0    0  0.00000000000E+00  0.00000000000E+00  0.74505805969E-08  0.10566000000E+00  0.10566000000E+00 0.  1.
     999900   -1    0    0    0    0 -0.00000000000E+00 -0.00000000000E+00 -0.74505805969E-08  0.93827000000E+00  0.93827000000E+00 0.  1.
     999902    2    1    2    0    0 -0.15419224647E-02 -0.16843220305E-02 -0.23414426829E-01  0.10204044851E+01  0.10201332577E+01 0.  0.
     999903    2    3    3    0    0 -0.11239973046E+00  0.78699192039E-02  0.60861538442E-01  0.12940326436E+00  0.18586095033E-01 0.  0.
         14    1    1    2    0    0  0.15419224647E-02  0.16843220305E-02  0.23414426829E-01  0.23525514857E-01  0.00000000000E+00 0.  1.
     999901    1    3    3    0    0  0.11085780800E+00 -0.95542412344E-02 -0.84275965271E-01  0.89100122079E+00  0.88000000000E+00 0.  1.
        -11    1    4    4    0    0 -0.96474577383E-01  0.13226925679E-01  0.51312533200E-01  0.11007058112E+00  0.51100000000E-03 0.  1.
         11    1    4    4    0    0 -0.15925153078E-01 -0.53570064748E-02  0.95490052416E-02  0.19332683234E-01  0.51100000000E-03 0. -1.
</event>
<event>
 8    1  0.1177602E+005  0.1043930E+01  0.7957747E-01            NaN
         13   -1    0    0    0    0  0.00000000000E+00  0.00000000000E+00  0.74505805969E-08  0.10566000000E+00  0.10566000000E+00 0. -1.
     999900   -1    0    0    0    0 -0.00000000000E+00 -0.00000000000E+00 -0.74505805969E-08  0.93827000000E+00  0.93827000000E+00 0.  1.
     999902    2    1    2    0    0 -0.13150559839E-01 -0.15500440384E-01 -0.12038233247E-01  0.10203054379E+01  0.10200318949E+01 0.  0.
     999903    2    3    3    0    0 -0.15935866624E-02  0.12563841629E+00  0.17755347547E-01  0.12848628695E+00  0.20147515984E-01 0.  0.
         14    1    1    2    0    0  0.13150559839E-01  0.15500440384E-01  0.12038233247E-01  0.23624562131E-01  0.00000000000E+00 0.  1.
     999901    1    3    3    0    0 -0.11556973176E-01 -0.14113885668E+00 -0.29793580794E-01  0.89181915092E+00  0.88000000000E+00 0.  1.
        -11    1    4    4    0    0  0.22215487350E-02  0.60504035768E-01  0.18245840578E-01  0.63236424965E-01  0.51100000000E-03 0.  1.
         11    1    4    4    0    0 -0.38151353974E-02  0.65134380524E-01 -0.49049303080E-03  0.65249861983E-01  0.51100000000E-03 0. -1.
</event>
<event>
 8    1  0.1177602E+005  0.1043930E+01  0.7957747E-01            NaN
         13   -1    0    0    0    0  0.00000000000E+00  0.00000000000E+00  0.74505805969E-08  0.10566000000E+00  0.10566000000E+00 0. -1.
     999900   -1    0    0    0    0 -0.00000000000E+00 -0.00000000000E+00 -0.74505805969E-08  0.93827000000E+00  0.93827000000E+00 0.  1.
     999902    2    1    2    0    0 -0.51334497898E-02  0.29706080168E-01 -0.55176885651E-02  0.10132828404E+01  0.10128192663E+01 0.  0.
     999903    2    3    3    0    0 -0.34371478752E-01  0.12117302455E+00 -0.17480112368E-01  0.12797828045E+00  0.14442489634E-01 0.  0.
         14    1    1    2    0    0  0.51334497898E-02 -0.29706080168E-01  0.55176885651E-02  0.30647159621E-01  0.00000000000E+00 0. -1.
     999901    1    3    3    0    0  0.29238028962E-01 -0.91466944385E-01  0.11962423803E-01  0.88530455993E+00  0.88000000000E+00 0.  1.
        -11    1    4    4    0    0 -0.14538245367E-01  0.76252424452E-01 -0.12355834462E-01  0.78604838143E-01  0.51100000000E-03 0.  1.
         11    1    4    4    0    0 -0.19833233385E-01  0.44920600101E-01 -0.51242779066E-02  0.49373442305E-01  0.51100000000E-03 0. -1.
</event>
<event>
 8    1  0.1177602E+005  0.1043930E+01  0.7957747E-01            NaN
         13   -1    0    0    0    0  0.00000000000E+00  0.00000000000E+00  0.74505805969E-08  0.10566000000E+00  0.10566000000E+00 0.  1.
     999900   -1    0    0    0    0 -0.00000000000E+00 -0.00000000000E+00 -0.74505805969E-08  0.93827000000E+00  0.93827000000E+00 0.  1.
     999902    2    1    2    0    0  0.72992205162E-02 -0.22522445365E-01 -0.81397665500E-02  0.10188941264E+01  0.10185864941E+01 0.  0.
     999903    2    3    3    0    0 -0.27662404255E-01  0.15584804724E-01  0.12219931690E+00  0.12779213767E+00  0.19750003847E-01 0.  0.
         14    1    1    2    0    0 -0.72992205162E-02  0.22522445365E-01  0.81397665500E-02  0.25035873559E-01  0.00000000000E+00 0.  1.
     999901    1    3    3    0    0  0.34961624771E-01 -0.38107250090E-01 -0.13033908345E+00  0.89110198877E+00  0.88000000000E+00 0.  1.
        -11    1    4    4    0    0 -0.14870352603E-01 -0.25223255073E-02  0.54682520075E-01  0.56726789397E-01  0.51100000000E-03 0.  1.
         11    1    4    4    0    0 -0.12792051652E-01  0.18107130232E-01  0.67516796825E-01  0.71065348273E-01  0.51100000000E-03 0. -1.
</event>
<event>
 8    1  0.1177602E+005  0.1043930E+01  0.7957747E-01            NaN
         13   -1    0    0    0    0  0.00000000000E+00  0.00000000000E+00  0.74505805969E-08  0.10566000000E+00  0.10566000000E+00 0.  1.
     999900   -1    0    0    0    0 -0.00000000000E+00 -0.00000000000E+00 -0.74505805969E-08  0.93827000000E+00  0.93827000000E+00 0.  1.
     999902    2    1    2    0    0 -0.90361522363E-02 -0.21378491761E-01  0.27418032739E-02  0.10205588759E+01  0.10202912377E+01 0.  0.
     999903    2    3    3    0    0 -0.57230151263E-01  0.38181582475E-01 -0.10850009193E+00  0.13025284803E+00  0.21457190355E-01 0.  0.
         14    1    1    2    0    0  0.90361522363E-02  0.21378491761E-01 -0.27418032739E-02  0.23371124115E-01  0.00000000000E+00 0. -1.
     999901    1    3    3    0    0  0.48193999027E-01 -0.59560074236E-01  0.11124189520E+00  0.89030602785E+00  0.88000000000E+00 0. -1.
        -11    1    4    4    0    0 -0.12626915284E-01  0.19303936033E-01 -0.27737593647E-01  0.36079303739E-01  0.51100000000E-03 0.  1.
         11    1    4    4    0    0 -0.44603235980E-01  0.18877646443E-01 -0.80762498280E-01  0.94173544292E-01  0.51100000000E-03 0. -1.
</event>
<event>
 8    1  0.1177602E+005  0.1043930E+01  0.7957747E-01            NaN
         13   -1    0    0    0    0  0.00000000000E+00  0.00000000000E+00  0.74505805969E-08  0.10566000000E+00  0.10566000000E+00 0.  1.
     999900   -1    0    0    0    0 -0.00000000000E+00 -0.00000000000E+00 -0.74505805969E-08  0.93827000000E+00  0.93827000000E+00 0.  1.
     999902    2    1    2    0    0  0.25521838198E-01  0.65448546562E-02  0.70868110952E-03  0.10175728079E+01  0.10172313983E+01 0.  0.
     999903    2    3    3    0    0  0.15343995475E-01  0.87696237637E-01  0.91453348259E-01  0.12913387916E+00  0.19641169708E-01 0.  0.
         14    1    1    2    0    0 -0.25521838198E-01 -0.65448546562E-02 -0.70868110952E-03  0.26357192119E-01  0.00000000000E+00 0. -1.
     999901    1    3    3    0    0  0.10177842723E-01 -0.81151382980E-01 -0.90744667150E-01  0.88843892872E+00  0.88000000000E+00 0.  1.
        -11    1    4    4    0    0 -0.28119880750E-02  0.11828669027E-01  0.19620738968E-01  0.23088074985E-01  0.51100000000E-03 0. -1.
         11    1    4    4    0    0  0.18155983550E-01  0.75867568610E-01  0.71832609291E-01  0.10604580418E+00  0.51100000000E-03 0.  1.
</event>
<event>
 8    1  0.1177602E+005  0.1043930E+01  0.7957747E-01            NaN
         13   -1    0    0    0    0  0.00000000000E+00  0.00000000000E+00  0.74505805969E-08  0.10566000000E+00  0.10566000000E+00 0. -1.
     999900   -1    0    0    0    0 -0.00000000000E+00 -0.00000000000E+00 -0.74505805969E-08  0.93827000000E+00  0.93827000000E+00 0. -1.
     999902    2    1    2    0    0  0.14746795776E-01  0.11618824067E-01 -0.12237837144E-01  0.10215195177E+01  0.10212736633E+01 0.  0.
     999903    2    3    3    0    0 -0.11321009076E-01  0.12909344911E+00 -0.18962320154E-01  0.13330499596E+00  0.24846901498E-01 0.  0.
         14    1    1    2    0    0 -0.14746795776E-01 -0.11618824067E-01  0.12237837144E-01  0.22410482287E-01  0.00000000000E+00 0. -1.
     999901    1    3    3    0    0  0.26067804851E-01 -0.11747462504E+00  0.67244830106E-02  0.88821452175E+00  0.88000000000E+00 0. -1.
        -11    1    4    4    0    0 -0.63840086910E-02  0.51775099572E-01  0.44719609016E-02  0.52361016586E-01  0.51100000000E-03 0.  1.
         11    1    4    4    0    0 -0.49370003847E-02  0.77318349535E-01 -0.23434281056E-01  0.80943979376E-01  0.51100000000E-03 0. -1.
</event>
<event>
 8    1  0.1177602E+005  0.1043930E+01  0.7957747E-01            NaN
         13   -1    0    0    0    0  0.00000000000E+00  0.00000000000E+00  0.74505805969E-08  0.10566000000E+00  0.10566000000E+00 0.  1.
     999900   -1    0    0    0    0 -0.00000000000E+00 -0.00000000000E+00 -0.74505805969E-08  0.93827000000E+00  0.93827000000E+00 0. -1.
     999902    2    1    2    0    0 -0.21645613344E-01  0.46086381700E-02  0.80617109570E-02  0.10203765861E+01  0.10201047074E+01 0.  0.
     999903    2    3    3    0    0 -0.62171712189E-01  0.10155641017E+00  0.55365126652E-01  0.13286385474E+00  0.20210898163E-01 0.  0.
         14    1    1    2    0    0  0.21645613344E-01 -0.46086381700E-02 -0.80617109570E-02  0.23553413901E-01  0.00000000000E+00 0.  1.
     999901    1    3    3    0    0  0.40526098845E-01 -0.96947772001E-01 -0.47303415695E-01  0.88751273136E+00  0.88000000000E+00 0. -1.
        -11    1    4    4    0    0 -0.41469950158E-01  0.62716086745E-01  0.24405405044E-01  0.79050295503E-01  0.51100000000E-03 0. -1.
         11    1    4    4    0    0 -0.20701762031E-01  0.38840323426E-01  0.30959721608E-01  0.53813559240E-01  0.51100000000E-03 0.  1.
</event>
<event>
 8    1  0.1177602E+005  0.1043930E+01  0.7957747E-01            NaN
         13   -1    0    0    0    0  0.00000000000E+00  0.00000000000E+00  0.74505805969E-08  0.10566000000E+00  0.10566000000E+00 0. -1.
     999900   -1    0    0    0    0 -0.00000000000E+00 -0.00000000000E+00 -0.74505805969E-08  0.93827000000E+00  0.93827000000E+00 0. -1.
     999902    2    1    2    0    0  0.87819614674E-02  0.19655512251E-01 -0.98321164666E-02  0.10202628810E+01  0.10199883400E+01 0.  0.
     999903    2    3    3    0    0  0.22574467883E-01  0.12978947490E+00 -0.24734819925E-02  0.13326013437E+00  0.19930652400E-01 0.  0.
         14    1    1    2    0    0 -0.87819614674E-02 -0.19655512251E-01  0.98321164666E-02  0.23667119032E-01  0.00000000000E+00 0. -1.
     999901    1    3    3    0    0 -0.13792506415E-01 -0.11013396265E+00 -0.73586344742E-02  0.88700274659E+00  0.88000000000E+00 0.  1.
        -11    1    4    4    0    0 -0.16876487001E-02  0.31450814900E-01  0.40607869341E-02  0.31760872588E-01  0.51100000000E-03 0.  1.
         11    1    4    4    0    0  0.24262116583E-01  0.98338660001E-01 -0.65342689266E-02  0.10149926179E+00  0.51100000000E-03 0. -1.
</event>
<event>
 8    1  0.1177602E+005  0.1043930E+01  0.7957747E-01            NaN
         13   -1    0    0    0    0  0.00000000000E+00  0.00000000000E+00  0.74505805969E-08  0.10566000000E+00  0.10566000000E+00 0. -1.
     999900   -1    0    0    0    0 -0.00000000000E+00 -0.00000000000E+00 -0.74505805969E-08  0.93827000000E+00  0.93827000000E+00 0. -1.
     999902    2    1    2    0    0  0.14658882463E-01 -0.18956173363E-02 -0.16787013918E-01  0.10215630593E+01  0.10213181699E+01 0.  0.
     999903    2    3    3    0    0  0.94141921392E-01 -0.91798975351E-01  0.14511222421E-02  0.13323159139E+00  0.21419569324E-01 0.  0.
         14    1    1    2    0    0 -0.14658882463E-01  0.18956173363E-02  0.16787013918E-01  0.22366940704E-01  0.00000000000E+00 0.  1.
     999901    1    3    3    0    0 -0.79483038929E-01  0.89903358014E-01 -0.18238136160E-01  0.88833146791E+00  0.88000000000E+00 0. -1.
        -11    1    4    4    0    0  0.36511793359E-01 -0.34945082598E-01 -0.98422993636E-02  0.51491764680E-01  0.51100000000E-03 0. -1.
         11    1    4    4    0    0  0.57630128034E-01 -0.56853892753E-01  0.11293421606E-01  0.81739826712E-01  0.51100000000E-03 0.  1.
</event>
<event>
 8    1  0.1177602E+005  0.1043930E+01  0.7957747E-01            NaN
         13   -1    0    0    0    0  0.00000000000E+00  0.00000000000E+00  0.74505805969E-08  0.10566000000E+00  0.10566000000E+00 0.  1.
     999900   -1    0    0    0    0 -0.00000000000E+00 -0.00000000000E+00 -0.74505805969E-08  0.93827000000E+00  0.93827000000E+00 0.  1.
     999902    2    1    2    0    0  0.21519188126E-01 -0.19914180444E-02  0.12578680640E-01  0.10189247124E+01  0.10186178405E+01 0.  0.
     999903    2    3    3    0    0 -0.39575960329E-01 -0.48209974736E-01 -0.10910045512E+00  0.12725516357E+00  0.20012722175E-01 0.  0.
         14    1    1    2    0    0 -0.21519188126E-01  0.19914180444E-02 -0.12578680640E-01  0.25005287642E-01  0.00000000000E+00 0. -1.
     999901    1    3    3    0    0  0.61095148455E-01  0.46218556691E-01  0.12167913576E+00  0.89166954878E+00  0.88000000000E+00 0. -1.
        -11    1    4    4    0    0 -0.86213351940E-02 -0.25273794009E-01 -0.39098050040E-01  0.47349875629E-01  0.51100000000E-03 0.  1.
         11    1    4    4    0    0 -0.30954625135E-01 -0.22936180726E-01 -0.70002405081E-01  0.79905287945E-01  0.51100000000E-03 0. -1.
</event>
<event>
 8    1  0.1177602E+005  0.1043930E+01  0.7957747E-01            NaN
         13   -1    0    0    0    0  0.00000000000E+00  0.00000000000E+00  0.74505805969E-08  0.10566000000E+00  0.10566000000E+00 0.  1.
     999900   -1    0    0    0    0 -0.00000000000E+00 -0.00000000000E+00 -0.74505805969E-08  0.93827000000E+00  0.93827000000E+00 0. -1.
     999902    2    1    2    0    0 -0.50437234572E-02 -0.23586102943E-01 -0.12675934510E-02  0.10197773564E+01  0.10194912979E+01 0.  0.
     999903    2    3    3    0    0  0.87706758434E-02  0.91736828142E-01 -0.85912612684E-01  0.12811879210E+00  0.23256772741E-01 0.  0.
         14    1    1    2    0    0  0.50437234572E-02  0.23586102943E-01  0.12675934510E-02  0.24152643572E-01  0.00000000000E+00 0.  1.
     999901    1    3    3    0    0 -0.13814399301E-01 -0.11532293108E+00  0.84645019233E-01  0.89165856433E+00  0.88000000000E+00 0.  1.
        -11    1    4    4    0    0  0.16133288267E-01  0.72195733080E-01 -0.70155616821E-01  0.10195380600E+00  0.51100000000E-03 0.  1.
         11    1    4    4    0    0 -0.73626124241E-02  0.19541095062E-01 -0.15756995862E-01  0.26164986098E-01  0.51100000000E-03 0. -1.
</event>
<event>
 8    1  0.1177602E+005  0.1043930E+01  0.7957747E-01            NaN
         13   -1    0    0    0    0  0.00000000000E+00  0.00000000000E+00  0.74505805969E-08  0.10566000000E+00  0.10566000000E+00 0.  1.
     999900   -1    0    0    0    0 -0.00000000000E+00 -0.00000000000E+00 -0.74505805969E-08  0.93827000000E+00  0.93827000000E+00 0. -1.
     999902    2    1    2    0    0  0.18685593793E-01  0.11588452013E-01  0.53881737326E-02  0.10212920661E+01  0.10210411393E+01 0.  0.
     999903    2    3    3    0    0  0.90158177224E-01  0.24790735985E-01 -0.92128128067E-01  0.13292724261E+00  0.20951905299E-01 0.  0.
         14    1    1    2    0    0 -0.18685593793E-01 -0.11588452013E-01 -0.53881737326E-02  0.22637933908E-01  0.00000000000E+00 0. -1.
     999901    1    3    3    0    0 -0.71472583431E-01 -0.13202283973E-01  0.97516301800E-01  0.88836482348E+00  0.88000000000E+00 0.  1.
        -11    1    4    4    0    0  0.21985887716E-02  0.10228194252E-02 -0.98607504613E-02  0.10167372956E-01  0.51100000000E-03 0. -1.
         11    1    4    4    0    0  0.87959588452E-01  0.23767916560E-01 -0.82267377606E-01  0.12275986965E+00  0.51100000000E-03 0.  1.
</event>
<event>
 8    1  0.1177602E+005  0.1043930E+01  0.7957747E-01            NaN
         13   -1    0    0    0    0  0.00000000000E+00  0.00000000000E+00  0.74505805969E-08  0.10566000000E+00  0.10566000000E+00 0.  1.
     999900   -1    0    0    0    0 -0.00000000000E+00 -0.00000000000E+00 -0.74505805969E-08  0.93827000000E+00  0.93827000000E+00 0. -1.
     999902    2    1    2    0    0  0.18653399835E-02  0.24311225322E-01  0.58756546034E-02  0.10188493603E+01  0.10185406131E+01 0.  0.
     999903    2    3    3    0    0 -0.10269761448E+00 -0.34904691195E-01 -0.65340184012E-01  0.12783217087E+00  0.17509619533E-01 0.  0.
         14    1    1    2    0    0 -0.18653399835E-02 -0.24311225322E-01 -0.58756546034E-02  0.25080639684E-01  0.00000000000E+00 0. -1.
     999901    1    3    3    0    0  0.10456295446E+00  0.59215916517E-01  0.71215838616E-01  0.89101718944E+00  0.88000000000E+00 0.  1.
        -11    1    4    4    0    0 -0.61169293732E-01 -0.29509355891E-01 -0.38132091088E-01  0.77889678858E-01  0.51100000000E-03 0. -1.
         11    1    4    4    0    0 -0.41528320746E-01 -0.53953353034E-02 -0.27208092924E-01  0.49942492014E-01  0.51100000000E-03 0.  1.
</event>
<event>
 8    1  0.1177602E+005  0.1043930E+01  0.7957747E-01            NaN
         13   -1    0    0    0    0  0.00000000000E+00  0.00000000000E+00  0.74505805969E-08  0.10566000000E+00  0.10566000000E+00 0. -1.
     999900   -1    0    0    0    0 -0.00000000000E+00 -0.00000000000E+00 -0.74505805969E-08  0.93827000000E+00  0.93827000000E+00 0. -1.
     999902    2    1    2    0    0 -0.23405947453E-01  0.40715358712E-02 -0.18058185757E-02  0.10201040318E+01  0.10198257493E+01 0.  0.
     999903    2    3    3    0    0  0.41920086575E-01 -0.72226525821E-02  0.12025087377E+00  0.12920960170E+00  0.20624940230E-01 0.  0.
         14    1    1    2    0    0  0.23405947453E-01 -0.40715358712E-02  0.18058185757E-02  0.23825968212E-01  0.00000000000E+00 0.  1.
     999901    1    3    3    0    0 -0.65326034028E-01  0.11294188453E-01 -0.12205669235E+00  0.89089443009E+00  0.88000000000E+00 0. -1.
        -11    1    4    4    0    0  0.39943834041E-01 -0.93103784426E-03  0.10976551774E+00  0.11681227125E+00  0.51100000000E-03 0. -1.
         11    1    4    4    0    0  0.19762525344E-02 -0.62916147378E-02  0.10485356030E-01  0.12397330446E-01  0.51100000000E-03 0.  1.
</event>
<event>
 8    1  0.1177602E+005  0.1043930E+01  0.7957747E-01            NaN
         13   -1    0    0    0    0  0.00000000000E+00  0.00000000000E+00  0.74505805969E-08  0.10566000000E+00  0.10566000000E+00 0. -1.
     999900   -1    0    0    0    0 -0.00000000000E+00 -0.00000000000E+00 -0.74505805969E-08  0.93827000000E+00  0.93827000000E+00 0.  1.
     999902    2    1    2    0    0  0.14649873769E-01 -0.13000586191E-02 -0.18815046732E-01  0.10200487325E+01  0.10197691414E+01 0.  0.
     999903    2    3    3    0    0 -0.60225854983E-01  0.11156073139E+00 -0.18889111276E-01  0.12968704298E+00  0.19722580887E-01 0.  0.
         14    1    1    2    0    0 -0.14649873769E-01  0.13000586191E-02  0.18815046732E-01  0.23881267499E-01  0.00000000000E+00 0. -1.
     999901    1    3    3    0    0  0.74875728751E-01 -0.11286079001E+00  0.74064544977E-04  0.89036168952E+00  0.88000000000E+00 0.  1.
        -11    1    4    4    0    0 -0.27566208602E-01  0.43332652404E-01 -0.16715985249E-01  0.54012034815E-01  0.51100000000E-03 0.  1.
         11    1    4    4    0    0 -0.32659646381E-01  0.68228078982E-01 -0.21731260273E-02  0.75675008167E-01  0.51100000000E-03 0. -1.
</event>
<event>
 8    1  0.1177602E+005  0.1043930E+01  0.7957747E-01            NaN
         13   -1    0    0    0    0  0.00000000000E+00  0.00000000000E+00  0.74505805969E-08  0.10566000000E+00  0.10566000000E+00 0.  1.
     999900   -1    0    0    0    0 -0.00000000000E+00 -0.00000000000E+00 -0.74505805969E-08  0.93827000000E+00  0.93827000000E+00 0. -1.
     999902    2    1    2    0    0  0.15183410783E-01  0.84320488876E-02  0.15389588617E-01  0.10207249391E+01  0.10204611343E+01 0.  0.
     999903    2    3    3    0    0 -0.52017625253E-01 -0.78168982575E-01  0.88799757673E-01  0.13089081370E+00  0.20755360116E-01 0.  0.
         14    1    1    2    0    0 -0.15183410783E-01 -0.84320488876E-02 -0.15389588617E-01  0.23205060854E-01  0.00000000000E+00 0.  1.
     999901    1    3    3    0    0  0.67201036036E-01  0.86601031462E-01 -0.73410169056E-01  0.88983412545E+00  0.88000000000E+00 0.  1.
        -11    1    4    4    0    0 -0.45148278611E-01 -0.72776597035E-01  0.71750407094E-01  0.11172816197E+00  0.51100000000E-03 0.  1.
         11    1    4    4    0    0 -0.68693466417E-02 -0.53923855393E-02  0.17049350579E-01  0.19162651728E-01  0.51100000000E-03 0. -1.
</event>
<event>
 8    1  0.1177602E+005  0.1043930E+01  0.7957747E-01            NaN
         13   -1    0    0    0    0  0.00000000000E+00  0.00000000000E+00  0.74505805969E-08  0.10566000000E+00  0.10566000000E+00 0. -1.
     999900   -1    0    0    0    0 -0.00000000000E+00 -0.00000000000E+00 -0.74505805969E-08  0.93827000000E+00  0.93827000000E+00 0.  1.
     999902    2    1    2    0    0  0.67012629331E-02 -0.18827097519E-01  0.13318390048E-01  0.10199144625E+01  0.10196316810E+01 0.  0.
     999903    2    3    3    0    0 -0.36221615305E-01  0.10113833859E+00 -0.65087332752E-01  0.12728826043E+00  0.20614834710E-01 0.  0.
         14    1    1    2    0    0 -0.67012629331E-02  0.18827097519E-01 -0.13318390048E-01  0.24015537458E-01  0.00000000000E+00 0.  1.
     999901    1    3    3    0    0  0.42922878238E-01 -0.11996543611E+00  0.78405722800E-01  0.89262620212E+00  0.88000000000E+00 0. -1.
        -11    1    4    4    0    0 -0.30426557788E-01  0.73519727169E-01 -0.57159295689E-01  0.97971281030E-01  0.51100000000E-03 0.  1.
         11    1    4    4    0    0 -0.57950575166E-02  0.27618611418E-01 -0.79280370622E-02  0.29316979397E-01  0.51100000000E-03 0. -1.
</event>
<event>
 8    1  0.1177602E+005  0.1043930E+01  0.7957747E-01            NaN
         13   -1    0    0    0    0  0.00000000000E+00  0.00000000000E+00  0.74505805969E-08  0.10566000000E+00  0.10566000000E+00 0.  1.
     999900   -1    0    0    0    0 -0.00000000000E+00 -0.00000000000E+00 -0.74505805969E-08  0.93827000000E+00  0.93827000000E+00 0. -1.
     999902    2    1    2    0    0  0.18374222456E-01 -0.55696809664E-02 -0.11841254277E-01  0.10213723250E+01  0.10211231942E+01 0.  0.
     999903    2    3    3    0    0 -0.95995543067E-01 -0.42517510258E-01  0.72474747312E-01  0.12920935031E+00  0.20483755541E-01 0.  0.
         14    1    1    2    0    0 -0.18374222456E-01  0.55696809664E-02  0.11841254277E-01  0.22557674964E-01  0.00000000000E+00 0.  1.
     999901    1    3    3    0    0  0.11436976552E+00  0.36947829292E-01 -0.84316001589E-01  0.89216297473E+00  0.88000000000E+00 0. -1.
        -11    1    4    4    0    0 -0.44144026280E-01 -0.26864363497E-01  0.44750426375E-01  0.68361179510E-01  0.51100000000E-03 0. -1.
         11    1    4    4    0    0 -0.51851516788E-01 -0.15653146761E-01  0.27724320937E-01  0.60848170795E-01  0.51100000000E-03 0.  1.
</event>
<event>
 8    1  0.1177602E+005  0.1043930E+01  0.7957747E-01            NaN
         13   -1    0    0    0    0  0.00000000000E+00  0.00000000000E+00  0.74505805969E-08  0.10566000000E+00  0.10566000000E+00 0. -1.
     999900   -1    0    0    0    0 -0.00000000000E+00 -0.00000000000E+00 -0.74505805969E-08  0.93827000000E+00  0.93827000000E+00 0.  1.
     999902    2    1    2    0    0  0.19545249544E-01  0.12952910551E-02 -0.98743166489E-02  0.10219938042E+01  0.10217583565E+01 0.  0.
     999903    2    3    3    0    0  0.28556180807E-01 -0.11295988164E+00  0.58525215226E-01  0.13192979672E+00  0.20121633217E-01 0.  0.
         14    1    1    2    0    0 -0.19545249544E-01 -0.12952910551E-02  0.98743166489E-02  0.21936195840E-01  0.00000000000E+00 0. -1.
     999901    1    3    3    0    0 -0.90109312635E-02  0.11425517270E+00 -0.68399531875E-01  0.89006400744E+00  0.88000000000E+00 0.  1.
        -11    1    4    4    0    0  0.16672389586E-01 -0.96073879703E-01  0.50023826271E-01  0.10959381028E+00  0.51100000000E-03 0.  1.
         11    1    4    4    0    0  0.11883791222E-01 -0.16886001941E-01  0.85013889545E-02  0.22335986446E-01  0.51100000000E-03 0. -1.
</event>
<event>
 8    1  0.1177602E+005  0.1043930E+01  0.7957747E-01            NaN
         13   -1    0    0    0    0  0.00000000000E+00  0.00000000000E+00  0.74505805969E-08  0.10566000000E+00  0.10566000000E+00 0.  1.
     999900   -1    0    0    0    0 -0.00000000000E+00 -0.00000000000E+00 -0.74505805969E-08  0.93827000000E+00  0.93827000000E+00 0. -1.
     999902    2    1    2    0    0 -0.16557841886E-01 -0.26923646860E-02  0.18244127191E-01  0.10191457483E+01  0.10188443439E+01 0.  0.
     999903    2    3    3    0    0 -0.14717064949E-01  0.12436549378E+00 -0.24519272762E-01  0.12899082008E+00  0.18816718205E-01 0.  0.
         14    1    1    2    0    0  0.16557841886E-01  0.26923646860E-02 -0.18244127191E-01  0.24784251703E-01  0.00000000000E+00 0. -1.
     999901    1    3    3    0    0 -0.18407769376E-02 -0.12705785846E+00  0.42763399953E-01  0.89015492822E+00  0.88000000000E+00 0.  1.
        -11    1    4    4    0    0  0.78172824283E-03  0.37972054646E-01 -0.48903357385E-03  0.37986685930E-01  0.51100000000E-03 0. -1.
         11    1    4    4    0    0 -0.15498793191E-01  0.86393439133E-01 -0.24030239188E-01  0.91004134148E-01  0.51100000000E-03 0.  1.
</event>
<event>
 8    1  0.1177602E+005  0.1043930E+01  0.7957747E-01            NaN
         13   -1    0    0    0    0  0.00000000000E+00  0.00000000000E+00  0.74505805969E-08  0.10566000000E+00  0.10566000000E+00 0.  1.
     999900   -1    0    0    0    0 -0.00000000000E+00 -0.00000000000E+00 -0.74505805969E-08  0.93827000000E+00  0.93827000000E+00 0.  1.
     999902    2    1    2    0    0  0.17287033393E-02  0.17549079435E-01  0.16171957097E-01  0.10200032200E+01  0.10197225495E+01 0.  0.
     999903    2    3    3    0    0 -0.72041013141E-01  0.10161149229E+00 -0.36980930147E-01  0.13133360213E+00  0.19134338604E-01 0.  0.
         14    1    1    2    0    0 -0.17287033393E-02 -0.17549079435E-01 -0.16171957097E-01  0.23926779988E-01  0.00000000000E+00 0. -1.
     999901    1    3    3    0    0  0.73769716480E-01 -0.84062412856E-01  0.53152887244E-01  0.88866961788E+00  0.88000000000E+00 0.  1.
        -11    1    4    4    0    0 -0.55415259774E-01  0.84714460770E-01 -0.23008900803E-01  0.10381262696E+00  0.51100000000E-03 0. -1.
         11    1    4    4    0    0 -0.16625753367E-01  0.16897031521E-01 -0.13972029344E-01  0.27520975169E-01  0.51100000000E-03 0.  1.
</event>
<event>
 8    1  0.1177602E+005  0.1043930E+01  0.7957747E-01            NaN
         13   -1    0    0    0    0  0.00000000000E+00  0.00000000000E+00  0.74505805969E-08  0.10566000000E+00  0.10566000000E+00 0.  1.
     999900   -1    0    0    0    0 -0.00000000000E+00 -0.00000000000E+00 -0.74505805969E-08  0.93827000000E+00  0.93827000000E+00 0. -1.
     999902    2    1    2    0    0  0.18446873738E-01 -0.10103689023E-01 -0.13158064022E-01  0.10191205999E+01  0.10188185760E+01 0.  0.
     999903    2    3    3    0    0  0.36926741582E-01  0.11751542298E+00  0.31392119389E-01  0.12860790373E+00  0.19520985154E-01 0.  0.
         14    1    1    2    0    0 -0.18446873738E-01  0.10103689023E-01  0.13158064022E-01  0.24809400061E-01  0.00000000000E+00 0.  1.
     999901    1    3    3    0    0 -0.18479867844E-01 -0.12761911200E+00 -0.44550183410E-01  0.89051269621E+00  0.88000000000E+00 0.  1.
        -11    1    4    4    0    0  0.18131010670E-01  0.41597218930E-01  0.32839449956E-02  0.45498434988E-01  0.51100000000E-03 0.  1.
         11    1    4    4    0    0  0.18795730912E-01  0.75918204047E-01  0.28108174393E-01  0.83109468744E-01  0.51100000000E-03 0. -1.
</event>
<event>
 8    1  0.1177602E+005  0.1043930E+01  0.7957747E-01            NaN
         13   -1    0    0    0    0  0.00000000000E+00  0.00000000000E+00  0.74505805969E-08  0.10566000000E+00  0.10566000000E+00 0. -1.
     999900   -1    0    0    0    0 -0.00000000000E+00 -0.00000000000E+00 -0.74505805969E-08  0.93827000000E+00  0.93827000000E+00 0. -1.
     999902    2    1    2    0    0  0.23606942901E-01 -0.60211590966E-02  0.16303217029E-02  0.10195127917E+01  0.10192203552E+01 0.  0.
     999903    2    3    3    0    0 -0.84929069403E-01  0.85326475802E-01  0.36867767980E-01  0.12745554359E+00  0.19802246687E-01 0.  0.
         14    1    1    2    0    0 -0.23606942901E-01  0.60211590966E-02 -0.16303217029E-02  0.24417208253E-01  0.00000000000E+00 0.  1.
     999901    1    3    3    0    0  0.10853601230E+00 -0.91347634898E-01 -0.35237446277E-01  0.89205724816E+00  0.88000000000E+00 0. -1.
        -11    1    4    4    0    0 -0.44314715303E-01  0.37447147746E-01  0.26628561561E-01  0.63839049793E-01  0.51100000000E-03 0. -1.
         11    1    4    4    0    0 -0.40614354100E-01  0.47879328056E-01  0.10239206419E-01  0.63616493798E-01  0.51100000000E-03 0.  1.
</event>
<event>
 8    1  0.1177602E+005  0.1043930E+01  0.7957747E-01            NaN
         13   -1    0    0    0    0  0.00000000000E+00  0.00000000000E+00  0.74505805969E-08  0.10566000000E+00  0.10566000000E+00 0.  1.
     999900   -1    0    0    0    0 -0.00000000000E+00 -0.00000000000E+00 -0.74505805969E-08  0.93827000000E+00  0.93827000000E+00 0. -1.
     999902    2    1    2    0    0  0.65660765521E-02  0.21887398016E-01 -0.13372332121E-01  0.10174537688E+01  0.10171092276E+01 0.  0.
     999903    2    3    3    0    0 -0.26128854585E-01  0.77274653459E-01 -0.99987444644E-01  0.13086542896E+00  0.21775727351E-01 0.  0.
         14    1    1    2    0    0 -0.65660765521E-02 -0.21887398016E-01  0.13372332121E-01  0.26476231218E-01  0.00000000000E+00 0. -1.
     999901    1    3    3    0    0  0.32694931137E-01 -0.55387255443E-01  0.86615112523E-01  0.88658833982E+00  0.88000000000E+00 0.  1.
        -11    1    4    4    0    0 -0.17939973431E-01  0.21351393576E-01 -0.31893332591E-01  0.42369451721E-01  0.51100000000E-03 0. -1.
         11    1    4    4    0    0 -0.81888811541E-02  0.55923259883E-01 -0.68094112053E-01  0.88495977241E-01  0.51100000000E-03 0.  1.
</event>
<event>
 8    1  0.1177602E+005  0.1043930E+01  0.7957747E-01            NaN
         13   -1    0    0    0    0  0.00000000000E+00  0.00000000000E+00  0.74505805969E-08  0.10566000000E+00  0.10566000000E+00 0. -1.
     999900   -1    0    0    0    0 -0.00000000000E+00 -0.00000000000E+00 -0.74505805969E-08  0.93827000000E+00  0.93827000000E+00 0. -1.
     999902    2    1    2    0    0 -0.12397062554E-01 -0.13259335897E-01 -0.17820973563E-01  0.10184921493E+01  0.10181744320E+01 0.  0.
     999903    2    3    3    0    0 -0.86420054087E-01 -0.25235220493E-01 -0.94628219922E-01  0.13196962948E+00  0.18874347632E-01 0.  0.
         14    1    1    2    0    0  0.12397062554E-01  0.13259335897E-01  0.17820973563E-01  0.25437850678E-01  0.00000000000E+00 0. -1.
     999901    1    3    3    0    0  0.74022991533E-01  0.11975884597E-01  0.76807246359E-01  0.88652251984E+00  0.88000000000E+00 0.  1.
        -11    1    4    4    0    0 -0.38878608605E-01 -0.15138748748E-01 -0.31407361889E-01  0.52224624676E-01  0.51100000000E-03 0.  1.
         11    1    4    4    0    0 -0.47541445482E-01 -0.10096471745E-01 -0.63220858034E-01  0.79745004807E-01  0.51100000000E-03 0. -1.
</event>
<event>
 8    1  0.1177602E+005  0.1043930E+01  0.7957747E-01            NaN
         13   -1    0    0    0    0  0.00000000000E+00  0.00000000000E+00  0.74505805969E-08  0.10566000000E+00  0.10566000000E+00 0.  1.
     999900   -1    0    0    0    0 -0.00000000000E+00 -0.00000000000E+00 -0.74505805969E-08  0.93827000000E+00  0.93827000000E+00 0.  1.
     999902    2    1    2    0    0 -0.61047749424E-02 -0.13874349845E-01 -0.18020994880E-01  0.10203817067E+01  0.10201099476E+01 0.  0.
     999903    2    3    3    0    0 -0.41822433907E-01 -0.83390075980E-01 -0.93590108011E-01  0.13369186341E+00  0.20282634799E-01 0.  0.
         14    1    1    2    0    0  0.61047749424E-02  0.13874349845E-01  0.18020994880E-01  0.23548293297E-01  0.00000000000E+00 0.  1.
     999901    1    3    3    0    0  0.35717658964E-01  0.69515726134E-01  0.75569113131E-01  0.88668984329E+00  0.88000000000E+00 0. -1.
        -11    1    4    4    0    0 -0.59347752413E-02 -0.27787997267E-01 -0.20184402560E-01  0.34857790765E-01  0.51100000000E-03 0. -1.
         11    1    4    4    0    0 -0.35887658665E-01 -0.55602078712E-01 -0.73405705451E-01  0.98834072644E-01  0.51100000000E-03 0.  1.
</event>
<event>
 8    1  0.1177602E+005  0.1043930E+01  0.7957747E-01            NaN
         13   -1    0    0    0    0  0.00000000000E+00  0.00000000000E+00  0.74505805969E-08  0.10566000000E+00  0.10566000000E+00 0.  1.
     999900   -1    0    0    0    0 -0.00000000000E+00 -0.00000000000E+00 -0.74505805969E-08  0.93827000000E+00  0.93827000000E+00 0. -1.
     999902    2    1    2    0    0 -0.22387186116E-02  0.23193580393E-01 -0.40695111305E-02  0.10202759316E+01  0.10200016969E+01 0.  0.
     999903    2    3    3    0    0  0.74363922077E-01 -0.10181762475E+00  0.11029157799E-01  0.12801826936E+00  0.19240929089E-01 0.  0.
         14    1    1    2    0    0  0.22387186116E-02 -0.23193580393E-01  0.40695111305E-02  0.23654068430E-01  0.00000000000E+00 0.  1.
     999901    1    3    3    0    0 -0.76602640688E-01  0.12501120514E+00 -0.15098668930E-01  0.89225766221E+00  0.88000000000E+00 0.  1.
        -11    1    4    4    0    0  0.71841907602E-01 -0.98951555098E-01  0.70575607712E-02  0.12248567357E+00  0.51100000000E-03 0.  1.
         11    1    4    4    0    0  0.25220144750E-02 -0.28660696492E-02  0.39715970282E-02  0.55325957923E-02  0.51100000000E-03 0. -1.
</event>
<event>
 8    1  0.1177602E+005  0.1043930E+01  0.7957747E-01            NaN
         13   -1    0    0    0    0  0.00000000000E+00  0.00000000000E+00  0.74505805969E-08  0.10566000000E+00  0.10566000000E+00 0. -1.
     999900   -1    0    0    0    0 -0.00000000000E+00 -0.00000000000E+00 -0.74505805969E-08  0.93827000000E+00  0.93827000000E+00 0. -1.
     999902    2    1    2    0    0  0.61488980744E-02 -0.22364111029E-01  0.39496424903E-02  0.10204020999E+01  0.10201308168E+01 0.  0.
     999903    2    3    3    0    0 -0.72985940553E-01  0.33351396432E-01  0.10022789245E+00  0.12987638889E+00  0.19569946450E-01 0.  0.
         14    1    1    2    0    0 -0.61488980744E-02  0.22364111029E-01 -0.39496424903E-02  0.23527900150E-01  0.00000000000E+00 0. -1.
     999901    1    3    3    0    0  0.79134838628E-01 -0.55715507462E-01 -0.96278249964E-01  0.89052571096E+00  0.88000000000E+00 0. -1.
        -11    1    4    4    0    0 -0.50362884532E-01  0.18909291677E-01  0.52807676996E-01  0.75384967472E-01  0.51100000000E-03 0.  1.
         11    1    4    4    0    0 -0.22623056022E-01  0.14442104756E-01  0.47420215459E-01  0.54491421423E-01  0.51100000000E-03 0. -1.
</event>
<event>
 8    1  0.1177602E+005  0.1043930E+01  0.7957747E-01            NaN
         13   -1    0    0    0    0  0.00000000000E+00  0.00000000000E+00  0.74505805969E-08  0.10566000000E+00  0.10566000000E+00 0.  1.
     999900   -1    0    0    0    0 -0.00000000000E+00 -0.00000000000E+00 -0.74505805969E-08  0.93827000000E+00  0.93827000000E+00 0. -1.
     999902    2    1    2    0    0  0.11206204220E-01  0.17322250252E-01 -0.11082884885E-01  0.10205105699E+01  0.10202418114E+01 0.  0.
     999903    2    3    3    0    0 -0.89036907347E-02 -0.12472267842E+00 -0.23688557583E-01  0.12880429957E+00  0.19858942769E-01 0.  0.
         14    1    1    2    0    0 -0.11206204220E-01 -0.17322250252E-01  0.11082884885E-01  0.23419430057E-01  0.00000000000E+00 0.  1.
     999901    1    3    3    0    0  0.20109894955E-01  0.14204492867E+00  0.12605672697E-01  0.89170627037E+00  0.88000000000E+00 0.  1.
        -11    1    4    4    0    0  0.25763285629E-02 -0.88784054215E-01 -0.14912972422E-01  0.90066106939E-01  0.51100000000E-03 0. -1.
         11    1    4    4    0    0 -0.11480019298E-01 -0.35938624201E-01 -0.87755851610E-02  0.38738192632E-01  0.51100000000E-03 0.  1.
</event>
<event>
 7    1  0.1177602E+005  0.1043930E+01  0.7957747E-01            NaN
         13   -1    0    0    0    0  0.00000000000E+00  0.00000000000E+00  0.74505805969E-08  0.10566000000E+00  0.10566000000E+00 0.  1.
     999900   -1    0    0    0    0 -0.00000000000E+00 -0.00000000000E+00 -0.74505805969E-08  0.93827000000E+00  0.93827000000E+00 0.  1.
     999903    2    1    2    0    0 -0.16008561883E-01 -0.57704119109E-01 -0.53619553646E-01  0.82804575508E-01  0.19887226457E-01 0.  0.
         14    1    1    2    0    0  0.32214261952E-01  0.72237480960E-01 -0.17764297656E-02  0.79114903977E-01  0.00000000000E+00 0. -1.
     999901    1    1    2    0    0 -0.16205700068E-01 -0.14533361851E-01  0.55395983411E-01  0.88201052052E+00  0.88000000000E+00 0. -1.
        -11    1    3    3    0    0 -0.35099168064E-02 -0.41941263785E-01 -0.29534052995E-01  0.51418970538E-01  0.51100000000E-03 0.  1.
         11    1    3    3    0    0 -0.12498645077E-01 -0.15762855324E-01 -0.24085500651E-01  0.31385604970E-01  0.51100000000E-03 0. -1.
</event>
<event>
 8    1  0.1177602E+005  0.1043930E+01  0.7957747E-01            NaN
         13   -1    0    0    0    0  0.00000000000E+00  0.00000000000E+00  0.74505805969E-08  0.10566000000E+00  0.10566000000E+00 0.  1.
     999900   -1    0    0    0    0 -0.00000000000E+00 -0.00000000000E+00 -0.74505805969E-08  0.93827000000E+00  0.93827000000E+00 0. -1.
     999902    2    1    2    0    0 -0.17750159739E-01 -0.15674499426E-01 -0.20804953381E-02  0.10201584505E+01  0.10198814527E+01 0.  0.
     999903    2    3    3    0    0  0.35328935065E-01  0.11050677292E+00 -0.50937214417E-01  0.12823576174E+00  0.19746651947E-01 0.  0.
         14    1    1    2    0    0  0.17750159739E-01  0.15674499426E-01  0.20804953381E-02  0.23771549463E-01  0.00000000000E+00 0.  1.
     999901    1    3    3    0    0 -0.53079094805E-01 -0.12618127234E+00  0.48856719078E-01  0.89192268880E+00  0.88000000000E+00 0.  1.
        -11    1    4    4    0    0  0.12018023445E-01  0.44023322273E-01 -0.30453123223E-01  0.54864739373E-01  0.51100000000E-03 0. -1.
         11    1    4    4    0    0  0.23310911620E-01  0.66483450642E-01 -0.20484091194E-01  0.73371022365E-01  0.51100000000E-03 0.  1.
</event>
<event>
 8    1  0.1177602E+005  0.1043930E+01  0.7957747E-01            NaN
         13   -1    0    0    0    0  0.00000000000E+00  0.00000000000E+00  0.74505805969E-08  0.10566000000E+00  0.10566000000E+00 0. -1.
     999900   -1    0    0    0    0 -0.00000000000E+00 -0.00000000000E+00 -0.74505805969E-08  0.93827000000E+00  0.93827000000E+00 0. -1.
     999902    2    1    2    0    0 -0.10327426732E-01 -0.18648123966E-01 -0.98548226533E-02  0.10204454136E+01  0.10201751400E+01 0.  0.
     999903    2    3    3    0    0 -0.52823811317E-01  0.81961660037E-01 -0.84406243472E-01  0.13056554208E+00  0.20368556222E-01 0.  0.
         14    1    1    2    0    0  0.10327426732E-01  0.18648123966E-01  0.98548226533E-02  0.23484586432E-01  0.00000000000E+00 0. -1.
     999901    1    3    3    0    0  0.42496384584E-01 -0.10060978400E+00  0.74551420819E-01  0.88987987149E+00  0.88000000000E+00 0.  1.
        -11    1    4    4    0    0 -0.16000151637E-01  0.27346801618E-01 -0.40410194602E-01  0.51352676268E-01  0.51100000000E-03 0.  1.
         11    1    4    4    0    0 -0.36823659679E-01  0.54614858419E-01 -0.43996048870E-01  0.79212865808E-01  0.51100000000E-03 0. -1.
</event>
<event>
 8    1  0.1177602E+005  0.1043930E+01  0.7957747E-01            NaN
         13   -1    0    0    0    0  0.00000000000E+00  0.00000000000E+00  0.74505805969E-08  0.10566000000E+00  0.10566000000E+00 0.  1.
     999900   -1    0    0    0    0 -0.00000000000E+00 -0.00000000000E+00 -0.74505805969E-08  0.93827000000E+00  0.93827000000E+00 0. -1.
     999902    2    1    2    0    0 -0.68019032592E-02  0.15174459217E-01  0.17547548642E-01  0.10197546703E+01  0.10194680677E+01 0.  0.
     999903    2    3    3    0    0  0.11915415806E+00  0.13312947814E-01 -0.41479522998E-01  0.12882673286E+00  0.22379193686E-01 0.  0.
         14    1    1    2    0    0  0.68019032592E-02 -0.15174459217E-01 -0.17547548642E-01  0.24175329652E-01  0.00000000000E+00 0. -1.
     999901    1    3    3    0    0 -0.12595606132E+00  0.18615114029E-02  0.59027071639E-01  0.89092793749E+00  0.88000000000E+00 0.  1.
        -11    1    4    4    0    0  0.10342523763E+00  0.16545070568E-01 -0.29592724841E-01  0.10884167227E+00  0.51100000000E-03 0. -1.
         11    1    4    4    0    0  0.15728920429E-01 -0.32321227542E-02 -0.11886798157E-01  0.19985060590E-01  0.51100000000E-03 0.  1.
</event>
<event>
 8    1  0.1177602E+005  0.1043930E+01  0.7957747E-01            NaN
         13   -1    0    0    0    0  0.00000000000E+00  0.00000000000E+00  0.74505805969E-08  0.10566000000E+00  0.10566000000E+00 0. -1.
     999900   -1    0    0    0    0 -0.00000000000E+00 -0.00000000000E+00 -0.74505805969E-08  0.93827000000E+00  0.93827000000E+00 0. -1.
     999902    2    1    2    0    0 -0.67021450053E-02 -0.23706417228E-01  0.24606072524E-02  0.10191718185E+01  0.10188710556E+01 0.  0.
     999903    2    3    3    0    0  0.34488992400E-01 -0.35027274969E-01 -0.11893980709E+00  0.12981084999E+00  0.16964034813E-01 0.  0.
         14    1    1    2    0    0  0.67021450053E-02  0.23706417228E-01 -0.24606072524E-02  0.24758181547E-01  0.00000000000E+00 0.  1.
     999901    1    3    3    0    0 -0.41191137406E-01  0.11320857741E-01  0.12140041434E+00  0.88936096846E+00  0.88000000000E+00 0.  1.
        -11    1    4    4    0    0  0.28787749075E-01 -0.19723315144E-01 -0.90728695771E-01  0.97209572647E-01  0.51100000000E-03 0. -1.
         11    1    4    4    0    0  0.57012433255E-02 -0.15303959825E-01 -0.28211111317E-01  0.32601277345E-01  0.51100000000E-03 0.  1.
</event>
<event>
 8    1  0.1177602E+005  0.1043930E+01  0.7957747E-01            NaN
         13   -1    0    0    0    0  0.00000000000E+00  0.00000000000E+00  0.74505805969E-08  0.10566000000E+00  0.10566000000E+00 0.  1.
     999900   -1    0    0    0    0 -0.00000000000E+00 -0.00000000000E+00 -0.74505805969E-08  0.93827000000E+00  0.93827000000E+00 0. -1.
     999902    2    1    2    0    0 -0.12649562928E-01  0.19955004605E-01  0.12807320111E-02  0.10202687675E+01  0.10199943647E+01 0.  0.
     999903    2    3    3    0    0 -0.30734218594E-01 -0.37938353850E-01  0.11940904592E+00  0.13030641192E+00  0.18366541715E-01 0.  0.
         14    1    1    2    0    0  0.12649562928E-01 -0.19955004605E-01 -0.12807320111E-02  0.23661232545E-01  0.00000000000E+00 0. -1.
     999901    1    3    3    0    0  0.18084655665E-01  0.57893358456E-01 -0.11812831391E+00  0.88996235554E+00  0.88000000000E+00 0. -1.
        -11    1    4    4    0    0 -0.32737995826E-01 -0.33252559697E-01  0.11163898034E+00  0.12100013284E+00  0.51100000000E-03 0.  1.
         11    1    4    4    0    0  0.20037772319E-02 -0.46857941534E-02  0.77700655832E-02  0.93062790744E-02  0.51100000000E-03 0. -1.
</event>
<event>
 8    1  0.1177602E+005  0.1043930E+01  0.7957747E-01            NaN
         13   -1    0    0    0    0  0.00000000000E+00  0.00000000000E+00  0.74505805969E-08  0.10566000000E+00  0.10566000000E+00 0. -1.
     999900   -1    0    0    0    0 -0.00000000000E+00 -0.00000000000E+00 -0.74505805969E-08  0.93827000000E+00  0.93827000000E+00 0.  1.
     999902    2    1    2    0    0 -0.62049763628E-04  0.21967171822E-01  0.61983957764E-02  0.10211050006E+01  0.10208498624E+01 0.  0.
     999903    2    3    3    0    0 -0.30515768271E-01  0.12690685315E+00  0.25741517925E-01  0.13413166428E+00  0.17091405143E-01 0.  0.
         14    1    1    2    0    0  0.62049763628E-04 -0.21967171822E-01 -0.61983957764E-02  0.22824999413E-01  0.00000000000E+00 0.  1.
     999901    1    3    3    0    0  0.30453718507E-01 -0.10493968133E+00 -0.19543122149E-01  0.88697333630E+00  0.88000000000E+00 0.  1.
        -11    1    4    4    0    0 -0.22797763700E-01  0.11433419376E+00  0.19980172332E-01  0.11828573160E+00  0.51100000000E-03 0.  1.
         11    1    4    4    0    0 -0.77180045713E-02  0.12572659385E-01  0.57613455931E-02  0.15845932684E-01  0.51100000000E-03 0. -1.
</event>
<event>
 8    1  0.1177602E+005  0.1043930E+01  0.7957747E-01            NaN
         13   -1    0    0    0    0  0.00000000000E+00  0.00000000000E+00  0.74505805969E-08  0.10566000000E+00  0.10566000000E+00 0. -1.
     999900   -1    0    0    0    0 -0.00000000000E+00 -0.00000000000E+00 -0.74505805969E-08  0.93827000000E+00  0.93827000000E+00 0.  1.
     999902    2    1    2    0    0 -0.18144101525E-01 -0.64675719064E-02 -0.14005520319E-01  0.10201141963E+01  0.10198361540E+01 0.  0.
     999903    2    3    3    0    0  0.88210804235E-01  0.76480278322E-01  0.47949882579E-01  0.12768482442E+00  0.19335050884E-01 0.  0.
         14    1    1    2    0    0  0.18144101525E-01  0.64675719064E-02  0.14005520319E-01  0.23815803701E-01  0.00000000000E+00 0. -1.
     999901    1    3    3    0    0 -0.10635490576E+00 -0.82947850229E-01 -0.61955402899E-01  0.89242937187E+00  0.88000000000E+00 0.  1.
        -11    1    4    4    0    0  0.27110790247E-01  0.35796147440E-01  0.16926547677E-01  0.47990918481E-01  0.51100000000E-03 0.  1.
         11    1    4    4    0    0  0.61100013988E-01  0.40684130882E-01  0.31023334902E-01  0.79693905943E-01  0.51100000000E-03 0. -1.
</event>
<event>
 8    1  0.1177602E+005  0.1043930E+01  0.7957747E-01            NaN
         13   -1    0    0    0    0  0.00000000000E+00  0.00000000000E+00  0.74505805969E-08  0.10566000000E+00  0.10566000000E+00 0.  1.
     999900   -1    0    0    0    0 -0.00000000000E+00 -0.00000000000E+00 -0.74505805969E-08  0.93827000000E+00  0.93827000000E+00 0. -1.
     999902    2    1    2    0    0 -0.10605602543E-01 -0.21253445499E-01  0.43998535682E-02  0.10197732936E+01  0.10194871377E+01 0.  0.
     999903    2    3    3    0    0 -0.94973044758E-01 -0.40474862177E-01 -0.79171851787E-01  0.13158887692E+00  0.19732123927E-01 0.  0.
         14    1    1    2    0    0  0.10605602543E-01  0.21253445499E-01 -0.43998535682E-02  0.24156706363E-01  0.00000000000E+00 0. -1.
     999901    1    3    3    0    0  0.84367442215E-01  0.19221416678E-01  0.83571705355E-01  0.88818441672E+00  0.88000000000E+00 0.  1.
        -11    1    4    4    0    0 -0.16197066485E-01 -0.97045492455E-03 -0.18404678997E-01  0.24541395141E-01  0.51100000000E-03 0. -1.
         11    1    4    4    0    0 -0.78775978273E-01 -0.39504407252E-01 -0.60767172790E-01  0.10704748178E+00  0.51100000000E-03 0.  1.
</event>
<event>
 8    1  0.1177602E+005  0.1043930E+01  0.7957747E-01            NaN
         13   -1    0    0    0    0  0.00000000000E+00  0.00000000000E+00  0.74505805969E-08  0.10566000000E+00  0.10566000000E+00 0. -1.
     999900   -1    0    0    0    0 -0.00000000000E+00 -0.00000000000E+00 -0.74505805969E-08  0.93827000000E+00  0.93827000000E+00 0.  1.
     999902    2    1    2    0    0 -0.55743152872E-02 -0.23226323585E-01 -0.45398775129E-02  0.10196165143E+01  0.10193265869E+01 0.  0.
     999903    2    3    3    0    0 -0.41657478519E-01 -0.73326353478E-01  0.98823054872E-01  0.13141839258E+00  0.19816611810E-01 0.  0.
         14    1    1    2    0    0  0.55743152872E-02  0.23226323585E-01  0.45398775129E-02  0.24313485682E-01  0.00000000000E+00 0. -1.
     999901    1    3    3    0    0  0.36083163232E-01  0.50100029894E-01 -0.10336293238E+00  0.88819812174E+00  0.88000000000E+00 0. -1.
        -11    1    4    4    0    0 -0.79617924058E-02 -0.30218489909E-01  0.43919712709E-01  0.53905004927E-01  0.51100000000E-03 0. -1.
         11    1    4    4    0    0 -0.33695686113E-01 -0.43107863570E-01  0.54903342162E-01  0.77513387655E-01  0.51100000000E-03 0.  1.
</event>
<event>
 8    1  0.1177602E+005  0.1043930E+01  0.7957747E-01            NaN
         13   -1    0    0    0    0  0.00000000000E+00  0.00000000000E+00  0.74505805969E-08  0.10566000000E+00  0.10566000000E+00 0.  1.
     999900   -1    0    0    0    0 -0.00000000000E+00 -0.00000000000E+00 -0.74505805969E-08  0.93827000000E+00  0.93827000000E+00 0.  1.
     999902    2    1    2    0    0  0.26208047978E-01  0.65040383238E-02 -0.16558691663E-01  0.10122542275E+01  0.10117585021E+01 0.  0.
     999903    2    3    3    0    0 -0.68277116444E-01  0.93179444504E-01 -0.37389357626E-01  0.12271839969E+00  0.17823244660E-01 0.  0.
         14    1    1    2    0    0 -0.26208047978E-01 -0.65040383238E-02  0.16558691663E-01  0.31675772491E-01  0.00000000000E+00 0.  1.
     999901    1    3    3    0    0  0.94485164422E-01 -0.86675406180E-01  0.20830665963E-01  0.88953582782E+00  0.88000000000E+00 0. -1.
        -11    1    4    4    0    0 -0.20082246120E-01  0.17154649513E-01 -0.40397882813E-02  0.26723765069E-01  0.51100000000E-03 0. -1.
         11    1    4    4    0    0 -0.48194870325E-01  0.76024794991E-01 -0.33349569345E-01  0.95994634619E-01  0.51100000000E-03 0.  1.
</event>
<event>
 7    1  0.1177602E+005  0.1043930E+01  0.7957747E-01            NaN
         13   -1    0    0    0    0  0.00000000000E+00  0.00000000000E+00  0.74505805969E-08  0.10566000000E+00  0.10566000000E+00 0. -1.
     999900   -1    0    0    0    0 -0.00000000000E+00 -0.00000000000E+00 -0.74505805969E-08  0.93827000000E+00  0.93827000000E+00 0.  1.
     999903    2    1    2    0    0  0.26598600821E-02  0.56630422637E-01  0.62945222391E-01  0.86900218018E-01  0.19376977218E-01 0.  0.
         14    1    1    2    0    0  0.58006678096E-01 -0.21612103236E-01  0.31056126584E-01  0.69255618606E-01  0.00000000000E+00 0. -1.
     999901    1    1    2    0    0 -0.60666538178E-01 -0.35018319401E-01 -0.94001348976E-01  0.88777416338E+00  0.88000000000E+00 0.  1.
        -11    1    3    3    0    0 -0.39201044825E-02  0.48828368961E-01  0.46529182528E-01  0.67563324239E-01  0.51100000000E-03 0. -1.
         11    1    3    3    0    0  0.65799645647E-02  0.78020536757E-02  0.16416039863E-01  0.19336893779E-01  0.51100000000E-03 0.  1.
</event>
<event>
 8    1  0.1177602E+005  0.1043930E+01  0.7957747E-01            NaN
         13   -1    0    0    0    0  0.00000000000E+00  0.00000000000E+00  0.74505805969E-08  0.10566000000E+00  0.10566000000E+00 0. -1.
     999900   -1    0    0    0    0 -0.00000000000E+00 -0.00000000000E+00 -0.74505805969E-08  0.93827000000E+00  0.93827000000E+00 0.  1.
     999902    2    1    2    0    0  0.96407993865E-02  0.17160987547E-01  0.13934948651E-01  0.10198130495E+01  0.10195278460E+01 0.  0.
     999903    2    3    3    0    0  0.10893965596E+00 -0.66246723694E-01 -0.13472497452E-01  0.12988705411E+00  0.20800519162E-01 0.  0.
         14    1    1    2    0    0 -0.96407993865E-02 -0.17160987547E-01 -0.13934948651E-01  0.24116950477E-01  0.00000000000E+00 0.  1.
     999901    1    3    3    0    0 -0.99298856571E-01  0.83407711241E-01  0.27407446102E-01  0.88992599541E+00  0.88000000000E+00 0. -1.
        -11    1    4    4    0    0  0.39121089506E-01 -0.25014815638E-01  0.50522938663E-02  0.46711748414E-01  0.51100000000E-03 0.  1.
         11    1    4    4    0    0  0.69818566452E-01 -0.41231908055E-01 -0.18524791318E-01  0.83175305696E-01  0.51100000000E-03 0. -1.
</event>
<event>
 8    1  0.1177602E+005  0.1043930E+01  0.7957747E-01            NaN
         13   -1    0    0    0    0  0.00000000000E+00  0.00000000000E+00  0.74505805969E-08  0.10566000000E+00  0.10566000000E+00 0.  1.
     999900   -1    0    0    0    0 -0.00000000000E+00 -0.00000000000E+00 -0.74505805969E-08  0.93827000000E+00  0.93827000000E+00 0. -1.
     999902    2    1    2    0    0  0.12559883620E-01 -0.12366468903E-01  0.16742820272E-01  0.10196194619E+01  0.10193296056E+01 0.  0.
     999903    2    3    3    0    0 -0.56676010993E-01  0.39602582882E-01 -0.10467937369E+00  0.12707381010E+00  0.20234800310E-01 0.  0.
         14    1    1    2    0    0 -0.12559883620E-01  0.12366468903E-01 -0.16742820272E-01  0.24310538051E-01  0.00000000000E+00 0. -1.
     999901    1    3    3    0    0  0.69235894613E-01 -0.51969051785E-01  0.12142219396E+00  0.89254565185E+00  0.88000000000E+00 0.  1.
        -11    1    4    4    0    0 -0.71926644023E-02  0.67412863007E-02 -0.30400345301E-01  0.31962813981E-01  0.51100000000E-03 0.  1.
         11    1    4    4    0    0 -0.49483346591E-01  0.32861296582E-01 -0.74279028393E-01  0.95110996119E-01  0.51100000000E-03 0. -1.
</event>
<event>
 8    1  0.1177602E+005  0.1043930E+01  0.7957747E-01            NaN
         13   -1    0    0    0    0  0.00000000000E+00  0.00000000000E+00  0.74505805969E-08  0.10566000000E+00  0.10566000000E+00 0.  1.
     999900   -1    0    0    0    0 -0.00000000000E+00 -0.00000000000E+00 -0.74505805969E-08  0.93827000000E+00  0.93827000000E+00 0. -1.
     999902    2    1    2    0    0 -0.22865899006E-01 -0.91367658472E-02 -0.41013983694E-02  0.10189670015E+01  0.10186611796E+01 0.  0.
     999903    2    3    3    0    0 -0.53033920690E-01 -0.11873274064E+00 -0.33533851822E-02  0.13165536131E+00  0.20293558715E-01 0.  0.
         14    1    1    2    0    0  0.22865899006E-01  0.91367658472E-02  0.41013983694E-02  0.24962998539E-01  0.00000000000E+00 0. -1.
     999901    1    3    3    0    0  0.30168021685E-01  0.10959597479E+00 -0.74801318716E-03  0.88731164015E+00  0.88000000000E+00 0. -1.
        -11    1    4    4    0    0  0.37696277365E-03 -0.93215081436E-02  0.27800250074E-02  0.97479369636E-02  0.51100000000E-03 0. -1.
         11    1    4    4    0    0 -0.53410883464E-01 -0.10941123250E+00 -0.61334101896E-02  0.12190742435E+00  0.51100000000E-03 0.  1.
</event>
<event>
 8    1  0.1177602E+005  0.1043930E+01  0.7957747E-01            NaN
         13   -1    0    0    0    0  0.00000000000E+00  0.00000000000E+00  0.74505805969E-08  0.10566000000E+00  0.10566000000E+00 0.  1.
     999900   -1    0    0    0    0 -0.00000000000E+00 -0.00000000000E+00 -0.74505805969E-08  0.93827000000E+00  0.93827000000E+00 0.  1.
     999902    2    1    2    0    0 -0.14509153765E-01 -0.24679163764E-01 -0.50206573814E-03  0.10152973484E+01  0.10148935299E+01 0.  0.
     999903    2    3    3    0    0 -0.91669584389E-01  0.62928179776E-01  0.55197701958E-01  0.12584176053E+00  0.20642041538E-01 0.  0.
         14    1    1    2    0    0  0.14509153765E-01  0.24679163764E-01  0.50206573814E-03  0.28632651590E-01  0.00000000000E+00 0. -1.
     999901    1    3    3    0    0  0.77160430624E-01 -0.87607343540E-01 -0.55699767696E-01  0.88945558788E+00  0.88000000000E+00 0.  1.
        -11    1    4    4    0    0 -0.57288723882E-01  0.37084866050E-01  0.44646653292E-01  0.81552865953E-01  0.51100000000E-03 0. -1.
         11    1    4    4    0    0 -0.34380860507E-01  0.25843313727E-01  0.10551048666E-01  0.44288894573E-01  0.51100000000E-03 0.  1.
</event>
<event>
 8    1  0.1177602E+005  0.1043930E+01  0.7957747E-01            NaN
         13   -1    0    0    0    0  0.00000000000E+00  0.00000000000E+00  0.74505805969E-08  0.10566000000E+00  0.10566000000E+00 0.  1.
     999900   -1    0    0    0    0 -0.00000000000E+00 -0.00000000000E+00 -0.74505805969E-08  0.93827000000E+00  0.93827000000E+00 0.  1.
     999902    2    1    2    0    0  0.14282982801E-01 -0.16137145431E-01  0.86086776554E-02  0.10207239579E+01  0.10204601304E+01 0.  0.
     999903    2    3    3    0    0  0.22805966179E-01 -0.82302621914E-01  0.10061986516E+00  0.13341534744E+00  0.19531103363E-01 0.  0.
         14    1    1    2    0    0 -0.14282982801E-01  0.16137145431E-01 -0.86086776554E-02  0.23206042129E-01  0.00000000000E+00 0. -1.
     999901    1    3    3    0    0 -0.85229833785E-02  0.66165476484E-01 -0.92011187509E-01  0.88730861043E+00  0.88000000000E+00 0.  1.
        -11    1    4    4    0    0  0.16715397302E-01 -0.25603970258E-01  0.35011266072E-01  0.46486747283E-01  0.51100000000E-03 0. -1.
         11    1    4    4    0    0  0.60905688773E-02 -0.56698651656E-01  0.65608599092E-01  0.86928600153E-01  0.51100000000E-03 0.  1.
</event>
<event>
 8    1  0.1177602E+005  0.1043930E+01  0.7957747E-01            NaN
         13   -1    0    0    0    0  0.00000000000E+00  0.00000000000E+00  0.74505805969E-08  0.10566000000E+00  0.10566000000E+00 0.  1.
     999900   -1    0    0    0    0 -0.00000000000E+00 -0.00000000000E+00 -0.74505805969E-08  0.93827000000E+00  0.93827000000E+00 0.  1.
     999902    2    1    2    0    0  0.83722456157E-03  0.47678071579E-02 -0.13131261261E-01  0.10299348954E+01  0.10298398059E+01 0.  0.
     999903    2    3    3    0    0  0.96608456489E-01 -0.55472255458E-01  0.78989160382E-01  0.13792191003E+00  0.19308050602E-01 0.  0.
         14    1    1    2    0    0 -0.83722456157E-03 -0.47678071579E-02  0.13131261261E-01  0.13995104586E-01  0.00000000000E+00 0.  1.
     999901    1    3    3    0    0 -0.95771231927E-01  0.60240062616E-01 -0.92120421643E-01  0.89201298538E+00  0.88000000000E+00 0.  1.
        -11    1    4    4    0    0  0.16125890410E-01 -0.21902241425E-02  0.82504368565E-02  0.18253006674E-01  0.51100000000E-03 0. -1.
         11    1    4    4    0    0  0.80482566079E-01 -0.53282031315E-01  0.70738723525E-01  0.11966890336E+00  0.51100000000E-03 0.  1.
</event>
<event>
 8    1  0.1177602E+005  0.1043930E+01  0.7957747E-01            NaN
         13   -1    0    0    0    0  0.00000000000E+00  0.00000000000E+00  0.74505805969E-08  0.10566000000E+00  0.10566000000E+00 0. -1.
     999900   -1    0    0    0    0 -0.00000000000E+00 -0.00000000000E+00 -0.74505805969E-08  0.93827000000E+00  0.93827000000E+00 0. -1.
     999902    2    1    2    0    0 -0.12237980140E-01 -0.52355562809E-02 -0.19191102480E-01  0.10205745376E+01  0.10203072622E+01 0.  0.
     999903    2    3    3    0    0  0.10668243716E+00 -0.12422361888E-01  0.66934855821E-01  0.12837982990E+00  0.21578886166E-01 0.  0.
         14    1    1    2    0    0  0.12237980140E-01  0.52355562809E-02  0.19191102480E-01  0.23355462356E-01  0.00000000000E+00 0. -1.
     999901    1    3    3    0    0 -0.11892041730E+00  0.71868056067E-02 -0.86125958301E-01  0.89219470774E+00  0.88000000000E+00 0.  1.
        -11    1    4    4    0    0  0.67906941916E-01 -0.11553435117E-01  0.31130120503E-01  0.75592196336E-01  0.51100000000E-03 0.  1.
         11    1    4    4    0    0  0.38775495248E-01 -0.86892677025E-03  0.35804735318E-01  0.52787633567E-01  0.51100000000E-03 0. -1.
</event>
<event>
 8    1  0.1177602E+005  0.1043930E+01  0.7957747E-01            NaN
         13   -1    0    0    0    0  0.00000000000E+00  0.00000000000E+00  0.74505805969E-08  0.10566000000E+00  0.10566000000E+00 0.  1.
     999900   -1    0    0    0    0 -0.00000000000E+00 -0.00000000000E+00 -0.74505805969E-08  0.93827000000E+00  0.93827000000E+00 0. -1.
     999902    2    1    2    0    0 -0.17708897421E-01 -0.46673848147E-02  0.15046543349E-01  0.10202279327E+01  0.10199525708E+01 0.  0.
     999903    2    3    3    0    0 -0.45266379060E-01 -0.41256315996E-01 -0.11265908486E+00  0.12983089081E+00  0.20319008926E-01 0.  0.
         14    1    1    2    0    0  0.17708897421E-01  0.46673848147E-02 -0.15046543349E-01  0.23702067328E-01  0.00000000000E+00 0.  1.
     999901    1    3    3    0    0  0.27557481639E-01  0.36588931181E-01  0.12770562821E+00  0.89039704186E+00  0.88000000000E+00 0.  1.
        -11    1    4    4    0    0 -0.18536259013E-01 -0.26622757787E-01 -0.72393235924E-01  0.79330989272E-01  0.51100000000E-03 0. -1.
         11    1    4    4    0    0 -0.26730120047E-01 -0.14633558208E-01 -0.40265848939E-01  0.50499901538E-01  0.51100000000E-03 0.  1.
</event>
<event>
 8    1  0.1177602E+005  0.1043930E+01  0.7957747E-01            NaN
         13   -1    0    0    0    0  0.00000000000E+00  0.00000000000E+00  0.74505805969E-08  0.10566000000E+00  0.10566000000E+00 0. -1.
     999900   -1    0    0    0    0 -0.00000000000E+00 -0.00000000000E+00 -0.74505805969E-08  0.93827000000E+00  0.93827000000E+00 0.  1.
     999902    2    1    2    0    0 -0.22204932664E-01  0.56047665600E-03  0.62463059633E-02  0.10208564327E+01  0.10205956431E+01 0.  0.
     999903    2    3    3    0    0  0.80334588392E-02 -0.11782789002E+00  0.53155875026E-01  0.13117633665E+00  0.20826332357E-01 0.  0.
         14    1    1    2    0    0  0.22204932664E-01 -0.56047665600E-03 -0.62463059633E-02  0.23073567277E-01  0.00000000000E+00 0. -1.
     999901    1    3    3    0    0 -0.30238391503E-01  0.11838836667E+00 -0.46909569063E-01  0.88968009608E+00  0.88000000000E+00 0.  1.
        -11    1    4    4    0    0  0.87011991898E-03 -0.99539916037E-01  0.49569897433E-01  0.11120426181E+00  0.51100000000E-03 0.  1.
         11    1    4    4    0    0  0.71633389202E-02 -0.18287973981E-01  0.35859775935E-02  0.19972074832E-01  0.51100000000E-03 0. -1.
</event>
<event>
 8    1  0.1177602E+005  0.1043930E+01  0.7957747E-01            NaN
         13   -1    0    0    0    0  0.00000000000E+00  0.00000000000E+00  0.74505805969E-08  0.10566000000E+00  0.10566000000E+00 0. -1.
     999900   -1    0    0    0    0 -0.00000000000E+00 -0.00000000000E+00 -0.74505805969E-08  0.93827000000E+00  0.93827000000E+00 0. -1.
     999902    2    1    2    0    0 -0.62711585173E-02  0.21706892417E-01 -0.77112386571E-02  0.10200557501E+01  0.10197763252E+01 0.  0.
     999903    2    3    3    0    0 -0.82083407888E-01  0.99782816079E-01  0.22904940703E-01  0.13282370746E+00  0.20571940120E-01 0.  0.
         14    1    1    2    0    0  0.62711585173E-02 -0.21706892417E-01  0.77112386571E-02  0.23874249919E-01  0.00000000000E+00 0. -1.
     999901    1    3    3    0    0  0.75812249371E-01 -0.78075923662E-01 -0.30616179360E-01  0.88723204262E+00  0.88000000000E+00 0.  1.
        -11    1    4    4    0    0 -0.54483226606E-01  0.62779766976E-01  0.24401879625E-01  0.86633907757E-01  0.51100000000E-03 0.  1.
         11    1    4    4    0    0 -0.27600181282E-01  0.37003049103E-01 -0.14969389219E-02  0.46189799706E-01  0.51100000000E-03 0. -1.
</event>
<event>
 8    1  0.1177602E+005  0.1043930E+01  0.7957747E-01            NaN
         13   -1    0    0    0    0  0.00000000000E+00  0.00000000000E+00  0.74505805969E-08  0.10566000000E+00  0.10566000000E+00 0. -1.
     999900   -1    0    0    0    0 -0.00000000000E+00 -0.00000000000E+00 -0.74505805969E-08  0.93827000000E+00  0.93827000000E+00 0. -1.
     999902    2    1    2    0    0  0.12390596820E-01  0.68060675748E-03 -0.19745894858E-01  0.10206085404E+01  0.10203420516E+01 0.  0.
     999903    2    3    3    0    0 -0.32329235009E-01  0.12485532518E+00 -0.11335243991E-01  0.13072654646E+00  0.18080667314E-01 0.  0.
         14    1    1    2    0    0 -0.12390596820E-01 -0.68060675748E-03  0.19745894858E-01  0.23321459622E-01  0.00000000000E+00 0. -1.
     999901    1    3    3    0    0  0.44719831829E-01 -0.12417471842E+00 -0.84106508669E-02  0.88988199392E+00  0.88000000000E+00 0. -1.
        -11    1    4    4    0    0 -0.24529479287E-01  0.10526618478E+00 -0.32425634804E-02  0.10813621203E+00  0.51100000000E-03 0. -1.
         11    1    4    4    0    0 -0.77997557217E-02  0.19589140397E-01 -0.80926805111E-02  0.22590334430E-01  0.51100000000E-03 0.  1.
</event>
<event>
 8    1  0.1177602E+005  0.1043930E+01  0.7957747E-01            NaN
         13   -1    0    0    0    0  0.00000000000E+00  0.00000000000E+00  0.74505805969E-08  0.10566000000E+00  0.10566000000E+00 0. -1.
     999900   -1    0    0    0    0 -0.00000000000E+00 -0.00000000000E+00 -0.74505805969E-08  0.93827000000E+00  0.93827000000E+00 0. -1.
     999902    2    1    2    0    0  0.48484046539E-02 -0.16581061711E-01 -0.17530611264E-01  0.10193177883E+01  0.10190206046E+01 0.  0.
     999903    2    3    3    0    0  0.42227047427E-01 -0.48371500527E-01  0.11065749260E+00  0.12867757757E+00  0.13780881832E-01 0.  0.
         14    1    1    2    0    0 -0.48484046539E-02  0.16581061711E-01  0.17530611264E-01  0.24612211734E-01  0.00000000000E+00 0. -1.
     999901    1    3    3    0    0 -0.37378642773E-01  0.31790438816E-01 -0.12818810386E+00  0.89064021070E+00  0.88000000000E+00 0. -1.
        -11    1    4    4    0    0  0.24101125804E-01 -0.26710109947E-01  0.48379099984E-01  0.60291729737E-01  0.51100000000E-03 0. -1.
         11    1    4    4    0    0  0.18125921623E-01 -0.21661390580E-01  0.62278392613E-01  0.68385847834E-01  0.51100000000E-03 0.  1.
</event>
<event>
 8    1  0.1177602E+005  0.1043930E+01  0.7957747E-01            NaN
         13   -1    0    0    0    0  0.00000000000E+00  0.00000000000E+00  0.74505805969E-08  0.10566000000E+00  0.10566000000E+00 0. -1.
     999900   -1    0    0    0    0 -0.00000000000E+00 -0.00000000000E+00 -0.74505805969E-08  0.93827000000E+00  0.93827000000E+00 0.  1.
     999902    2    1    2    0    0  0.14314164203E-01  0.17872766198E-01  0.21948638697E-04  0.10210317129E+01  0.10207749151E+01 0.  0.
     999903    2    3    3    0    0  0.10011332408E+00  0.81550781713E-01 -0.29778249038E-01  0.13406810756E+00  0.20354500558E-01 0.  0.
         14    1    1    2    0    0 -0.14314164203E-01 -0.17872766198E-01 -0.21948638697E-04  0.22898287057E-01  0.00000000000E+00 0. -1.
     999901    1    3    3    0    0 -0.85799159873E-01 -0.63678015515E-01  0.29800197676E-01  0.88696360538E+00  0.88000000000E+00 0. -1.
        -11    1    4    4    0    0  0.72027760513E-01  0.62900238932E-01 -0.13331244266E-01  0.96552687880E-01  0.51100000000E-03 0.  1.
         11    1    4    4    0    0  0.28085563563E-01  0.18650542782E-01 -0.16447004771E-01  0.37515419678E-01  0.51100000000E-03 0. -1.
</event>
<event>
 8    1  0.1258428E+005  0.1043930E+01  0.7957747E-01            NaN
         13   -1    0    0    0    0  0.00000000000E+00  0.00000000000E+00  0.74505805969E-08  0.10566000000E+00  0.10566000000E+00 0. -1.
     999900   -1    0    0    0    0 -0.00000000000E+00 -0.00000000000E+00 -0.74505805969E-08  0.93827000000E+00  0.93827000000E+00 0.  1.
     999902    2    1    2    0    0 -0.20415444220E-01  0.57728297277E-02 -0.12338780974E-01  0.10193869472E+01  0.10190914516E+01 0.  0.
     999903    2    3    3    0    0 -0.44795068554E-01  0.12120569345E+00  0.10790275763E-01  0.13121237798E+00  0.20070869273E-01 0.  0.
         14    1    1    2    0    0  0.20415444220E-01 -0.57728297277E-02  0.12338780974E-01  0.24543052819E-01  0.00000000000E+00 0. -1.
     999901    1    3    3    0    0  0.24379624334E-01 -0.11543286372E+00 -0.23129056737E-01  0.88817456920E+00  0.88000000000E+00 0. -1.
        -11    1    4    4    0    0 -0.93283111086E-02  0.53687936165E-01  0.39142718272E-02  0.54635103392E-01  0.51100000000E-03 0. -1.
         11    1    4    4    0    0 -0.35466757446E-01  0.67517757283E-01  0.68760039358E-02  0.76577274588E-01  0.51100000000E-03 0.  1.
</event>
<event>
 8    1  0.1177602E+005  0.1043930E+01  0.7957747E-01            NaN
         13   -1    0    0    0    0  0.00000000000E+00  0.00000000000E+00  0.74505805969E-08  0.10566000000E+00  0.10566000000E+00 0.  1.
     999900   -1    0    0    0    0 -0.00000000000E+00 -0.00000000000E+00 -0.74505805969E-08  0.93827000000E+00  0.93827000000E+00 0. -1.
     999902    2    1    2    0    0 -0.11029412432E-01 -0.20846052939E-01  0.17783500787E-02  0.10202790298E+01  0.10200048678E+01 0.  0.
     999903    2    3    3    0    0 -0.28126466400E-01  0.12255819278E+00  0.16604235304E-01  0.12838391613E+00  0.19877639735E-01 0.  0.
         14    1    1    2    0    0  0.11029412432E-01  0.20846052939E-01 -0.17783500787E-02  0.23650970186E-01  0.00000000000E+00 0.  1.
     999901    1    3    3    0    0  0.17097053967E-01 -0.14340424572E+00 -0.14825885225E-01  0.89189511369E+00  0.88000000000E+00 0. -1.
        -11    1    4    4    0    0 -0.25275782974E-01  0.68696910181E-01  0.12791354605E-01  0.74310231778E-01  0.51100000000E-03 0.  1.
         11    1    4    4    0    0 -0.28506834256E-02  0.53861282597E-01  0.38128806989E-02  0.54073684350E-01  0.51100000000E-03 0. -1.
</event>
<event>
 8    1  0.1177602E+005  0.1043930E+01  0.7957747E-01            NaN
         13   -1    0    0    0    0  0.00000000000E+00  0.00000000000E+00  0.74505805969E-08  0.10566000000E+00  0.10566000000E+00 0. -1.
     999900   -1    0    0    0    0 -0.00000000000E+00 -0.00000000000E+00 -0.74505805969E-08  0.93827000000E+00  0.93827000000E+00 0.  1.
     999902    2    1    2    0    0 -0.10413127904E-01  0.62787976988E-02 -0.20050578337E-01  0.10204804323E+01  0.10202109735E+01 0.  0.
     999903    2    3    3    0    0  0.70783148439E-02  0.11311785112E+00  0.60446169683E-01  0.13019943153E+00  0.21269738082E-01 0.  0.
         14    1    1    2    0    0  0.10413127904E-01 -0.62787976988E-02  0.20050578337E-01  0.23449567692E-01  0.00000000000E+00 0. -1.
     999901    1    3    3    0    0 -0.17491442748E-01 -0.10683905342E+00 -0.80496748019E-01  0.89028100078E+00  0.88000000000E+00 0.  1.
        -11    1    4    4    0    0  0.12793637264E-01  0.96381055837E-01  0.47089704573E-01  0.10803095147E+00  0.51100000000E-03 0.  1.
         11    1    4    4    0    0 -0.57153224199E-02  0.16736795285E-01  0.13356465109E-01  0.22168480056E-01  0.51100000000E-03 0. -1.
</event>
<event>
 8    1  0.1177602E+005  0.1043930E+01  0.7957747E-01            NaN
         13   -1    0    0    0    0  0.00000000000E+00  0.00000000000E+00  0.74505805969E-08  0.10566000000E+00  0.10566000000E+00 0.  1.
     999900   -1    0    0    0    0 -0.00000000000E+00 -0.00000000000E+00 -0.74505805969E-08  0.93827000000E+00  0.93827000000E+00 0. -1.
     999902    2    1    2    0    0 -0.10912186611E-01  0.25040392571E-02  0.19821501395E-01  0.10211651599E+01  0.10209113800E+01 0.  0.
     999903    2    3    3    0    0 -0.95527090007E-01  0.29282366118E-01 -0.81912064090E-01  0.13086943426E+00  0.20840841863E-01 0.  0.
         14    1    1    2    0    0  0.10912186611E-01 -0.25040392571E-02 -0.19821501395E-01  0.22764840144E-01  0.00000000000E+00 0. -1.
     999901    1    3    3    0    0  0.84614903396E-01 -0.26778326861E-01  0.10173356549E+00  0.89029572559E+00  0.88000000000E+00 0.  1.
        -11    1    4    4    0    0 -0.29670093874E-01  0.11744692737E-01 -0.38738511304E-01  0.50191489887E-01  0.51100000000E-03 0. -1.
         11    1    4    4    0    0 -0.65856996132E-01  0.17537673381E-01 -0.43173552786E-01  0.80677944374E-01  0.51100000000E-03 0.  1.
</event>
<event>
 8    1  0.1177602E+005  0.1043930E+01  0.7957747E-01            NaN
         13   -1    0    0    0    0  0.00000000000E+00  0.00000000000E+00  0.74505805969E-08  0.10566000000E+00  0.10566000000E+00 0. -1.
     999900   -1    0    0    0    0 -0.00000000000E+00 -0.00000000000E+00 -0.74505805969E-08  0.93827000000E+00  0.93827000000E+00 0.  1.
     999902    2    1    2    0    0 -0.19155807414E-01  0.95406839177E-02 -0.14026639755E-01  0.10183425767E+01  0.10180210643E+01 0.  0.
     999903    2    3    3    0    0 -0.10759268899E+00 -0.69842211113E-01 -0.11283406186E-01  0.13035031810E+00  0.20242751688E-01 0.  0.
         14    1    1    2    0    0  0.19155807414E-01 -0.95406839177E-02  0.14026639755E-01  0.25587423280E-01  0.00000000000E+00 0. -1.
     999901    1    3    3    0    0  0.88436881573E-01  0.79382895030E-01 -0.27432335690E-02  0.88799225862E+00  0.88000000000E+00 0. -1.
        -11    1    4    4    0    0 -0.74294892375E-01 -0.42495000912E-01  0.80719429996E-03  0.85594794346E-01  0.51100000000E-03 0.  1.
         11    1    4    4    0    0 -0.33297796612E-01 -0.27347210201E-01 -0.12090600486E-01  0.44755523750E-01  0.51100000000E-03 0. -1.
</event>
<event>
 8    1  0.1177602E+005  0.1043930E+01  0.7957747E-01            NaN
         13   -1    0    0    0    0  0.00000000000E+00  0.00000000000E+00  0.74505805969E-08  0.10566000000E+00  0.10566000000E+00 0.  1.
     999900   -1    0    0    0    0 -0.00000000000E+00 -0.00000000000E+00 -0.74505805969E-08  0.93827000000E+00  0.93827000000E+00 0. -1.
     999902    2    1    2    0    0  0.10074865085E-01  0.21749606060E-01  0.18956696427E-02  0.10198854199E+01  0.10196019458E+01 0.  0.
     999903    2    3    3    0    0  0.32604703920E-01 -0.95744672376E-01 -0.76813853968E-01  0.12830946225E+00  0.18243928708E-01 0.  0.
         14    1    1    2    0    0 -0.10074865085E-01 -0.21749606060E-01 -0.18956696427E-02  0.24044580130E-01  0.00000000000E+00 0.  1.
     999901    1    3    3    0    0 -0.22529838835E-01  0.11749427844E+00  0.78709523611E-01  0.89157595762E+00  0.88000000000E+00 0. -1.
        -11    1    4    4    0    0  0.26899572676E-02 -0.30911738385E-01 -0.18576010688E-01  0.36167675266E-01  0.51100000000E-03 0. -1.
         11    1    4    4    0    0  0.29914746652E-01 -0.64832933991E-01 -0.58237843280E-01  0.92141786981E-01  0.51100000000E-03 0.  1.
</event>
<event>
 8    1  0.1177602E+005  0.1043930E+01  0.7957747E-01            NaN
         13   -1    0    0    0    0  0.00000000000E+00  0.00000000000E+00  0.74505805969E-08  0.10566000000E+00  0.10566000000E+00 0.  1.
     999900   -1    0    0    0    0 -0.00000000000E+00 -0.00000000000E+00 -0.74505805969E-08  0.93827000000E+00  0.93827000000E+00 0.  1.
     999902    2    1    2    0    0  0.84051840323E-02  0.11315636900E-01  0.19625489949E-01  0.10197669991E+01  0.10194806922E+01 0.  0.
     999903    2    3    3    0    0 -0.31878104675E-01 -0.10839874282E+00  0.59363425277E-01  0.12986061100E+00  0.23942870059E-01 0.  0.
         14    1    1    2    0    0 -0.84051840323E-02 -0.11315636900E-01 -0.19625489949E-01  0.24163000906E-01  0.00000000000E+00 0. -1.
     999901    1    3    3    0    0  0.40283288708E-01  0.11971437972E+00 -0.39737935329E-01  0.88990638809E+00  0.88000000000E+00 0. -1.
        -11    1    4    4    0    0 -0.33958590809E-02 -0.44013092547E-01  0.14916775216E-01  0.46598878509E-01  0.51100000000E-03 0. -1.
         11    1    4    4    0    0 -0.28482245595E-01 -0.64385650273E-01  0.44446650061E-01  0.83261732494E-01  0.51100000000E-03 0.  1.
</event>
<event>
 8    1  0.1177602E+005  0.1043930E+01  0.7957747E-01            NaN
         13   -1    0    0    0    0  0.00000000000E+00  0.00000000000E+00  0.74505805969E-08  0.10566000000E+00  0.10566000000E+00 0. -1.
     999900   -1    0    0    0    0 -0.00000000000E+00 -0.00000000000E+00 -0.74505805969E-08  0.93827000000E+00  0.93827000000E+00 0.  1.
     999902    2    1    2    0    0  0.26181362061E-02  0.13102716164E-01  0.19099664692E-01  0.10206204955E+01  0.10203542830E+01 0.  0.
     999903    2    3    3    0    0  0.74347183063E-01  0.83051101716E-01  0.70425963120E-01  0.13344958655E+00  0.20590938364E-01 0.  0.
         14    1    1    2    0    0 -0.26181362061E-02 -0.13102716164E-01 -0.19099664692E-01  0.23309504487E-01  0.00000000000E+00 0.  1.
     999901    1    3    3    0    0 -0.71729046857E-01 -0.69948385552E-01 -0.51326298428E-01  0.88717090897E+00  0.88000000000E+00 0.  1.
        -11    1    4    4    0    0  0.36670164845E-01  0.29545201393E-01  0.37443614900E-01  0.60165649111E-01  0.51100000000E-03 0. -1.
         11    1    4    4    0    0  0.37677018218E-01  0.53505900323E-01  0.32982348219E-01  0.73283937437E-01  0.51100000000E-03 0.  1.
</event>
<event>
 8    1  0.1177602E+005  0.1043930E+01  0.7957747E-01            NaN
         13   -1    0    0    0    0  0.00000000000E+00  0.00000000000E+00  0.74505805969E-08  0.10566000000E+00  0.10566000000E+00 0.  1.
     999900   -1    0    0    0    0 -0.00000000000E+00 -0.00000000000E+00 -0.74505805969E-08  0.93827000000E+00  0.93827000000E+00 0.  1.
     999902    2    1    2    0    0 -0.30521377097E-01 -0.11627604355E-01  0.51547577747E-02  0.10108645018E+01  0.10103235689E+01 0.  0.
     999903    2    3    3    0    0 -0.74893577935E-01  0.71058982856E-01 -0.64034788170E-01  0.12317471524E+00  0.20325582844E-01 0.  0.
         14    1    1    2    0    0  0.30521377097E-01  0.11627604355E-01 -0.51547577747E-02  0.33065498191E-01  0.00000000000E+00 0. -1.
     999901    1    3    3    0    0  0.44372200838E-01 -0.82686587210E-01  0.69189545945E-01  0.88768978657E+00  0.88000000000E+00 0. -1.
        -11    1    4    4    0    0 -0.34696263480E-01  0.19398530024E-01 -0.24943368255E-01  0.46931507620E-01  0.51100000000E-03 0.  1.
         11    1    4    4    0    0 -0.40197314455E-01  0.51660452831E-01 -0.39091419914E-01  0.76243207619E-01  0.51100000000E-03 0. -1.
</event>
<event>
 8    1  0.1177602E+005  0.1043930E+01  0.7957747E-01            NaN
         13   -1    0    0    0    0  0.00000000000E+00  0.00000000000E+00  0.74505805969E-08  0.10566000000E+00  0.10566000000E+00 0.  1.
     999900   -1    0    0    0    0 -0.00000000000E+00 -0.00000000000E+00 -0.74505805969E-08  0.93827000000E+00  0.93827000000E+00 0.  1.
     999902    2    1    2    0    0  0.73610584989E-02 -0.22348281174E-01  0.12466336912E-02  0.10203676370E+01  0.10200955493E+01 0.  0.
     999903    2    3    3    0    0 -0.12101263731E+00 -0.45191627719E-01  0.48134051607E-02  0.13075291923E+00  0.19667623440E-01 0.  0.
         14    1    1    2    0    0 -0.73610584989E-02  0.22348281174E-01 -0.12466336912E-02  0.23562362980E-01  0.00000000000E+00 0. -1.
     999901    1    3    3    0    0  0.12837369581E+00  0.22843346545E-01 -0.35667714694E-02  0.88961471779E+00  0.88000000000E+00 0.  1.
        -11    1    4    4    0    0 -0.93330161739E-01 -0.38358543576E-01 -0.37521376254E-02  0.10097641612E+00  0.51100000000E-03 0.  1.
         11    1    4    4    0    0 -0.27682475572E-01 -0.68330841428E-02  0.85655427861E-02  0.29776503101E-01  0.51100000000E-03 0. -1.
</event>
<event>
 8    1  0.1177602E+005  0.1043930E+01  0.7957747E-01            NaN
         13   -1    0    0    0    0  0.00000000000E+00  0.00000000000E+00  0.74505805969E-08  0.10566000000E+00  0.10566000000E+00 0. -1.
     999900   -1    0    0    0    0 -0.00000000000E+00 -0.00000000000E+00 -0.74505805969E-08  0.93827000000E+00  0.93827000000E+00 0. -1.
     999902    2    1    2    0    0  0.12364850174E-01  0.65633487553E-02 -0.19619628546E-01  0.10198281973E+01  0.10195433562E+01 0.  0.
     999903    2    3    3    0    0 -0.93956244405E-01 -0.74927662675E-01 -0.43269247778E-01  0.12937647795E+00  0.20594046377E-01 0.  0.
         14    1    1    2    0    0 -0.12364850174E-01 -0.65633487553E-02  0.19619628546E-01  0.24101802650E-01  0.00000000000E+00 0.  1.
     999901    1    3    3    0    0  0.10632109458E+00  0.81491011430E-01  0.23649619232E-01  0.89045171940E+00  0.88000000000E+00 0. -1.
        -11    1    4    4    0    0 -0.21710314409E-01 -0.73853733219E-02 -0.10066570380E-01  0.25049519976E-01  0.51100000000E-03 0.  1.
         11    1    4    4    0    0 -0.72245929996E-01 -0.67542289353E-01 -0.33202677399E-01  0.10432695797E+00  0.51100000000E-03 0. -1.
</event>
<event>
 8    1  0.1177602E+005  0.1043930E+01  0.7957747E-01            NaN
         13   -1    0    0    0    0  0.00000000000E+00  0.00000000000E+00  0.74505805969E-08  0.10566000000E+00  0.10566000000E+00 0. -1.
     999900   -1    0    0    0    0 -0.00000000000E+00 -0.00000000000E+00 -0.74505805969E-08  0.93827000000E+00  0.93827000000E+00 0.  1.
     999902    2    1    2    0    0  0.17215891794E-01 -0.25949779205E-02  0.16332458028E-01  0.10200580494E+01  0.10197786790E+01 0.  0.
     999903    2    3    3    0    0  0.10851512289E+00  0.48632773743E-01 -0.51640059552E-01  0.13124980501E+00  0.20472835306E-01 0.  0.
         14    1    1    2    0    0 -0.17215891794E-01  0.25949779205E-02 -0.16332458028E-01  0.23871950610E-01  0.00000000000E+00 0.  1.
     999901    1    3    3    0    0 -0.91299231097E-01 -0.51227751664E-01  0.67972517580E-01  0.88880824438E+00  0.88000000000E+00 0. -1.
        -11    1    4    4    0    0  0.77265598666E-01  0.30855203171E-01 -0.45319525451E-01  0.94742476261E-01  0.51100000000E-03 0. -1.
         11    1    4    4    0    0  0.31249524225E-01  0.17777570573E-01 -0.63205341007E-02  0.36507328745E-01  0.51100000000E-03 0.  1.
</event>
<event>
 8    1  0.1177602E+005  0.1043930E+01  0.7957747E-01            NaN
         13   -1    0    0    0    0  0.00000000000E+00  0.00000000000E+00  0.74505805969E-08  0.10566000000E+00  0.10566000000E+00 0.  1.
     999900   -1    0    0    0    0 -0.00000000000E+00 -0.00000000000E+00 -0.74505805969E-08  0.93827000000E+00  0.93827000000E+00 0.  1.
     999902    2    1    2    0    0 -0.21243055133E-01  0.14811768342E-02  0.74104403987E-02  0.10213828072E+01  0.10211339104E+01 0.  0.
     999903    2    3    3    0    0  0.61011909839E-01 -0.10148921865E+00 -0.48925394570E-01  0.12978732274E+00  0.20701214131E-01 0.  0.
         14    1    1    2    0    0  0.21243055133E-01 -0.14811768342E-02 -0.74104403987E-02  0.22547192799E-01  0.00000000000E+00 0.  1.
     999901    1    3    3    0    0 -0.82254964972E-01  0.10297039548E+00  0.56335834969E-01  0.89159548446E+00  0.88000000000E+00 0. -1.
        -11    1    4    4    0    0  0.46639649852E-02 -0.20302549143E-01 -0.39520181176E-02  0.21209093316E-01  0.51100000000E-03 0. -1.
         11    1    4    4    0    0  0.56347944853E-01 -0.81186669505E-01 -0.44973376453E-01  0.10857822942E+00  0.51100000000E-03 0.  1.
</event>
<event>
 8    1  0.1177602E+005  0.1043930E+01  0.7957747E-01            NaN
         13   -1    0    0    0    0  0.00000000000E+00  0.00000000000E+00  0.74505805969E-08  0.10566000000E+00  0.10566000000E+00 0. -1.
     999900   -1    0    0    0    0 -0.00000000000E+00 -0.00000000000E+00 -0.74505805969E-08  0.93827000000E+00  0.93827000000E+00 0. -1.
     999902    2    1    2    0    0  0.14628706522E-01 -0.64245309032E-02  0.16637351895E-01  0.10208632462E+01  0.10206026124E+01 0.  0.
     999903    2    3    3    0    0  0.66275877939E-01 -0.16821040562E-01 -0.10914099810E+00  0.13036017994E+00  0.20163820185E-01 0.  0.
         14    1    1    2    0    0 -0.14628706522E-01  0.64245309032E-02 -0.16637351895E-01  0.23066753780E-01  0.00000000000E+00 0.  1.
     999901    1    3    3    0    0 -0.51647171417E-01  0.10396509659E-01  0.12577835000E+00  0.89050306628E+00  0.88000000000E+00 0.  1.
        -11    1    4    4    0    0  0.15457925673E-01 -0.93073004140E-03 -0.12056539284E-01  0.19632498186E-01  0.51100000000E-03 0.  1.
         11    1    4    4    0    0  0.50817952266E-01 -0.15890310520E-01 -0.97084458820E-01  0.11072768175E+00  0.51100000000E-03 0. -1.
</event>
<event>
 8    1  0.1177602E+005  0.1043930E+01  0.7957747E-01            NaN
         13   -1    0    0    0    0  0.00000000000E+00  0.00000000000E+00  0.74505805969E-08  0.10566000000E+00  0.10566000000E+00 0.  1.
     999900   -1    0    0    0    0 -0.00000000000E+00 -0.00000000000E+00 -0.74505805969E-08  0.93827000000E+00  0.93827000000E+00 0. -1.
     999902    2    1    2    0    0 -0.32158796463E-02 -0.14571214667E-01  0.18033202983E-01  0.10205236208E+01  0.10202551651E+01 0.  0.
     999903    2    3    3    0    0 -0.12130498425E+00  0.89292912350E-02 -0.42015876151E-01  0.13029713144E+00  0.20429810736E-01 0.  0.
         14    1    1    2    0    0  0.32158796463E-02  0.14571214667E-01 -0.18033202983E-01  0.23406379229E-01  0.00000000000E+00 0. -1.
     999901    1    3    3    0    0  0.11808910460E+00 -0.23500505902E-01  0.60049079135E-01  0.89022648933E+00  0.88000000000E+00 0.  1.
        -11    1    4    4    0    0 -0.36908064613E-01 -0.62891376834E-03 -0.36522062273E-02  0.37097176407E-01  0.51100000000E-03 0. -1.
         11    1    4    4    0    0 -0.84396919636E-01  0.95582050034E-02 -0.38363669924E-01  0.93199955032E-01  0.51100000000E-03 0.  1.
</event>
<event>
 8    1  0.1177602E+005  0.1043930E+01  0.7957747E-01            NaN
         13   -1    0    0    0    0  0.00000000000E+00  0.00000000000E+00  0.74505805969E-08  0.10566000000E+00  0.10566000000E+00 0. -1.
     999900   -1    0    0    0    0 -0.00000000000E+00 -0.00000000000E+00 -0.74505805969E-08  0.93827000000E+00  0.93827000000E+00 0. -1.
     999902    2    1    2    0    0 -0.35754817317E-02 -0.18132993019E-01  0.13627301530E-01  0.10209671419E+01  0.10207088772E+01 0.  0.
     999903    2    3    3    0    0 -0.11725058301E+00  0.14721294204E-01 -0.51900366520E-01  0.13063276194E+00  0.20170640282E-01 0.  0.
         14    1    1    2    0    0  0.35754817317E-02  0.18132993019E-01 -0.13627301530E-01  0.22962858107E-01  0.00000000000E+00 0.  1.
     999901    1    3    3    0    0  0.11367510128E+00 -0.32854287223E-01  0.65527668050E-01  0.89033437995E+00  0.88000000000E+00 0.  1.
        -11    1    4    4    0    0 -0.91265788546E-01  0.19361563232E-01 -0.43387636043E-01  0.10289345155E+00  0.51100000000E-03 0. -1.
         11    1    4    4    0    0 -0.25984794462E-01 -0.46402690283E-02 -0.85127304776E-02  0.27739310393E-01  0.51100000000E-03 0.  1.
</event>
<event>
 8    1  0.1177602E+005  0.1043930E+01  0.7957747E-01            NaN
         13   -1    0    0    0    0  0.00000000000E+00  0.00000000000E+00  0.74505805969E-08  0.10566000000E+00  0.10566000000E+00 0.  1.
     999900   -1    0    0    0    0 -0.00000000000E+00 -0.00000000000E+00 -0.74505805969E-08  0.93827000000E+00  0.93827000000E+00 0.  1.
     999902    2    1    2    0    0 -0.10855193283E-01  0.11142255237E-01 -0.16460985620E-01  0.10212816199E+01  0.10210304589E+01 0.  0.
     999903    2    3    3    0    0  0.55734565094E-01  0.51340656686E-01 -0.10767292701E+00  0.13315453123E+00  0.19861148048E-01 0.  0.
         14    1    1    2    0    0  0.10855193283E-01 -0.11142255237E-01  0.16460985620E-01  0.22648380087E-01  0.00000000000E+00 0.  1.
     999901    1    3    3    0    0 -0.66589758377E-01 -0.40198401449E-01  0.91211941387E-01  0.88812708868E+00  0.88000000000E+00 0. -1.
        -11    1    4    4    0    0  0.26767133820E-01  0.30225895876E-01 -0.41543358490E-01  0.57932684989E-01  0.51100000000E-03 0. -1.
         11    1    4    4    0    0  0.28967431274E-01  0.21114760810E-01 -0.66129568518E-01  0.75221846242E-01  0.51100000000E-03 0.  1.
</event>
<event>
 8    1  0.1177602E+005  0.1043930E+01  0.7957747E-01            NaN
         13   -1    0    0    0    0  0.00000000000E+00  0.00000000000E+00  0.74505805969E-08  0.10566000000E+00  0.10566000000E+00 0. -1.
     999900   -1    0    0    0    0 -0.00000000000E+00 -0.00000000000E+00 -0.74505805969E-08  0.93827000000E+00  0.93827000000E+00 0.  1.
     999902    2    1    2    0    0 -0.13424733391E-01 -0.94652067336E-02  0.20686345398E-01  0.10175152600E+01  0.10171723383E+01 0.  0.
     999903    2    3    3    0    0  0.83384560826E-01  0.45821575295E-01 -0.78169288391E-01  0.12499013200E+00  0.21435804255E-01 0.  0.
         14    1    1    2    0    0  0.13424733391E-01  0.94652067336E-02 -0.20686345398E-01  0.26414740034E-01  0.00000000000E+00 0.  1.
     999901    1    3    3    0    0 -0.96809294217E-01 -0.55286782028E-01  0.98855633789E-01  0.89252512796E+00  0.88000000000E+00 0. -1.
        -11    1    4    4    0    0  0.23503355055E-01  0.17464749931E-01 -0.36180042588E-01  0.46547629281E-01  0.51100000000E-03 0.  1.
         11    1    4    4    0    0  0.59881205770E-01  0.28356825363E-01 -0.41989245802E-01  0.78442502722E-01  0.51100000000E-03 0. -1.
</event>
<event>
 8    1  0.1177602E+005  0.1043930E+01  0.7957747E-01            NaN
         13   -1    0    0    0    0  0.00000000000E+00  0.00000000000E+00  0.74505805969E-08  0.10566000000E+00  0.10566000000E+00 0.  1.
     999900   -1    0    0    0    0 -0.00000000000E+00 -0.00000000000E+00 -0.74505805969E-08  0.93827000000E+00  0.93827000000E+00 0.  1.
     999902    2    1    2    0    0  0.20276161640E-01  0.68346574866E-02 -0.14117993643E-01  0.10182950040E+01  0.10179722797E+01 0.  0.
     999903    2    3    3    0    0 -0.43286682806E-01 -0.11878209134E+00  0.47570282237E-02  0.12690503930E+00  0.99668224786E-02 0.  0.
         14    1    1    2    0    0 -0.20276161640E-01 -0.68346574866E-02  0.14117993643E-01  0.25634995969E-01  0.00000000000E+00 0. -1.
     999901    1    3    3    0    0  0.63562844446E-01  0.12561674882E+00 -0.18875021867E-01  0.89138996473E+00  0.88000000000E+00 0. -1.
        -11    1    4    4    0    0 -0.33777492646E-01 -0.10065537997E+00  0.63834091708E-02  0.10636462551E+00  0.51100000000E-03 0.  1.
         11    1    4    4    0    0 -0.95091901601E-02 -0.18126711372E-01 -0.16263809471E-02  0.20540413789E-01  0.51100000000E-03 0. -1.
</event>
<event>
 8    1  0.1177602E+005  0.1043930E+01  0.7957747E-01            NaN
         13   -1    0    0    0    0  0.00000000000E+00  0.00000000000E+00  0.74505805969E-08  0.10566000000E+00  0.10566000000E+00 0.  1.
     999900   -1    0    0    0    0 -0.00000000000E+00 -0.00000000000E+00 -0.74505805969E-08  0.93827000000E+00  0.93827000000E+00 0.  1.
     999902    2    1    2    0    0 -0.23400867548E-02  0.18377551789E-01 -0.14307294284E-01  0.10205225421E+01  0.10202540614E+01 0.  0.
     999903    2    3    3    0    0  0.22960392047E-01 -0.71797872949E-02  0.12483455134E+00  0.12886467889E+00  0.21064456091E-01 0.  0.
         14    1    1    2    0    0  0.23400867548E-02 -0.18377551789E-01  0.14307294284E-01  0.23407457903E-01  0.00000000000E+00 0.  1.
     999901    1    3    3    0    0 -0.25300478802E-01  0.25557339084E-01 -0.13914184562E+00  0.89165786320E+00  0.88000000000E+00 0.  1.
        -11    1    4    4    0    0  0.44413749915E-02  0.72141564379E-02  0.30836680546E-01  0.31983305849E-01  0.51100000000E-03 0. -1.
         11    1    4    4    0    0  0.18519017056E-01 -0.14393943733E-01  0.93997870791E-01  0.96881373045E-01  0.51100000000E-03 0.  1.
</event>
<event>
 8    1  0.1177602E+005  0.1043930E+01  0.7957747E-01            NaN
         13   -1    0    0    0    0  0.00000000000E+00  0.00000000000E+00  0.74505805969E-08  0.10566000000E+00  0.10566000000E+00 0. -1.
     999900   -1    0    0    0    0 -0.00000000000E+00 -0.00000000000E+00 -0.74505805969E-08  0.93827000000E+00  0.93827000000E+00 0. -1.
     999902    2    1    2    0    0  0.69717314180E-02 -0.16196928041E-01 -0.16912232062E-01  0.10194970487E+01  0.10192042303E+01 0.  0.
     999903    2    3    3    0    0  0.27202685820E-01  0.65962830671E-01  0.10338687199E+00  0.12729113528E+00  0.20569557015E-01 0.  0.
         14    1    1    2    0    0 -0.69717314180E-02  0.16196928041E-01  0.16912232062E-01  0.24432951321E-01  0.00000000000E+00 0.  1.
     999901    1    3    3    0    0 -0.20230954402E-01 -0.82159758712E-01 -0.12029910405E+00  0.89220591340E+00  0.88000000000E+00 0. -1.
        -11    1    4    4    0    0  0.21592345967E-01  0.26519214870E-01  0.42985653684E-01  0.54932009843E-01  0.51100000000E-03 0. -1.
         11    1    4    4    0    0  0.56103398535E-02  0.39443615801E-01  0.60401218302E-01  0.72359125438E-01  0.51100000000E-03 0.  1.
</event>
<event>
 8    1  0.1177602E+005  0.1043930E+01  0.7957747E-01            NaN
         13   -1    0    0    0    0  0.00000000000E+00  0.00000000000E+00  0.74505805969E-08  0.10566000000E+00  0.10566000000E+00 0. -1.
     999900   -1    0    0    0    0 -0.00000000000E+00 -0.00000000000E+00 -0.74505805969E-08  0.93827000000E+00  0.93827000000E+00 0.  1.
     999902    2    1    2    0    0 -0.48406789962E-02  0.16649489529E-01 -0.17937071450E-01  0.10189825311E+01  0.10186770943E+01 0.  0.
     999903    2    3    3    0    0  0.12136756665E+00  0.39358863013E-01  0.75850329476E-02  0.12932213813E+00  0.19684419092E-01 0.  0.
         14    1    1    2    0    0  0.48406789962E-02 -0.16649489529E-01  0.17937071450E-01  0.24947468949E-01  0.00000000000E+00 0. -1.
     999901    1    3    3    0    0 -0.12620824564E+00 -0.22709373484E-01 -0.25522104398E-01  0.88966039292E+00  0.88000000000E+00 0. -1.
        -11    1    4    4    0    0  0.47546359803E-01  0.19314128466E-01 -0.58535225723E-02  0.51654784255E-01  0.51100000000E-03 0.  1.
         11    1    4    4    0    0  0.73821206845E-01  0.20044734547E-01  0.13438555520E-01  0.77667353879E-01  0.51100000000E-03 0. -1.
</event>
<event>
 8    1  0.1177602E+005  0.1043930E+01  0.7957747E-01            NaN
         13   -1    0    0    0    0  0.00000000000E+00  0.00000000000E+00  0.74505805969E-08  0.10566000000E+00  0.10566000000E+00 0.  1.
     999900   -1    0    0    0    0 -0.00000000000E+00 -0.00000000000E+00 -0.74505805969E-08  0.93827000000E+00  0.93827000000E+00 0.  1.
     999902    2    1    2    0    0 -0.13685650046E-01  0.84842286962E-02  0.28142444015E-02  0.10275837734E+01  0.10274537518E+01 0.  0.
     999903    2    3    3    0    0  0.40788337808E-01 -0.11128548019E+00 -0.62337686289E-01  0.13541956617E+00  0.20107838436E-01 0.  0.
         14    1    1    2    0    0  0.13685650046E-01 -0.84842286962E-02 -0.28142444015E-02  0.16346226638E-01  0.00000000000E+00 0. -1.
     999901    1    3    3    0    0 -0.54473987854E-01  0.11976970889E+00  0.65151930691E-01  0.89216420719E+00  0.88000000000E+00 0. -1.
        -11    1    4    4    0    0  0.31145813373E-01 -0.73743222837E-01 -0.51431783480E-01  0.95150481228E-01  0.51100000000E-03 0. -1.
         11    1    4    4    0    0  0.96425244352E-02 -0.37542257358E-01 -0.10905902809E-01  0.40269084942E-01  0.51100000000E-03 0.  1.
</event>
<event>
 8    1  0.1177602E+005  0.1043930E+01  0.7957747E-01            NaN
         13   -1    0    0    0    0  0.00000000000E+00  0.00000000000E+00  0.74505805969E-08  0.10566000000E+00  0.10566000000E+00 0. -1.
     999900   -1    0    0    0    0 -0.00000000000E+00 -0.00000000000E+00 -0.74505805969E-08  0.93827000000E+00  0.93827000000E+00 0.  1.
     999902    2    1    2    0    0 -0.15355884197E-02  0.22364085598E-01  0.72835893136E-02  0.10203596578E+01  0.10200873837E+01 0.  0.
     999903    2    3    3    0    0  0.57796536871E-01 -0.47450446890E-01 -0.10381829718E+00  0.12865455007E+00  0.13482204555E-01 0.  0.
         14    1    1    2    0    0  0.15355884197E-02 -0.22364085598E-01 -0.72835893136E-02  0.23570342164E-01  0.00000000000E+00 0. -1.
     999901    1    3    3    0    0 -0.59332125291E-01  0.69814532487E-01  0.11110188649E+00  0.89170510777E+00  0.88000000000E+00 0. -1.
        -11    1    4    4    0    0  0.35886597548E-01 -0.37412706922E-01 -0.69012013578E-01  0.86316149485E-01  0.51100000000E-03 0. -1.
         11    1    4    4    0    0  0.21909939323E-01 -0.10037739967E-01 -0.34806283601E-01  0.42338400583E-01  0.51100000000E-03 0.  1.
</event>
<event>
 8    1  0.1177602E+005  0.1043930E+01  0.7957747E-01            NaN
         13   -1    0    0    0    0  0.00000000000E+00  0.00000000000E+00  0.74505805969E-08  0.10566000000E+00  0.10566000000E+00 0.  1.
     999900   -1    0    0    0    0 -0.00000000000E+00 -0.00000000000E+00 -0.74505805969E-08  0.93827000000E+00  0.93827000000E+00 0.  1.
     999902    2    1    2    0    0  0.33212352756E-02 -0.76993303426E-02 -0.22334645811E-01  0.10200732044E+01  0.10197941928E+01 0.  0.
     999903    2    3    3    0    0 -0.38252319093E-01 -0.81805930462E-01  0.90013697046E-01  0.12887047847E+00  0.18699850043E-01 0.  0.
         14    1    1    2    0    0 -0.33212352756E-02  0.76993303426E-02  0.22334645811E-01  0.23856795572E-01  0.00000000000E+00 0.  1.
     999901    1    3    3    0    0  0.41573554368E-01  0.74106600119E-01 -0.11234834286E+00  0.89120272595E+00  0.88000000000E+00 0.  1.
        -11    1    4    4    0    0 -0.66613215389E-02 -0.22398779468E-01  0.13552318391E-01  0.27018604351E-01  0.51100000000E-03 0.  1.
         11    1    4    4    0    0 -0.31590997554E-01 -0.59407150994E-01  0.76461378655E-01  0.10185187412E+00  0.51100000000E-03 0. -1.
</event>
<event>
 8    1  0.1177602E+005  0.1043930E+01  0.7957747E-01            NaN
         13   -1    0    0    0    0  0.00000000000E+00  0.00000000000E+00  0.74505805969E-08  0.10566000000E+00  0.10566000000E+00 0. -1.
     999900   -1    0    0    0    0 -0.00000000000E+00 -0.00000000000E+00 -0.74505805969E-08  0.93827000000E+00  0.93827000000E+00 0.  1.
     999902    2    1    2    0    0  0.11608825893E-01  0.76453269087E-02 -0.17929451999E-01  0.10212434156E+01  0.10209913970E+01 0.  0.
     999903    2    3    3    0    0  0.75089356510E-01 -0.89692184407E-01 -0.59134346074E-01  0.13264777519E+00  0.20382884326E-01 0.  0.
         14    1    1    2    0    0 -0.11608825893E-01 -0.76453269087E-02  0.17929451999E-01  0.22686584387E-01  0.00000000000E+00 0. -1.
     999901    1    3    3    0    0 -0.63480530616E-01  0.97337511316E-01  0.41204894075E-01  0.88859564042E+00  0.88000000000E+00 0. -1.
        -11    1    4    4    0    0  0.86497577501E-02 -0.11410658119E-01 -0.15431450002E-01  0.21057354962E-01  0.51100000000E-03 0. -1.
         11    1    4    4    0    0  0.66439598760E-01 -0.78281526289E-01 -0.43702896072E-01  0.11159042023E+00  0.51100000000E-03 0.  1.
</event>
<event>
 8    1  0.1177602E+005  0.1043930E+01  0.7957747E-01            NaN
         13   -1    0    0    0    0  0.00000000000E+00  0.00000000000E+00  0.74505805969E-08  0.10566000000E+00  0.10566000000E+00 0. -1.
     999900   -1    0    0    0    0 -0.00000000000E+00 -0.00000000000E+00 -0.74505805969E-08  0.93827000000E+00  0.93827000000E+00 0. -1.
     999902    2    1    2    0    0 -0.14302980282E-01 -0.66920031193E-02 -0.17725789746E-01  0.10201905440E+01  0.10199143024E+01 0.  0.
     999903    2    3    3    0    0  0.34945864157E-01 -0.12386575210E+00  0.92181679667E-02  0.13065071181E+00  0.20510873014E-01 0.  0.
         14    1    1    2    0    0  0.14302980282E-01  0.66920031193E-02  0.17725789746E-01  0.23739456034E-01  0.00000000000E+00 0. -1.
     999901    1    3    3    0    0 -0.49248844438E-01  0.11717374898E+00 -0.26943957712E-01  0.88953983215E+00  0.88000000000E+00 0. -1.
        -11    1    4    4    0    0  0.16873582636E-01 -0.93255834641E-01  0.62966805168E-02  0.94980407411E-01  0.51100000000E-03 0. -1.
         11    1    4    4    0    0  0.18072281521E-01 -0.30609917459E-01  0.29214874499E-02  0.35670304402E-01  0.51100000000E-03 0.  1.
</event>
<event>
 8    1  0.1177602E+005  0.1043930E+01  0.7957747E-01            NaN
         13   -1    0    0    0    0  0.00000000000E+00  0.00000000000E+00  0.74505805969E-08  0.10566000000E+00  0.10566000000E+00 0.  1.
     999900   -1    0    0    0    0 -0.00000000000E+00 -0.00000000000E+00 -0.74505805969E-08  0.93827000000E+00  0.93827000000E+00 0. -1.
     999902    2    1    2    0    0 -0.19042818473E-01  0.77222385584E-02 -0.12723573773E-01  0.10197607792E+01  0.10194743232E+01 0.  0.
     999903    2    3    3    0    0 -0.96104653138E-02 -0.27796187800E-01 -0.12673778413E+00  0.13164492638E+00  0.20073156607E-01 0.  0.
         14    1    1    2    0    0  0.19042818473E-01 -0.77222385584E-02  0.12723573773E-01  0.24169220784E-01  0.00000000000E+00 0.  1.
     999901    1    3    3    0    0 -0.94323531589E-02  0.35518426358E-01  0.11401421036E+00  0.88811585284E+00  0.88000000000E+00 0.  1.
        -11    1    4    4    0    0 -0.57771958519E-03 -0.18652417319E-01 -0.10268937673E+00  0.10437248510E+00  0.51100000000E-03 0.  1.
         11    1    4    4    0    0 -0.90327457286E-02 -0.91437704811E-02 -0.24048407402E-01  0.27272441283E-01  0.51100000000E-03 0. -1.
</event>
<event>
 8    1  0.1177602E+005  0.1043930E+01  0.7957747E-01            NaN
         13   -1    0    0    0    0  0.00000000000E+00  0.00000000000E+00  0.74505805969E-08  0.10566000000E+00  0.10566000000E+00 0. -1.
     999900   -1    0    0    0    0 -0.00000000000E+00 -0.00000000000E+00 -0.74505805969E-08  0.93827000000E+00  0.93827000000E+00 0. -1.
     999902    2    1    2    0    0  0.12897958960E-01  0.19502426006E-01  0.23514967544E-02  0.10204303936E+01  0.10201597701E+01 0.  0.
     999903    2    3    3    0    0 -0.75773403752E-01 -0.94752814465E-01 -0.34110460894E-01  0.12787992166E+00  0.21680550204E-01 0.  0.
         14    1    1    2    0    0 -0.12897958960E-01 -0.19502426006E-01 -0.23514967544E-02  0.23499606432E-01  0.00000000000E+00 0. -1.
     999901    1    3    3    0    0  0.88671362712E-01  0.11425524047E+00  0.36461957648E-01  0.89255047190E+00  0.88000000000E+00 0.  1.
        -11    1    4    4    0    0 -0.20453004858E-01 -0.17228490376E-01 -0.15254759550E-01  0.30791477689E-01  0.51100000000E-03 0.  1.
         11    1    4    4    0    0 -0.55320398894E-01 -0.77524324089E-01 -0.18855701344E-01  0.97088443975E-01  0.51100000000E-03 0. -1.
</event>
<event>
 8    1  0.1177602E+005  0.1043930E+01  0.7957747E-01            NaN
         13   -1    0    0    0    0  0.00000000000E+00  0.00000000000E+00  0.74505805969E-08  0.10566000000E+00  0.10566000000E+00 0. -1.
     999900   -1    0    0    0    0 -0.00000000000E+00 -0.00000000000E+00 -0.74505805969E-08  0.93827000000E+00  0.93827000000E+00 0.  1.
     999902    2    1    2    0    0 -0.22771568347E-01  0.17853956371E-02 -0.71244755620E-02  0.10200032343E+01  0.10197225642E+01 0.  0.
     999903    2    3    3    0    0  0.74274538894E-01  0.38650006488E-01  0.94753834483E-01  0.12806369799E+00  0.20285252365E-01 0.  0.
         14    1    1    2    0    0  0.22771568347E-01 -0.17853956371E-02  0.71244755620E-02  0.23926765653E-01  0.00000000000E+00 0.  1.
     999901    1    3    3    0    0 -0.97046107242E-01 -0.36864610851E-01 -0.10187831005E+00  0.89193953636E+00  0.88000000000E+00 0.  1.
        -11    1    4    4    0    0  0.58934280234E-01  0.38628702302E-01  0.81904480920E-01  0.10804643050E+00  0.51100000000E-03 0. -1.
         11    1    4    4    0    0  0.15340258660E-01  0.21304185689E-04  0.12849353563E-01  0.20017267486E-01  0.51100000000E-03 0.  1.
</event>
<event>
 8    1  0.1177602E+005  0.1043930E+01  0.7957747E-01            NaN
         13   -1    0    0    0    0  0.00000000000E+00  0.00000000000E+00  0.74505805969E-08  0.10566000000E+00  0.10566000000E+00 0. -1.
     999900   -1    0    0    0    0 -0.00000000000E+00 -0.00000000000E+00 -0.74505805969E-08  0.93827000000E+00  0.93827000000E+00 0. -1.
     999902    2    1    2    0    0  0.18265956421E-02 -0.84765084236E-02 -0.21889994411E-01  0.10203851598E+01  0.10201134813E+01 0.  0.
     999903    2    3    3    0    0  0.31125511349E-01 -0.82576689228E-01 -0.98185279311E-01  0.13349721094E+00  0.19835553819E-01 0.  0.
         14    1    1    2    0    0 -0.18265956421E-02  0.84765084236E-02  0.21889994411E-01  0.23544840242E-01  0.00000000000E+00 0. -1.
     999901    1    3    3    0    0 -0.29298915707E-01  0.74100180804E-01  0.76295284900E-01  0.88688794882E+00  0.88000000000E+00 0.  1.
        -11    1    4    4    0    0  0.40862542029E-02 -0.34808557932E-01 -0.31504959617E-01  0.47129150005E-01  0.51100000000E-03 0. -1.
         11    1    4    4    0    0  0.27039257146E-01 -0.47768131296E-01 -0.66680319695E-01  0.86368060937E-01  0.51100000000E-03 0.  1.
</event>
<event>
 8    1  0.1177602E+005  0.1043930E+01  0.7957747E-01            NaN
         13   -1    0    0    0    0  0.00000000000E+00  0.00000000000E+00  0.74505805969E-08  0.10566000000E+00  0.10566000000E+00 0. -1.
     999900   -1    0    0    0    0 -0.00000000000E+00 -0.00000000000E+00 -0.74505805969E-08  0.93827000000E+00  0.93827000000E+00 0.  1.
     999902    2    1    2    0    0 -0.69275171658E-02  0.11185833675E-01  0.20018852254E-01  0.10199744617E+01  0.10196931081E+01 0.  0.
     999903    2    3    3    0    0  0.48720090709E-01  0.23825879533E-01  0.11921108743E+00  0.13256501476E+00  0.20515360038E-01 0.  0.
         14    1    1    2    0    0  0.69275171658E-02 -0.11185833675E-01 -0.20018852254E-01  0.23955538288E-01  0.00000000000E+00 0.  1.
     999901    1    3    3    0    0 -0.55647607875E-01 -0.12640045858E-01 -0.99192235177E-01  0.88740944695E+00  0.88000000000E+00 0.  1.
        -11    1    4    4    0    0  0.10789553055E-01  0.79643401741E-02  0.52607640973E-01  0.54292450482E-01  0.51100000000E-03 0. -1.
         11    1    4    4    0    0  0.37930537654E-01  0.15861539359E-01  0.66603446458E-01  0.78272564278E-01  0.51100000000E-03 0.  1.
</event>
<event>
 8    1  0.1177602E+005  0.1043930E+01  0.7957747E-01            NaN
         13   -1    0    0    0    0  0.00000000000E+00  0.00000000000E+00  0.74505805969E-08  0.10566000000E+00  0.10566000000E+00 0.  1.
     999900   -1    0    0    0    0 -0.00000000000E+00 -0.00000000000E+00 -0.74505805969E-08  0.93827000000E+00  0.93827000000E+00 0. -1.
     999902    2    1    2    0    0 -0.16284680850E-01  0.18423662912E-01  0.88205430887E-04  0.10193407754E+01  0.10190441533E+01 0.  0.
     999903    2    3    3    0    0 -0.43499613418E-02  0.80974455310E-01 -0.10127278447E+00  0.13123656451E+00  0.19775601457E-01 0.  0.
         14    1    1    2    0    0  0.16284680850E-01 -0.18423662912E-01 -0.88205430887E-04  0.24589224585E-01  0.00000000000E+00 0.  1.
     999901    1    3    3    0    0 -0.11934719508E-01 -0.62550792397E-01  0.10136098990E+00  0.88810421091E+00  0.88000000000E+00 0.  1.
        -11    1    4    4    0    0 -0.90444015338E-02  0.67211503448E-01 -0.74360266162E-01  0.10064242495E+00  0.51100000000E-03 0. -1.
         11    1    4    4    0    0  0.46944401920E-02  0.13762951862E-01 -0.26912518307E-01  0.30594139558E-01  0.51100000000E-03 0.  1.
</event>
<event>
 8    1  0.1177602E+005  0.1043930E+01  0.7957747E-01            NaN
         13   -1    0    0    0    0  0.00000000000E+00  0.00000000000E+00  0.74505805969E-08  0.10566000000E+00  0.10566000000E+00 0.  1.
     999900   -1    0    0    0    0 -0.00000000000E+00 -0.00000000000E+00 -0.74505805969E-08  0.93827000000E+00  0.93827000000E+00 0.  1.
     999902    2    1    2    0    0  0.59120655071E-02  0.21243544486E-01 -0.33791065129E-02  0.10216217266E+01  0.10213781343E+01 0.  0.
     999903    2    3    3    0    0  0.68077004682E-04  0.87846353490E-01 -0.98808590099E-01  0.13394111248E+00  0.21449887600E-01 0.  0.
         14    1    1    2    0    0 -0.59120655071E-02 -0.21243544486E-01  0.33791065129E-02  0.22308273392E-01  0.00000000000E+00 0.  1.
     999901    1    3    3    0    0  0.58439885024E-02 -0.66602809003E-01  0.95429483586E-01  0.88768061413E+00  0.88000000000E+00 0. -1.
        -11    1    4    4    0    0  0.45771218543E-02  0.50925737733E-01 -0.42679589491E-01  0.66604724218E-01  0.51100000000E-03 0.  1.
         11    1    4    4    0    0 -0.45090448496E-02  0.36920615757E-01 -0.56129000608E-01  0.67336388258E-01  0.51100000000E-03 0. -1.
</event>
<event>
 8    1  0.1177602E+005  0.1043930E+01  0.7957747E-01            NaN
         13   -1    0    0    0    0  0.00000000000E+00  0.00000000000E+00  0.74505805969E-08  0.10566000000E+00  0.10566000000E+00 0.  1.
     999900   -1    0    0    0    0 -0.00000000000E+00 -0.00000000000E+00 -0.74505805969E-08  0.93827000000E+00  0.93827000000E+00 0.  1.
     999902    2    1    2    0    0  0.77663472863E-02 -0.19741769590E-01 -0.92417396952E-02  0.10207899186E+01  0.10205276059E+01 0.  0.
     999903    2    3    3    0    0  0.10867715181E+00 -0.86288895382E-02  0.70338675778E-01  0.13138588826E+00  0.20725377273E-01 0.  0.
         14    1    1    2    0    0 -0.77663472863E-02  0.19741769590E-01  0.92417396952E-02  0.23140081445E-01  0.00000000000E+00 0.  1.
     999901    1    3    3    0    0 -0.10091080453E+00 -0.11112880051E-01 -0.79580415473E-01  0.88940403029E+00  0.88000000000E+00 0.  1.
        -11    1    4    4    0    0  0.70165732645E-01  0.30597713548E-02  0.38705096796E-01  0.80193128617E-01  0.51100000000E-03 0.  1.
         11    1    4    4    0    0  0.38511419169E-01 -0.11688660893E-01  0.31633578982E-01  0.51192759645E-01  0.51100000000E-03 0. -1.
</event>
<event>
 8    1  0.1177602E+005  0.1043930E+01  0.7957747E-01            NaN
         13   -1    0    0    0    0  0.00000000000E+00  0.00000000000E+00  0.74505805969E-08  0.10566000000E+00  0.10566000000E+00 0. -1.
     999900   -1    0    0    0    0 -0.00000000000E+00 -0.00000000000E+00 -0.74505805969E-08  0.93827000000E+00  0.93827000000E+00 0. -1.
     999902    2    1    2    0    0  0.18126950321E-01  0.73471265781E-02 -0.11891382954E-01  0.10210395744E+01  0.10207829548E+01 0.  0.
     999903    2    3    3    0    0  0.11795082117E+00 -0.47269431036E-01 -0.35313871485E-01  0.13340429650E+00  0.20070911256E-01 0.  0.
         14    1    1    2    0    0 -0.18126950321E-01 -0.73471265781E-02  0.11891382954E-01  0.22890425629E-01  0.00000000000E+00 0. -1.
     999901    1    3    3    0    0 -0.99823870852E-01  0.54616557614E-01  0.23422488531E-01  0.88763527787E+00  0.88000000000E+00 0. -1.
        -11    1    4    4    0    0  0.39520477845E-01 -0.21605100697E-01 -0.20798119112E-01  0.49613218247E-01  0.51100000000E-03 0.  1.
         11    1    4    4    0    0  0.78430343328E-01 -0.25664330339E-01 -0.14515752373E-01  0.83791078250E-01  0.51100000000E-03 0. -1.
</event>
<event>
 8    1  0.1177602E+005  0.1043930E+01  0.7957747E-01            NaN
         13   -1    0    0    0    0  0.00000000000E+00  0.00000000000E+00  0.74505805969E-08  0.10566000000E+00  0.10566000000E+00 0. -1.
     999900   -1    0    0    0    0 -0.00000000000E+00 -0.00000000000E+00 -0.74505805969E-08  0.93827000000E+00  0.93827000000E+00 0. -1.
     999902    2    1    2    0    0 -0.96535959240E-02 -0.66654504244E-02  0.20172990623E-01  0.10205939829E+01  0.10203271574E+01 0.  0.
     999903    2    3    3    0    0  0.11326886805E+00 -0.42517744225E-01  0.46175317477E-01  0.13094717651E+00  0.19426992767E-01 0.  0.
         14    1    1    2    0    0  0.96535959240E-02  0.66654504244E-02 -0.20172990623E-01  0.23336017104E-01  0.00000000000E+00 0.  1.
     999901    1    3    3    0    0 -0.12292246397E+00  0.35852293801E-01 -0.26002326855E-01  0.88964680639E+00  0.88000000000E+00 0. -1.
        -11    1    4    4    0    0  0.80854785307E-01 -0.30716496118E-01  0.23384745190E-01  0.89599703511E-01  0.51100000000E-03 0.  1.
         11    1    4    4    0    0  0.32414082740E-01 -0.11801248107E-01  0.22790572288E-01  0.41347472994E-01  0.51100000000E-03 0. -1.
</event>
<event>
 8    1  0.1177602E+005  0.1043930E+01  0.7957747E-01            NaN
         13   -1    0    0    0    0  0.00000000000E+00  0.00000000000E+00  0.74505805969E-08  0.10566000000E+00  0.10566000000E+00 0.  1.
     999900   -1    0    0    0    0 -0.00000000000E+00 -0.00000000000E+00 -0.74505805969E-08  0.93827000000E+00  0.93827000000E+00 0. -1.
     999902    2    1    2    0    0 -0.14114482861E-01 -0.23363220153E-01 -0.47888306427E-02  0.10162173390E+01  0.10158394009E+01 0.  0.
     999903    2    3    3    0    0  0.48544819534E-01  0.99281058356E-01 -0.53142014958E-01  0.12419388768E+00  0.19665195918E-01 0.  0.
         14    1    1    2    0    0  0.14114482861E-01  0.23363220153E-01  0.47888306427E-02  0.27712661028E-01  0.00000000000E+00 0.  1.
     999901    1    3    3    0    0 -0.62659302395E-01 -0.12264427851E+00  0.48353184315E-01  0.89202345130E+00  0.88000000000E+00 0.  1.
        -11    1    4    4    0    0  0.39978265950E-01  0.63268140494E-01 -0.40339001029E-01  0.85021264839E-01  0.51100000000E-03 0. -1.
         11    1    4    4    0    0  0.85665535847E-02  0.36012917862E-01 -0.12803013929E-01  0.39172622837E-01  0.51100000000E-03 0.  1.
</event>
<event>
 8    1  0.1177602E+005  0.1043930E+01  0.7957747E-01            NaN
         13   -1    0    0    0    0  0.00000000000E+00  0.00000000000E+00  0.74505805969E-08  0.10566000000E+00  0.10566000000E+00 0. -1.
     999900   -1    0    0    0    0 -0.00000000000E+00 -0.00000000000E+00 -0.74505805969E-08  0.93827000000E+00  0.93827000000E+00 0.  1.
     999902    2    1    2    0    0  0.19503575966E-01  0.82096084824E-02 -0.92401526084E-02  0.10208395785E+01  0.10205784033E+01 0.  0.
     999903    2    3    3    0    0  0.10159003827E+00 -0.10968985598E-01 -0.83557126435E-01  0.13369301877E+00  0.21240889099E-01 0.  0.
         14    1    1    2    0    0 -0.19503575966E-01 -0.82096084824E-02  0.92401526084E-02  0.23090421545E-01  0.00000000000E+00 0.  1.
     999901    1    3    3    0    0 -0.82086462300E-01  0.19178594080E-01  0.74316973827E-01  0.88714655969E+00  0.88000000000E+00 0. -1.
        -11    1    4    4    0    0  0.78887343090E-01 -0.17191225459E-01 -0.62481829677E-01  0.10209305213E+00  0.51100000000E-03 0. -1.
         11    1    4    4    0    0  0.22702695176E-01  0.62222398611E-02 -0.21075296758E-01  0.31599966639E-01  0.51100000000E-03 0.  1.
</event>
<event>
 8    1  0.1177602E+005  0.1043930E+01  0.7957747E-01            NaN
         13   -1    0    0    0    0  0.00000000000E+00  0.00000000000E+00  0.74505805969E-08  0.10566000000E+00  0.10566000000E+00 0.  1.
     999900   -1    0    0    0    0 -0.00000000000E+00 -0.00000000000E+00 -0.74505805969E-08  0.93827000000E+00  0.93827000000E+00 0. -1.
     999902    2    1    2    0    0  0.34044601183E-02 -0.13637422235E-01  0.16698966634E-01  0.10221028353E+01  0.10218697474E+01 0.  0.
     999903    2    3    3    0    0 -0.11722570486E+00  0.32487311087E-01 -0.43581034907E-01  0.13063617502E+00  0.19214899447E-01 0.  0.
         14    1    1    2    0    0 -0.34044601183E-02  0.13637422235E-01 -0.16698966634E-01  0.21827164740E-01  0.00000000000E+00 0. -1.
     999901    1    3    3    0    0  0.12063016497E+00 -0.46124733323E-01  0.60280001541E-01  0.89146666024E+00  0.88000000000E+00 0. -1.
        -11    1    4    4    0    0 -0.74462805135E-01  0.15356769289E-01 -0.18785517032E-01  0.78317919295E-01  0.51100000000E-03 0.  1.
         11    1    4    4    0    0 -0.42762899721E-01  0.17130541799E-01 -0.24795517875E-01  0.52318255729E-01  0.51100000000E-03 0. -1.
</event>
<event>
 8    1  0.1177602E+005  0.1043930E+01  0.7957747E-01            NaN
         13   -1    0    0    0    0  0.00000000000E+00  0.00000000000E+00  0.74505805969E-08  0.10566000000E+00  0.10566000000E+00 0.  1.
     999900   -1    0    0    0    0 -0.00000000000E+00 -0.00000000000E+00 -0.74505805969E-08  0.93827000000E+00  0.93827000000E+00 0. -1.
     999902    2    1    2    0    0  0.15495497830E-01  0.54492434086E-02  0.16664383396E-01  0.10205311457E+01  0.10202628647E+01 0.  0.
     999903    2    3    3    0    0  0.43688795695E-01 -0.21491873949E-01 -0.11825646228E+00  0.12939461274E+00  0.19691709424E-01 0.  0.
         14    1    1    2    0    0 -0.15495497830E-01 -0.54492434086E-02 -0.16664383396E-01  0.23398854260E-01  0.00000000000E+00 0. -1.
     999901    1    3    3    0    0 -0.28193297865E-01  0.26941117357E-01  0.13492084568E+00  0.89113653300E+00  0.88000000000E+00 0.  1.
        -11    1    4    4    0    0  0.62188641432E-02 -0.10341202846E-01 -0.17012966529E-01  0.20864249296E-01  0.51100000000E-03 0. -1.
         11    1    4    4    0    0  0.37469931551E-01 -0.11150671102E-01 -0.10124349575E+00  0.10853036344E+00  0.51100000000E-03 0.  1.
</event>
<event>
 8    1  0.1177602E+005  0.1043930E+01  0.7957747E-01            NaN
         13   -1    0    0    0    0  0.00000000000E+00  0.00000000000E+00  0.74505805969E-08  0.10566000000E+00  0.10566000000E+00 0.  1.
     999900   -1    0    0    0    0 -0.00000000000E+00 -0.00000000000E+00 -0.74505805969E-08  0.93827000000E+00  0.93827000000E+00 0.  1.
     999902    2    1    2    0    0  0.18403756303E-01 -0.17813312181E-01  0.96315076140E-02  0.10165661867E+01  0.10161978320E+01 0.  0.
     999903    2    3    3    0    0  0.12491829883E+00 -0.24248350988E-01 -0.16445602787E-01  0.12973656772E+00  0.19197792708E-01 0.  0.
         14    1    1    2    0    0 -0.18403756303E-01  0.17813312181E-01 -0.96315076140E-02  0.27363813255E-01  0.00000000000E+00 0. -1.
     999901    1    3    3    0    0 -0.10651454253E+00  0.64350388074E-02  0.26077110401E-01  0.88682961903E+00  0.88000000000E+00 0. -1.
        -11    1    4    4    0    0  0.67488043334E-01 -0.12528976913E-01 -0.18473529259E-01  0.71085467290E-01  0.51100000000E-03 0. -1.
         11    1    4    4    0    0  0.57430255494E-01 -0.11719374075E-01  0.20279264717E-02  0.58651100430E-01  0.51100000000E-03 0.  1.
</event>
<event>
 8    1  0.1177602E+005  0.1043930E+01  0.7957747E-01            NaN
         13   -1    0    0    0    0  0.00000000000E+00  0.00000000000E+00  0.74505805969E-08  0.10566000000E+00  0.10566000000E+00 0. -1.
     999900   -1    0    0    0    0 -0.00000000000E+00 -0.00000000000E+00 -0.74505805969E-08  0.93827000000E+00  0.93827000000E+00 0. -1.
     999902    2    1    2    0    0  0.20181287749E-01  0.23230037142E-02 -0.11130781792E-01  0.10207659109E+01  0.10205030474E+01 0.  0.
     999903    2    3    3    0    0 -0.10719943190E+00  0.35208960383E-01  0.57831059367E-01  0.12831811441E+00  0.19741275746E-01 0.  0.
         14    1    1    2    0    0 -0.20181287749E-01 -0.23230037142E-02  0.11130781792E-01  0.23164089120E-01  0.00000000000E+00 0. -1.
     999901    1    3    3    0    0  0.12738071965E+00 -0.32885956669E-01 -0.68961841159E-01  0.89244779647E+00  0.88000000000E+00 0. -1.
        -11    1    4    4    0    0 -0.34344519896E-01  0.10083263893E-01  0.28869937868E-01  0.45988614799E-01  0.51100000000E-03 0. -1.
         11    1    4    4    0    0 -0.72854912003E-01  0.25125696490E-01  0.28961121499E-01  0.82329499614E-01  0.51100000000E-03 0.  1.
</event>
<event>
 8    1  0.1177602E+005  0.1043930E+01  0.7957747E-01            NaN
         13   -1    0    0    0    0  0.00000000000E+00  0.00000000000E+00  0.74505805969E-08  0.10566000000E+00  0.10566000000E+00 0.  1.
     999900   -1    0    0    0    0 -0.00000000000E+00 -0.00000000000E+00 -0.74505805969E-08  0.93827000000E+00  0.93827000000E+00 0. -1.
     999902    2    1    2    0    0 -0.11092083462E-02 -0.19508593651E-01  0.12033977158E-01  0.10209815322E+01  0.10207235947E+01 0.  0.
     999903    2    3    3    0    0  0.90022311620E-01 -0.66352777049E-01 -0.66469995462E-01  0.13156475407E+00  0.19603994637E-01 0.  0.
         14    1    1    2    0    0  0.11092083462E-02  0.19508593651E-01 -0.12033977158E-01  0.22948467828E-01  0.00000000000E+00 0. -1.
     999901    1    3    3    0    0 -0.91131519966E-01  0.46844183398E-01  0.78503972620E-01  0.88941677810E+00  0.88000000000E+00 0.  1.
        -11    1    4    4    0    0  0.30734649806E-01 -0.34571051930E-01 -0.26353868953E-01  0.53240622273E-01  0.51100000000E-03 0. -1.
         11    1    4    4    0    0  0.59287661814E-01 -0.31781725119E-01 -0.40116126508E-01  0.78324131798E-01  0.51100000000E-03 0.  1.
</event>
<event>
 8    1  0.1177602E+005  0.1043930E+01  0.7957747E-01            NaN
         13   -1    0    0    0    0  0.00000000000E+00  0.00000000000E+00  0.74505805969E-08  0.10566000000E+00  0.10566000000E+00 0. -1.
     999900   -1    0    0    0    0 -0.00000000000E+00 -0.00000000000E+00 -0.74505805969E-08  0.93827000000E+00  0.93827000000E+00 0.  1.
     999902    2    1    2    0    0  0.23536294649E-01  0.59951231367E-02 -0.28943722964E-03  0.10196404458E+01  0.10193510957E+01 0.  0.
     999903    2    3    3    0    0  0.90907615013E-01  0.61418628662E-01  0.71007541679E-01  0.13245730862E+00  0.21596879811E-01 0.  0.
         14    1    1    2    0    0 -0.23536294649E-01 -0.59951231367E-02  0.28943722964E-03  0.24289554157E-01  0.00000000000E+00 0.  1.
     999901    1    3    3    0    0 -0.67371320364E-01 -0.55423505525E-01 -0.71296978908E-01  0.88718313722E+00  0.88000000000E+00 0.  1.
        -11    1    4    4    0    0  0.34298712480E-01  0.18307978816E-01  0.14160494196E-01  0.41380725984E-01  0.51100000000E-03 0.  1.
         11    1    4    4    0    0  0.56608902533E-01  0.43110649846E-01  0.56847047483E-01  0.91076582636E-01  0.51100000000E-03 0. -1.
</event>
<event>
 8    1  0.1177602E+005  0.1043930E+01  0.7957747E-01            NaN
         13   -1    0    0    0    0  0.00000000000E+00  0.00000000000E+00  0.74505805969E-08  0.10566000000E+00  0.10566000000E+00 0.  1.
     999900   -1    0    0    0    0 -0.00000000000E+00 -0.00000000000E+00 -0.74505805969E-08  0.93827000000E+00  0.93827000000E+00 0.  1.
     999902    2    1    2    0    0  0.11744192583E-01  0.10587793051E-01  0.17027798419E-01  0.10206926736E+01  0.10204281261E+01 0.  0.
     999903    2    3    3    0    0 -0.46532439254E-01 -0.11452919889E+00 -0.30091896028E-01  0.12868892183E+00  0.19316083853E-01 0.  0.
         14    1    1    2    0    0 -0.11744192583E-01 -0.10587793051E-01 -0.17027798419E-01  0.23237326440E-01  0.00000000000E+00 0.  1.
     999901    1    3    3    0    0  0.58276631836E-01  0.12511699194E+00  0.47119694447E-01  0.89200375173E+00  0.88000000000E+00 0. -1.
        -11    1    4    4    0    0 -0.29265160452E-01 -0.79569971194E-01 -0.29246584983E-01  0.89685304182E-01  0.51100000000E-03 0.  1.
         11    1    4    4    0    0 -0.17267278801E-01 -0.34959227693E-01 -0.84531104568E-03  0.39003617651E-01  0.51100000000E-03 0. -1.
</event>
<event>
 8    1  0.1177602E+005  0.1043930E+01  0.7957747E-01            NaN
         13   -1    0    0    0    0  0.00000000000E+00  0.00000000000E+00  0.74505805969E-08  0.10566000000E+00  0.10566000000E+00 0. -1.
     999900   -1    0    0    0    0 -0.00000000000E+00 -0.00000000000E+00 -0.74505805969E-08  0.93827000000E+00  0.93827000000E+00 0. -1.
     999902    2    1    2    0    0 -0.23483950579E-01  0.13346489400E-02  0.23540022952E-02  0.10202906567E+01  0.10200167674E+01 0.  0.
     999903    2    3    3    0    0  0.72718124837E-01 -0.10226747714E+00 -0.20520890391E-01  0.12871256115E+00  0.19981338615E-01 0.  0.
         14    1    1    2    0    0  0.23483950579E-01 -0.13346489400E-02 -0.23540022952E-02  0.23639343252E-01  0.00000000000E+00 0.  1.
     999901    1    3    3    0    0 -0.96202075416E-01  0.10360212608E+00  0.22874892686E-01  0.89157809560E+00  0.88000000000E+00 0.  1.
        -11    1    4    4    0    0  0.34138509912E-01 -0.54972419469E-01 -0.19793405851E-01  0.67671595204E-01  0.51100000000E-03 0. -1.
         11    1    4    4    0    0  0.38579614925E-01 -0.47295057674E-01 -0.72748454068E-03  0.61040965941E-01  0.51100000000E-03 0.  1.
</event>
<event>
 8    1  0.1177602E+005  0.1043930E+01  0.7957747E-01            NaN
         13   -1    0    0    0    0  0.00000000000E+00  0.00000000000E+00  0.74505805969E-08  0.10566000000E+00  0.10566000000E+00 0. -1.
     999900   -1    0    0    0    0 -0.00000000000E+00 -0.00000000000E+00 -0.74505805969E-08  0.93827000000E+00  0.93827000000E+00 0. -1.
     999902    2    1    2    0    0 -0.19310347147E-01 -0.50861654183E-02 -0.94710694411E-02  0.10218288746E+01  0.10215898342E+01 0.  0.
     999903    2    3    3    0    0 -0.72638430391E-01 -0.14436952192E-01  0.10772743971E+00  0.13240950662E+00  0.21031143973E-01 0.  0.
         14    1    1    2    0    0  0.19310347147E-01  0.50861654183E-02  0.94710694411E-02  0.22101125355E-01  0.00000000000E+00 0. -1.
     999901    1    3    3    0    0  0.53328083243E-01  0.93507867740E-02 -0.11719850916E+00  0.88941936803E+00  0.88000000000E+00 0. -1.
        -11    1    4    4    0    0 -0.57904035290E-02 -0.35485598796E-02  0.22718223825E-01  0.23717079605E-01  0.51100000000E-03 0. -1.
         11    1    4    4    0    0 -0.66848026862E-01 -0.10888392313E-01  0.85009215889E-01  0.10869242701E+00  0.51100000000E-03 0.  1.
</event>
<event>
 8    1  0.1177602E+005  0.1043930E+01  0.7957747E-01            NaN
         13   -1    0    0    0    0  0.00000000000E+00  0.00000000000E+00  0.74505805969E-08  0.10566000000E+00  0.10566000000E+00 0. -1.
     999900   -1    0    0    0    0 -0.00000000000E+00 -0.00000000000E+00 -0.74505805969E-08  0.93827000000E+00  0.93827000000E+00 0. -1.
     999902    2    1    2    0    0  0.16109860981E-01  0.17315106419E-01  0.16170180102E-02  0.10202244041E+01  0.10199489592E+01 0.  0.
     999903    2    3    3    0    0 -0.77393264397E-01  0.95509309728E-02  0.10157634826E+00  0.12960945664E+00  0.19997976600E-01 0.  0.
         14    1    1    2    0    0 -0.16109860981E-01 -0.17315106419E-01 -0.16170180102E-02  0.23705595930E-01  0.00000000000E+00 0.  1.
     999901    1    3    3    0    0  0.93503125378E-01  0.77641754467E-02 -0.99959330254E-01  0.89061494743E+00  0.88000000000E+00 0. -1.
        -11    1    4    4    0    0 -0.45079095502E-01 -0.14543644486E-02  0.68901536179E-01  0.82352430663E-01  0.51100000000E-03 0.  1.
         11    1    4    4    0    0 -0.32314168895E-01  0.11005295421E-01  0.32674812085E-01  0.47257025980E-01  0.51100000000E-03 0. -1.
</event>
<event>
 8    1  0.1177602E+005  0.1043930E+01  0.7957747E-01            NaN
         13   -1    0    0    0    0  0.00000000000E+00  0.00000000000E+00  0.74505805969E-08  0.10566000000E+00  0.10566000000E+00 0.  1.
     999900   -1    0    0    0    0 -0.00000000000E+00 -0.00000000000E+00 -0.74505805969E-08  0.93827000000E+00  0.93827000000E+00 0.  1.
     999902    2    1    2    0    0 -0.43316541471E-02 -0.10077643464E-01  0.21356562660E-01  0.10199211497E+01  0.10196385274E+01 0.  0.
     999903    2    3    3    0    0  0.95903569046E-01 -0.69893730513E-01 -0.48792670185E-01  0.12944600734E+00  0.17114789865E-01 0.  0.
         14    1    1    2    0    0  0.43316541471E-02  0.10077643464E-01 -0.21356562660E-01  0.24008850328E-01  0.00000000000E+00 0.  1.
     999901    1    3    3    0    0 -0.10023522319E+00  0.59816087049E-01  0.70149232845E-01  0.89047514233E+00  0.88000000000E+00 0.  1.
        -11    1    4    4    0    0  0.55914549904E-01 -0.30286792650E-01 -0.24706061788E-01  0.68222996930E-01  0.51100000000E-03 0. -1.
         11    1    4    4    0    0  0.39989019142E-01 -0.39606937863E-01 -0.24086608398E-01  0.61223010412E-01  0.51100000000E-03 0.  1.
</event>
<event>
 8    1  0.1177602E+005  0.1043930E+01  0.7957747E-01            NaN
         13   -1    0    0    0    0  0.00000000000E+00  0.00000000000E+00  0.74505805969E-08  0.10566000000E+00  0.10566000000E+00 0. -1.
     999900   -1    0    0    0    0 -0.00000000000E+00 -0.00000000000E+00 -0.74505805969E-08  0.93827000000E+00  0.93827000000E+00 0.  1.
     999902    2    1    2    0    0  0.16762757673E-01 -0.97847225382E-02  0.10226526531E-01  0.10219911604E+01  0.10217556553E+01 0.  0.
     999903    2    3    3    0    0  0.11626983850E-01 -0.67777366707E-01  0.11328796006E+00  0.13406594840E+00  0.20262241596E-01 0.  0.
         14    1    1    2    0    0 -0.16762757673E-01  0.97847225382E-02 -0.10226526531E-01  0.21938839642E-01  0.00000000000E+00 0.  1.
     999901    1    3    3    0    0  0.51357738235E-02  0.57992644169E-01 -0.10306143353E+00  0.88792521196E+00  0.88000000000E+00 0.  1.
        -11    1    4    4    0    0  0.16618824054E-03 -0.34959542055E-01  0.72369677511E-01  0.80373058566E-01  0.51100000000E-03 0.  1.
         11    1    4    4    0    0  0.11460795609E-01 -0.32817824652E-01  0.40918282549E-01  0.53692889833E-01  0.51100000000E-03 0. -1.
</event>
<event>
 8    1  0.1177602E+005  0.1043930E+01  0.7957747E-01            NaN
         13   -1    0    0    0    0  0.00000000000E+00  0.00000000000E+00  0.74505805969E-08  0.10566000000E+00  0.10566000000E+00 0. -1.
     999900   -1    0    0    0    0 -0.00000000000E+00 -0.00000000000E+00 -0.74505805969E-08  0.93827000000E+00  0.93827000000E+00 0.  1.
     999902    2    1    2    0    0  0.80127127390E-02 -0.66629887288E-02 -0.21259771431E-01  0.10202534955E+01  0.10199787342E+01 0.  0.
     999903    2    3    3    0    0 -0.40588631595E-01  0.24694704717E-01 -0.12205719167E+00  0.13261307532E+00  0.20760641843E-01 0.  0.
         14    1    1    2    0    0 -0.80127127390E-02  0.66629887288E-02  0.21259771431E-01  0.23676504504E-01  0.00000000000E+00 0. -1.
     999901    1    3    3    0    0  0.48601344334E-01 -0.31357693445E-01  0.10079742024E+00  0.88764042018E+00  0.88000000000E+00 0. -1.
        -11    1    4    4    0    0 -0.12695745149E-01 -0.23444373546E-02 -0.33683914910E-01  0.36076939672E-01  0.51100000000E-03 0. -1.
         11    1    4    4    0    0 -0.27892886447E-01  0.27039142071E-01 -0.88373276763E-01  0.96536135644E-01  0.51100000000E-03 0.  1.
</event>
<event>
 8    1  0.1177602E+005  0.1043930E+01  0.7957747E-01            NaN
         13   -1    0    0    0    0  0.00000000000E+00  0.00000000000E+00  0.74505805969E-08  0.10566000000E+00  0.10566000000E+00 0. -1.
     999900   -1    0    0    0    0 -0.00000000000E+00 -0.00000000000E+00 -0.74505805969E-08  0.93827000000E+00  0.93827000000E+00 0. -1.
     999902    2    1    2    0    0  0.43841851585E-02 -0.32479910240E-03 -0.23948300307E-01  0.10195815368E+01  0.10192907644E+01 0.  0.
     999903    2    3    3    0    0 -0.82239060966E-01  0.79135074628E-01 -0.61038592818E-01  0.13099099659E+00  0.20181877755E-01 0.  0.
         14    1    1    2    0    0 -0.43841851585E-02  0.32479910240E-03  0.23948300307E-01  0.24348463228E-01  0.00000000000E+00 0. -1.
     999901    1    3    3    0    0  0.86623246124E-01 -0.79459873730E-01  0.37090292511E-01  0.88859054018E+00  0.88000000000E+00 0. -1.
        -11    1    4    4    0    0 -0.73499408059E-01  0.60760694951E-01 -0.47434193498E-01  0.10650957173E+00  0.51100000000E-03 0. -1.
         11    1    4    4    0    0 -0.87396529070E-02  0.18374379676E-01 -0.13604399320E-01  0.24481424862E-01  0.51100000000E-03 0.  1.
</event>
<event>
 8    1  0.1177602E+005  0.1043930E+01  0.7957747E-01            NaN
         13   -1    0    0    0    0  0.00000000000E+00  0.00000000000E+00  0.74505805969E-08  0.10566000000E+00  0.10566000000E+00 0. -1.
     999900   -1    0    0    0    0 -0.00000000000E+00 -0.00000000000E+00 -0.74505805969E-08  0.93827000000E+00  0.93827000000E+00 0.  1.
     999902    2    1    2    0    0 -0.19052468942E-01 -0.14680537358E-01 -0.12089711852E-02  0.10198473016E+01  0.10195629173E+01 0.  0.
     999903    2    3    3    0    0 -0.57247069982E-01  0.11287528203E+00 -0.19751625543E-01  0.12963769448E+00  0.19943640679E-01 0.  0.
         14    1    1    2    0    0  0.19052468942E-01  0.14680537358E-01  0.12089711852E-02  0.24082698379E-01  0.00000000000E+00 0. -1.
     999901    1    3    3    0    0  0.38194601040E-01 -0.12755581939E+00  0.18542654358E-01  0.89020960714E+00  0.88000000000E+00 0. -1.
        -11    1    4    4    0    0 -0.46672018789E-01  0.75585190118E-01 -0.83226671712E-02  0.89224022622E-01  0.51100000000E-03 0.  1.
         11    1    4    4    0    0 -0.10575051193E-01  0.37290091916E-01 -0.11428958372E-01  0.40413671862E-01  0.51100000000E-03 0. -1.
</event>
<event>
 8    1  0.1177602E+005  0.1043930E+01  0.7957747E-01            NaN
         13   -1    0    0    0    0  0.00000000000E+00  0.00000000000E+00  0.74505805969E-08  0.10566000000E+00  0.10566000000E+00 0.  1.
     999900   -1    0    0    0    0 -0.00000000000E+00 -0.00000000000E+00 -0.74505805969E-08  0.93827000000E+00  0.93827000000E+00 0.  1.
     999902    2    1    2    0    0  0.17677529823E-01  0.92667580718E-02  0.85447208551E-02  0.10222187098E+01  0.10219881167E+01 0.  0.
     999903    2    3    3    0    0  0.10399207983E+00  0.80650078647E-01  0.22645702540E-01  0.13500700022E+00  0.19881509298E-01 0.  0.
         14    1    1    2    0    0 -0.17677529823E-01 -0.92667580718E-02 -0.85447208551E-02  0.21711290157E-01  0.00000000000E+00 0. -1.
     999901    1    3    3    0    0 -0.86314550012E-01 -0.71383320575E-01 -0.14100981685E-01  0.88721170962E+00  0.88000000000E+00 0.  1.
        -11    1    4    4    0    0  0.38957518274E-01  0.29638598339E-01  0.18217919067E-01  0.52233020568E-01  0.51100000000E-03 0.  1.
         11    1    4    4    0    0  0.65034561561E-01  0.51011480308E-01  0.44277834728E-02  0.82773979656E-01  0.51100000000E-03 0. -1.
</event>
<event>
 8    1  0.1177602E+005  0.1043930E+01  0.7957747E-01            NaN
         13   -1    0    0    0    0  0.00000000000E+00  0.00000000000E+00  0.74505805969E-08  0.10566000000E+00  0.10566000000E+00 0.  1.
     999900   -1    0    0    0    0 -0.00000000000E+00 -0.00000000000E+00 -0.74505805969E-08  0.93827000000E+00  0.93827000000E+00 0. -1.
     999902    2    1    2    0    0 -0.16201110896E-02  0.22664387383E-01  0.43138526902E-02  0.10208019101E+01  0.10205398724E+01 0.  0.
     999903    2    3    3    0    0 -0.12768779244E+00  0.21626264144E-01 -0.10956639080E-01  0.13168587390E+00  0.21195608218E-01 0.  0.
         14    1    1    2    0    0  0.16201110896E-02 -0.22664387383E-01 -0.43138526902E-02  0.23128089857E-01  0.00000000000E+00 0.  1.
     999901    1    3    3    0    0  0.12606768135E+00  0.10381232396E-02  0.15270491770E-01  0.88911603624E+00  0.88000000000E+00 0.  1.
        -11    1    4    4    0    0 -0.10855121079E+00  0.20585942013E-01 -0.16538702627E-01  0.11171811034E+00  0.51100000000E-03 0.  1.
         11    1    4    4    0    0 -0.19136581643E-01  0.10403221303E-02  0.55820635475E-02  0.19967763560E-01  0.51100000000E-03 0. -1.
</event>
<event>
 8    1  0.1177602E+005  0.1043930E+01  0.7957747E-01            NaN
         13   -1    0    0    0    0  0.00000000000E+00  0.00000000000E+00  0.74505805969E-08  0.10566000000E+00  0.10566000000E+00 0. -1.
     999900   -1    0    0    0    0 -0.00000000000E+00 -0.00000000000E+00 -0.74505805969E-08  0.93827000000E+00  0.93827000000E+00 0.  1.
     999902    2    1    2    0    0  0.29098482381E-02  0.91843702081E-02  0.21977005461E-01  0.10199339870E+01  0.10196516705E+01 0.  0.
     999903    2    3    3    0    0  0.21699481898E-01  0.62485429080E-01 -0.10801067723E+00  0.12859182434E+00  0.22231835939E-01 0.  0.
         14    1    1    2    0    0 -0.29098482381E-02 -0.91843702081E-02 -0.21977005461E-01  0.23996013042E-01  0.00000000000E+00 0.  1.
     999901    1    3    3    0    0 -0.18789633660E-01 -0.53301058872E-01  0.12998768269E+00  0.89134216262E+00  0.88000000000E+00 0. -1.
        -11    1    4    4    0    0  0.93071622036E-02  0.47511424843E-01 -0.62179396330E-01  0.78806707886E-01  0.51100000000E-03 0. -1.
         11    1    4    4    0    0  0.12392319695E-01  0.14974004238E-01 -0.45831280901E-01  0.49785116454E-01  0.51100000000E-03 0.  1.
</event>
<event>
 8    1  0.1177602E+005  0.1043930E+01  0.7957747E-01            NaN
         13   -1    0    0    0    0  0.00000000000E+00  0.00000000000E+00  0.74505805969E-08  0.10566000000E+00  0.10566000000E+00 0.  1.
     999900   -1    0    0    0    0 -0.00000000000E+00 -0.00000000000E+00 -0.74505805969E-08  0.93827000000E+00  0.93827000000E+00 0.  1.
     999902    2    1    2    0    0  0.13395263752E-02  0.81289449861E-02  0.21729921585E-01  0.10206907322E+01  0.10204261400E+01 0.  0.
     999903    2    3    3    0    0 -0.21908969605E-01  0.17446937134E-01 -0.12365279306E+00  0.12841081461E+00  0.20369720519E-01 0.  0.
         14    1    1    2    0    0 -0.13395263752E-02 -0.81289449861E-02 -0.21729921585E-01  0.23239267837E-01  0.00000000000E+00 0. -1.
     999901    1    3    3    0    0  0.23248495981E-01 -0.93179921480E-02  0.14538271464E+00  0.89227991755E+00  0.88000000000E+00 0. -1.
        -11    1    4    4    0    0 -0.74333563272E-02  0.88062680610E-02 -0.90322199928E-01  0.91055840364E-01  0.51100000000E-03 0.  1.
         11    1    4    4    0    0 -0.14475613278E-01  0.86406690731E-02 -0.33330593132E-01  0.37354974251E-01  0.51100000000E-03 0. -1.
</event>
<event>
 8    1  0.1177602E+005  0.1043930E+01  0.7957747E-01            NaN
         13   -1    0    0    0    0  0.00000000000E+00  0.00000000000E+00  0.74505805969E-08  0.10566000000E+00  0.10566000000E+00 0. -1.
     999900   -1    0    0    0    0 -0.00000000000E+00 -0.00000000000E+00 -0.74505805969E-08  0.93827000000E+00  0.93827000000E+00 0.  1.
     999902    2    1    2    0    0  0.23340440122E-01  0.39389210899E-02  0.10954807793E-02  0.10202341919E+01  0.10199589771E+01 0.  0.
     999903    2    3    3    0    0 -0.10473743436E+00 -0.36659129356E-01 -0.60295927872E-01  0.12792199949E+00  0.20362149031E-01 0.  0.
         14    1    1    2    0    0 -0.23340440122E-01 -0.39389210899E-02 -0.10954807793E-02  0.23695808122E-01  0.00000000000E+00 0.  1.
     999901    1    3    3    0    0  0.12807787448E+00  0.40598050446E-01  0.61391408651E-01  0.89231219239E+00  0.88000000000E+00 0. -1.
        -11    1    4    4    0    0 -0.35306744254E-01 -0.22759839393E-01 -0.22594753161E-01  0.47700738678E-01  0.51100000000E-03 0. -1.
         11    1    4    4    0    0 -0.69430690107E-01 -0.13899289963E-01 -0.37701174711E-01  0.80221260809E-01  0.51100000000E-03 0.  1.
</event>
<event>
 8    1  0.1177602E+005  0.1043930E+01  0.7957747E-01            NaN
         13   -1    0    0    0    0  0.00000000000E+00  0.00000000000E+00  0.74505805969E-08  0.10566000000E+00  0.10566000000E+00 0. -1.
     999900   -1    0    0    0    0 -0.00000000000E+00 -0.00000000000E+00 -0.74505805969E-08  0.93827000000E+00  0.93827000000E+00 0.  1.
     999902    2    1    2    0    0 -0.45539259539E-02  0.10954553561E-01 -0.19932175588E-01  0.10207344808E+01  0.10204708954E+01 0.  0.
     999903    2    3    3    0    0  0.36235509294E-01 -0.11993028005E+00  0.23839104005E-01  0.12904476877E+00  0.19696833786E-01 0.  0.
         14    1    1    2    0    0  0.45539259539E-02 -0.10954553561E-01  0.19932175588E-01  0.23195519158E-01  0.00000000000E+00 0. -1.
     999901    1    3    3    0    0 -0.40789435248E-01  0.13088483361E+00 -0.43771279594E-01  0.89168971207E+00  0.88000000000E+00 0. -1.
        -11    1    4    4    0    0  0.33038594799E-01 -0.88307592353E-01  0.11667319989E-01  0.95006142381E-01  0.51100000000E-03 0.  1.
         11    1    4    4    0    0  0.31969144954E-02 -0.31622687695E-01  0.12171784017E-01  0.34038626389E-01  0.51100000000E-03 0. -1.
</event>
<event>
 8    1  0.1177602E+005  0.1043930E+01  0.7957747E-01            NaN
         13   -1    0    0    0    0  0.00000000000E+00  0.00000000000E+00  0.74505805969E-08  0.10566000000E+00  0.10566000000E+00 0.  1.
     999900   -1    0    0    0    0 -0.00000000000E+00 -0.00000000000E+00 -0.74505805969E-08  0.93827000000E+00  0.93827000000E+00 0. -1.
     999902    2    1    2    0    0 -0.17150613652E-01  0.12538397248E-01  0.11489402920E-01  0.10197771258E+01  0.10194910617E+01 0.  0.
     999903    2    3    3    0    0 -0.39385075597E-01  0.11643434157E+00  0.45850746021E-01  0.13272050951E+00  0.20107278750E-01 0.  0.
         14    1    1    2    0    0  0.17150613652E-01 -0.12538397248E-01 -0.11489402920E-01  0.24152874232E-01  0.00000000000E+00 0. -1.
     999901    1    3    3    0    0  0.22234461944E-01 -0.10389594432E+00 -0.34361343101E-01  0.88705661626E+00  0.88000000000E+00 0. -1.
        -11    1    4    4    0    0 -0.29418839793E-01  0.78887316263E-01  0.21599803083E-01  0.86922318286E-01  0.51100000000E-03 0.  1.
         11    1    4    4    0    0 -0.99662358035E-02  0.37547025303E-01  0.24250942938E-01  0.45798191227E-01  0.51100000000E-03 0. -1.
</event>
<event>
 8    1  0.1177602E+005  0.1043930E+01  0.7957747E-01            NaN
         13   -1    0    0    0    0  0.00000000000E+00  0.00000000000E+00  0.74505805969E-08  0.10566000000E+00  0.10566000000E+00 0.  1.
     999900   -1    0    0    0    0 -0.00000000000E+00 -0.00000000000E+00 -0.74505805969E-08  0.93827000000E+00  0.93827000000E+00 0.  1.
     999902    2    1    2    0    0 -0.19766215315E-01  0.10485471312E-01 -0.13545345271E-01  0.10177742214E+01  0.10174380772E+01 0.  0.
     999903    2    3    3    0    0 -0.70829639717E-01  0.10243384430E+00 -0.36025631707E-01  0.13122623064E+00  0.20321101095E-01 0.  0.
         14    1    1    2    0    0  0.19766215315E-01 -0.10485471312E-01  0.13545345271E-01  0.26155778616E-01  0.00000000000E+00 0.  1.
     999901    1    3    3    0    0  0.51063424403E-01 -0.91948372984E-01  0.22480286436E-01  0.88654799074E+00  0.88000000000E+00 0. -1.
        -11    1    4    4    0    0 -0.27285343620E-01  0.23932981482E-01 -0.12932449416E-01  0.38532933290E-01  0.51100000000E-03 0.  1.
         11    1    4    4    0    0 -0.43544296098E-01  0.78500862813E-01 -0.23093182291E-01  0.92693297354E-01  0.51100000000E-03 0. -1.
</event>
<event>
 8    1  0.1177602E+005  0.1043930E+01  0.7957747E-01            NaN
         13   -1    0    0    0    0  0.00000000000E+00  0.00000000000E+00  0.74505805969E-08  0.10566000000E+00  0.10566000000E+00 0. -1.
     999900   -1    0    0    0    0 -0.00000000000E+00 -0.00000000000E+00 -0.74505805969E-08  0.93827000000E+00  0.93827000000E+00 0. -1.
     999902    2    1    2    0    0 -0.54819255630E-02  0.13812701928E-01  0.18929369622E-01  0.10198641886E+01  0.10195802077E+01 0.  0.
     999903    2    3    3    0    0 -0.12666112315E+00 -0.18659667431E-01  0.19985730119E-01  0.13096601190E+00  0.19011669017E-01 0.  0.
         14    1    1    2    0    0  0.54819255630E-02 -0.13812701928E-01 -0.18929369622E-01  0.24065811367E-01  0.00000000000E+00 0.  1.
     999901    1    3    3    0    0  0.12117919759E+00  0.32472369359E-01 -0.10563604966E-02  0.88889817673E+00  0.88000000000E+00 0. -1.
        -11    1    4    4    0    0 -0.10538931299E-01  0.28260840179E-02  0.46815732805E-02  0.11884194259E-01  0.51100000000E-03 0. -1.
         11    1    4    4    0    0 -0.11612219185E+00 -0.21485751449E-01  0.15304156839E-01  0.11908181764E+00  0.51100000000E-03 0.  1.
</event>
<event>
 8    1  0.1177602E+005  0.1043930E+01  0.7957747E-01            NaN
         13   -1    0    0    0    0  0.00000000000E+00  0.00000000000E+00  0.74505805969E-08  0.10566000000E+00  0.10566000000E+00 0. -1.
     999900   -1    0    0    0    0 -0.00000000000E+00 -0.00000000000E+00 -0.74505805969E-08  0.93827000000E+00  0.93827000000E+00 0.  1.
     999902    2    1    2    0    0  0.19715894317E-01 -0.40557922321E-02 -0.15078924574E-01  0.10187796540E+01  0.10184691667E+01 0.  0.
     999903    2    3    3    0    0  0.81672031035E-01  0.72605115341E-01 -0.70500689491E-01  0.13154404284E+00  0.19790516932E-01 0.  0.
         14    1    1    2    0    0 -0.19715894317E-01  0.40557922321E-02  0.15078924574E-01  0.25150346035E-01  0.00000000000E+00 0. -1.
     999901    1    3    3    0    0 -0.61956136718E-01 -0.76660907573E-01  0.55421764916E-01  0.88723561113E+00  0.88000000000E+00 0.  1.
        -11    1    4    4    0    0  0.15670304997E-02  0.45987281239E-02  0.20593652860E-03  0.48895210193E-02  0.51100000000E-03 0. -1.
         11    1    4    4    0    0  0.80105000535E-01  0.68006387217E-01 -0.70706626019E-01  0.12665452182E+00  0.51100000000E-03 0.  1.
</event>
<event>
 8    1  0.1177602E+005  0.1043930E+01  0.7957747E-01            NaN
         13   -1    0    0    0    0  0.00000000000E+00  0.00000000000E+00  0.74505805969E-08  0.10566000000E+00  0.10566000000E+00 0. -1.
     999900   -1    0    0    0    0 -0.00000000000E+00 -0.00000000000E+00 -0.74505805969E-08  0.93827000000E+00  0.93827000000E+00 0. -1.
     999902    2    1    2    0    0  0.13399856396E-01  0.19517483761E-01  0.15137244886E-02  0.10202070220E+01  0.10199311683E+01 0.  0.
     999903    2    3    3    0    0 -0.10624076200E-01 -0.10566503519E+00  0.69526480177E-01  0.12842591245E+00  0.19527234493E-01 0.  0.
         14    1    1    2    0    0 -0.13399856396E-01 -0.19517483761E-01 -0.15137244886E-02  0.23722978009E-01  0.00000000000E+00 0.  1.
     999901    1    3    3    0    0  0.24023932596E-01  0.12518251895E+00 -0.68012755689E-01  0.89178110954E+00  0.88000000000E+00 0. -1.
        -11    1    4    4    0    0 -0.13217579034E-01 -0.60686395055E-01  0.32457581757E-01  0.70080658351E-01  0.51100000000E-03 0.  1.
         11    1    4    4    0    0  0.25935028338E-02 -0.44978640136E-01  0.37068898420E-01  0.58345254104E-01  0.51100000000E-03 0. -1.
</event>
<event>
 8    1  0.1177602E+005  0.1043930E+01  0.7957747E-01            NaN
         13   -1    0    0    0    0  0.00000000000E+00  0.00000000000E+00  0.74505805969E-08  0.10566000000E+00  0.10566000000E+00 0.  1.
     999900   -1    0    0    0    0 -0.00000000000E+00 -0.00000000000E+00 -0.74505805969E-08  0.93827000000E+00  0.93827000000E+00 0. -1.
     999902    2    1    2    0    0  0.20528773649E-01  0.12115667842E-01  0.21445495921E-02  0.10199963616E+01  0.10197155283E+01 0.  0.
     999903    2    3    3    0    0  0.17357979050E-01 -0.10998387393E+00 -0.62399973322E-01  0.12921897779E+00  0.20150324832E-01 0.  0.
         14    1    1    2    0    0 -0.20528773649E-01 -0.12115667842E-01 -0.21445495921E-02  0.23933638414E-01  0.00000000000E+00 0.  1.
     999901    1    3    3    0    0  0.31707945994E-02  0.12209954177E+00  0.64544522914E-01  0.89077738379E+00  0.88000000000E+00 0. -1.
        -11    1    4    4    0    0 -0.20236152654E-02 -0.50396229638E-01 -0.29775428551E-01  0.58572282240E-01  0.51100000000E-03 0. -1.
         11    1    4    4    0    0  0.19381594315E-01 -0.59587644289E-01 -0.32624544771E-01  0.70646695553E-01  0.51100000000E-03 0.  1.
</event>
<event>
 8    1  0.1177602E+005  0.1043930E+01  0.7957747E-01            NaN
         13   -1    0    0    0    0  0.00000000000E+00  0.00000000000E+00  0.74505805969E-08  0.10566000000E+00  0.10566000000E+00 0. -1.
     999900   -1    0    0    0    0 -0.00000000000E+00 -0.00000000000E+00 -0.74505805969E-08  0.93827000000E+00  0.93827000000E+00 0.  1.
     999902    2    1    2    0    0 -0.11575065253E-01 -0.20528100015E-01  0.46196486314E-02  0.10199148760E+01  0.10196321043E+01 0.  0.
     999903    2    3    3    0    0 -0.84595842892E-01 -0.38196119979E-01 -0.91014783368E-01  0.13155113438E+00  0.20164571622E-01 0.  0.
         14    1    1    2    0    0  0.11575065253E-01  0.20528100015E-01 -0.46196486314E-02  0.24015123971E-01  0.00000000000E+00 0. -1.
     999901    1    3    3    0    0  0.73020777638E-01  0.17668019963E-01  0.95634432000E-01  0.88836374165E+00  0.88000000000E+00 0. -1.
        -11    1    4    4    0    0 -0.28753918044E-01 -0.15036909613E-01 -0.19315612281E-01  0.37765731191E-01  0.51100000000E-03 0.  1.
         11    1    4    4    0    0 -0.55841924848E-01 -0.23159210365E-01 -0.71699171087E-01  0.93785403187E-01  0.51100000000E-03 0. -1.
</event>
<event>
 8    1  0.1177602E+005  0.1043930E+01  0.7957747E-01            NaN
         13   -1    0    0    0    0  0.00000000000E+00  0.00000000000E+00  0.74505805969E-08  0.10566000000E+00  0.10566000000E+00 0.  1.
     999900   -1    0    0    0    0 -0.00000000000E+00 -0.00000000000E+00 -0.74505805969E-08  0.93827000000E+00  0.93827000000E+00 0.  1.
     999902    2    1    2    0    0 -0.15398585767E-01 -0.11550665520E-01 -0.21589016590E-01  0.10150056166E+01  0.10145934071E+01 0.  0.
     999903    2    3    3    0    0  0.74447270776E-01  0.86243843607E-01  0.41415504415E-01  0.12281414970E+00  0.19689455898E-01 0.  0.
         14    1    1    2    0    0  0.15398585767E-01  0.11550665520E-01  0.21589016590E-01  0.28924383398E-01  0.00000000000E+00 0.  1.
     999901    1    3    3    0    0 -0.89845856543E-01 -0.97794509127E-01 -0.63004521005E-01  0.89219146691E+00  0.88000000000E+00 0. -1.
        -11    1    4    4    0    0  0.21155602137E-01  0.23346656238E-01  0.21055260011E-01  0.37897373977E-01  0.51100000000E-03 0.  1.
         11    1    4    4    0    0  0.53291668639E-01  0.62897187369E-01  0.20360244404E-01  0.84916775719E-01  0.51100000000E-03 0. -1.
</event>
<event>
 7    1  0.1177602E+005  0.1043930E+01  0.7957747E-01            NaN
         13   -1    0    0    0    0  0.00000000000E+00  0.00000000000E+00  0.74505805969E-08  0.10566000000E+00  0.10566000000E+00 0. -1.
     999900   -1    0    0    0    0 -0.00000000000E+00 -0.00000000000E+00 -0.74505805969E-08  0.93827000000E+00  0.93827000000E+00 0.  1.
     999903    2    1    2    0    0  0.99088399206E-01 -0.23486593204E-02 -0.23630409650E-01  0.10395022423E+00  0.20572452429E-01 0.  0.
         14    1    1    2    0    0  0.33330670957E-01  0.19743012630E-01  0.31403240532E-01  0.49868664410E-01  0.00000000000E+00 0. -1.
     999901    1    1    2    0    0 -0.13241907016E+00 -0.17394353310E-01 -0.77728308815E-02  0.89011111136E+00  0.88000000000E+00 0.  1.
        -11    1    3    3    0    0  0.42980500335E-01 -0.99954079974E-02 -0.15324564907E-01  0.46715468537E-01  0.51100000000E-03 0.  1.
         11    1    3    3    0    0  0.56107898871E-01  0.76467486770E-02 -0.83058447438E-02  0.57234755691E-01  0.51100000000E-03 0. -1.
</event>
<event>
 8    1  0.1177602E+005  0.1043930E+01  0.7957747E-01            NaN
         13   -1    0    0    0    0  0.00000000000E+00  0.00000000000E+00  0.74505805969E-08  0.10566000000E+00  0.10566000000E+00 0.  1.
     999900   -1    0    0    0    0 -0.00000000000E+00 -0.00000000000E+00 -0.74505805969E-08  0.93827000000E+00  0.93827000000E+00 0.  1.
     999902    2    1    2    0    0  0.84543236107E-02  0.28115538919E-02  0.98786054711E-02  0.10306270955E+01  0.10305412377E+01 0.  0.
     999903    2    3    3    0    0  0.12029250053E-01  0.57688441914E-01  0.12662906885E+00  0.14121441080E+00  0.20830975787E-01 0.  0.
         14    1    1    2    0    0 -0.84543236107E-02 -0.28115538919E-02 -0.98786054711E-02  0.13302904535E-01  0.00000000000E+00 0. -1.
     999901    1    3    3    0    0 -0.35749264421E-02 -0.54876888022E-01 -0.11675046338E+00  0.88941268466E+00  0.88000000000E+00 0.  1.
        -11    1    4    4    0    0 -0.52953591855E-02  0.23845234205E-01  0.52257323899E-01  0.57686437273E-01  0.51100000000E-03 0. -1.
         11    1    4    4    0    0  0.17324609238E-01  0.33843207709E-01  0.74371744956E-01  0.83527973530E-01  0.51100000000E-03 0.  1.
</event>
<event>
 8    1  0.1177602E+005  0.1043930E+01  0.7957747E-01            NaN
         13   -1    0    0    0    0  0.00000000000E+00  0.00000000000E+00  0.74505805969E-08  0.10566000000E+00  0.10566000000E+00 0. -1.
     999900   -1    0    0    0    0 -0.00000000000E+00 -0.00000000000E+00 -0.74505805969E-08  0.93827000000E+00  0.93827000000E+00 0. -1.
     999902    2    1    2    0    0  0.15294022280E-01  0.13908353516E-01  0.17026043770E-01  0.10171487457E+01  0.10167961130E+01 0.  0.
     999903    2    3    3    0    0  0.10233056653E+00 -0.68504021657E-01 -0.26472466977E-01  0.12795850731E+00  0.22544228913E-01 0.  0.
         14    1    1    2    0    0 -0.15294022280E-01 -0.13908353516E-01 -0.17026043770E-01  0.26781254292E-01  0.00000000000E+00 0.  1.
     999901    1    3    3    0    0 -0.87036544248E-01  0.82412375173E-01  0.43498510747E-01  0.88919023839E+00  0.88000000000E+00 0.  1.
        -11    1    4    4    0    0  0.35871584314E-01 -0.15131392041E-01 -0.15935935095E-01  0.42070711126E-01  0.51100000000E-03 0. -1.
         11    1    4    4    0    0  0.66458982214E-01 -0.53372629616E-01 -0.10536531881E-01  0.85887796189E-01  0.51100000000E-03 0.  1.
</event>
<event>
 8    1  0.1177602E+005  0.1043930E+01  0.7957747E-01            NaN
         13   -1    0    0    0    0  0.00000000000E+00  0.00000000000E+00  0.74505805969E-08  0.10566000000E+00  0.10566000000E+00 0.  1.
     999900   -1    0    0    0    0 -0.00000000000E+00 -0.00000000000E+00 -0.74505805969E-08  0.93827000000E+00  0.93827000000E+00 0.  1.
     999902    2    1    2    0    0 -0.14297316589E-01 -0.14902190253E-01  0.11731838868E-01  0.10201786931E+01  0.10199021724E+01 0.  0.
     999903    2    3    3    0    0 -0.60573145393E-01  0.11264482617E+00  0.41115878182E-02  0.12974747063E+00  0.21436841571E-01 0.  0.
         14    1    1    2    0    0  0.14297316589E-01  0.14902190253E-01 -0.11731838868E-01  0.23751306895E-01  0.00000000000E+00 0. -1.
     999901    1    3    3    0    0  0.46275828804E-01 -0.12754701642E+00  0.76202510496E-02  0.89043122247E+00  0.88000000000E+00 0.  1.
        -11    1    4    4    0    0 -0.56996792543E-01  0.92596016502E-01 -0.10253835329E-02  0.10873807597E+00  0.51100000000E-03 0.  1.
         11    1    4    4    0    0 -0.35763528501E-02  0.20048809663E-01  0.51369713511E-02  0.21009394667E-01  0.51100000000E-03 0. -1.
</event>
<event>
 8    1  0.1177602E+005  0.1043930E+01  0.7957747E-01            NaN
         13   -1    0    0    0    0  0.00000000000E+00  0.00000000000E+00  0.74505805969E-08  0.10566000000E+00  0.10566000000E+00 0. -1.
     999900   -1    0    0    0    0 -0.00000000000E+00 -0.00000000000E+00 -0.74505805969E-08  0.93827000000E+00  0.93827000000E+00 0.  1.
     999902    2    1    2    0    0  0.17458367755E-02  0.19460074029E-01 -0.14115920991E-01  0.10198260241E+01  0.10195411310E+01 0.  0.
     999903    2    3    3    0    0 -0.18279789236E-01  0.12882662273E+00  0.95551971723E-02  0.13251413449E+00  0.23200099717E-01 0.  0.
         14    1    1    2    0    0 -0.17458367755E-02 -0.19460074029E-01  0.14115920991E-01  0.24103975869E-01  0.00000000000E+00 0.  1.
     999901    1    3    3    0    0  0.20025626011E-01 -0.10936654870E+00 -0.23671118163E-01  0.88731188965E+00  0.88000000000E+00 0.  1.
        -11    1    4    4    0    0 -0.13973711754E-01  0.51554840572E-01 -0.53977438082E-02  0.53689505174E-01  0.51100000000E-03 0.  1.
         11    1    4    4    0    0 -0.43060774822E-02  0.77271782158E-01  0.14952940981E-01  0.78824629311E-01  0.51100000000E-03 0. -1.
</event>
<event>
 8    1  0.1177602E+005  0.1043930E+01  0.7957747E-01            NaN
         13   -1    0    0    0    0  0.00000000000E+00  0.00000000000E+00  0.74505805969E-08  0.10566000000E+00  0.10566000000E+00 0. -1.
     999900   -1    0    0    0    0 -0.00000000000E+00 -0.00000000000E+00 -0.74505805969E-08  0.93827000000E+00  0.93827000000E+00 0. -1.
     999902    2    1    2    0    0 -0.23300763655E-01 -0.45357394553E-02  0.22186575154E-02  0.10200884195E+01  0.10198097679E+01 0.  0.
     999903    2    3    3    0    0  0.44736108943E-01 -0.10978834558E+00  0.49252982870E-01  0.12996519495E+00  0.20255747520E-01 0.  0.
         14    1    1    2    0    0  0.23300763655E-01  0.45357394553E-02 -0.22186575154E-02  0.23841580495E-01  0.00000000000E+00 0.  1.
     999901    1    3    3    0    0 -0.68036872598E-01  0.10525260613E+00 -0.47034325355E-01  0.89012322455E+00  0.88000000000E+00 0.  1.
        -11    1    4    4    0    0  0.33493911292E-01 -0.80902350551E-01  0.45671569250E-01  0.98758218783E-01  0.51100000000E-03 0.  1.
         11    1    4    4    0    0  0.11242197650E-01 -0.28885995032E-01  0.35814136204E-02  0.31206976168E-01  0.51100000000E-03 0. -1.
</event>
<event>
 8    1  0.1177602E+005  0.1043930E+01  0.7957747E-01            NaN
         13   -1    0    0    0    0  0.00000000000E+00  0.00000000000E+00  0.74505805969E-08  0.10566000000E+00  0.10566000000E+00 0.  1.
     999900   -1    0    0    0    0 -0.00000000000E+00 -0.00000000000E+00 -0.74505805969E-08  0.93827000000E+00  0.93827000000E+00 0. -1.
     999902    2    1    2    0    0 -0.18988583100E-01 -0.77450967813E-02  0.78444602011E-03  0.10234076179E+01  0.10232018296E+01 0.  0.
     999903    2    3    3    0    0  0.29500653810E-03  0.43965274335E-01 -0.12398271624E+00  0.13289503286E+00  0.18877061613E-01 0.  0.
         14    1    1    2    0    0  0.18988583100E-01  0.77450967813E-02 -0.78444602011E-03  0.20522382119E-01  0.00000000000E+00 0. -1.
     999901    1    3    3    0    0 -0.19283589638E-01 -0.51710371117E-01  0.12476716226E+00  0.89051258503E+00  0.88000000000E+00 0.  1.
        -11    1    4    4    0    0 -0.75220995844E-02  0.27598360332E-01 -0.89017284370E-01  0.93501815559E-01  0.51100000000E-03 0.  1.
         11    1    4    4    0    0  0.78171061225E-02  0.16366914003E-01 -0.34965431870E-01  0.39393217297E-01  0.51100000000E-03 0. -1.
</event>
<event>
 8    1  0.1177602E+005  0.1043930E+01  0.7957747E-01            NaN
         13   -1    0    0    0    0  0.00000000000E+00  0.00000000000E+00  0.74505805969E-08  0.10566000000E+00  0.10566000000E+00 0.  1.
     999900   -1    0    0    0    0 -0.00000000000E+00 -0.00000000000E+00 -0.74505805969E-08  0.93827000000E+00  0.93827000000E+00 0. -1.
     999902    2    1    2    0    0  0.21878482070E-01 -0.24060393382E-02  0.36562187868E-02  0.10216180091E+01  0.10213743347E+01 0.  0.
     999903    2    3    3    0    0  0.22034561388E-02  0.12897726871E+00  0.17371709162E-01  0.13154116130E+00  0.19008150171E-01 0.  0.
         14    1    1    2    0    0 -0.21878482070E-01  0.24060393382E-02 -0.36562187868E-02  0.22311990920E-01  0.00000000000E+00 0. -1.
     999901    1    3    3    0    0  0.19675025931E-01 -0.13138330805E+00 -0.13715490375E-01  0.89007684778E+00  0.88000000000E+00 0. -1.
        -11    1    4    4    0    0  0.90205119967E-02  0.76809628897E-01  0.15605242367E-01  0.78897867134E-01  0.51100000000E-03 0. -1.
         11    1    4    4    0    0 -0.68170558579E-02  0.52167639817E-01  0.17664667949E-02  0.52643294165E-01  0.51100000000E-03 0.  1.
</event>
<event>
 8    1  0.1177602E+005  0.1043930E+01  0.7957747E-01            NaN
         13   -1    0    0    0    0  0.00000000000E+00  0.00000000000E+00  0.74505805969E-08  0.10566000000E+00  0.10566000000E+00 0. -1.
     999900   -1    0    0    0    0 -0.00000000000E+00 -0.00000000000E+00 -0.74505805969E-08  0.93827000000E+00  0.93827000000E+00 0.  1.
     999902    2    1    2    0    0 -0.20143150539E-01  0.12300678739E-01 -0.14067241224E-02  0.10202861407E+01  0.10200121454E+01 0.  0.
     999903    2    3    3    0    0 -0.27656232966E-01  0.57810281349E-01 -0.11360489366E+00  0.13196412722E+00  0.20039040877E-01 0.  0.
         14    1    1    2    0    0  0.20143150539E-01 -0.12300678739E-01  0.14067241224E-02  0.23643859326E-01  0.00000000000E+00 0.  1.
     999901    1    3    3    0    0  0.75130824277E-02 -0.45509602610E-01  0.11219816953E+00  0.88832201345E+00  0.88000000000E+00 0. -1.
        -11    1    4    4    0    0 -0.18306128968E-01  0.27213510450E-01 -0.40172002274E-01  0.51862707185E-01  0.51100000000E-03 0.  1.
         11    1    4    4    0    0 -0.93501039980E-02  0.30596770898E-01 -0.73432891382E-01  0.80101420037E-01  0.51100000000E-03 0. -1.
</event>
<event>
 8    1  0.1177602E+005  0.1043930E+01  0.7957747E-01            NaN
         13   -1    0    0    0    0  0.00000000000E+00  0.00000000000E+00  0.74505805969E-08  0.10566000000E+00  0.10566000000E+00 0. -1.
     999900   -1    0    0    0    0 -0.00000000000E+00 -0.00000000000E+00 -0.74505805969E-08  0.93827000000E+00  0.93827000000E+00 0. -1.
     999902    2    1    2    0    0  0.18716069983E-01  0.12710994345E-01  0.69425147166E-02  0.10202644308E+01  0.10199899263E+01 0.  0.
     999903    2    3    3    0    0 -0.75628957247E-01  0.78702075149E-01  0.68678403298E-01  0.13062004861E+00  0.20763386320E-01 0.  0.
         14    1    1    2    0    0 -0.18716069983E-01 -0.12710994345E-01 -0.69425147166E-02  0.23665569155E-01  0.00000000000E+00 0.  1.
     999901    1    3    3    0    0  0.94345027230E-01 -0.65991080804E-01 -0.61735888581E-01  0.88964438224E+00  0.88000000000E+00 0. -1.
        -11    1    4    4    0    0 -0.56535319410E-01  0.44621581296E-01  0.43513411642E-01  0.84148713429E-01  0.51100000000E-03 0. -1.
         11    1    4    4    0    0 -0.19093637838E-01  0.34080493853E-01  0.25164991656E-01  0.46471335178E-01  0.51100000000E-03 0.  1.
</event>
<event>
 8    1  0.1177602E+005  0.1043930E+01  0.7957747E-01            NaN
         13   -1    0    0    0    0  0.00000000000E+00  0.00000000000E+00  0.74505805969E-08  0.10566000000E+00  0.10566000000E+00 0.  1.
     999900   -1    0    0    0    0 -0.00000000000E+00 -0.00000000000E+00 -0.74505805969E-08  0.93827000000E+00  0.93827000000E+00 0. -1.
     999902    2    1    2    0    0 -0.17985216707E-01  0.92780874389E-02 -0.12140012158E-01  0.10203306182E+01  0.10200576648E+01 0.  0.
     999903    2    3    3    0    0  0.33622299839E-01  0.28720024884E-01 -0.12206769209E+00  0.13177818895E+00  0.22575888783E-01 0.  0.
         14    1    1    2    0    0  0.17985216707E-01 -0.92780874389E-02  0.12140012158E-01  0.23599381808E-01  0.00000000000E+00 0. -1.
     999901    1    3    3    0    0 -0.51607516546E-01 -0.19441937445E-01  0.10992767994E+00  0.88855242924E+00  0.88000000000E+00 0.  1.
        -11    1    4    4    0    0  0.54686460554E-02  0.19090502354E-01 -0.50893595772E-01  0.54633072231E-01  0.51100000000E-03 0.  1.
         11    1    4    4    0    0  0.28153653784E-01  0.96295225294E-02 -0.71174096321E-01  0.77145116719E-01  0.51100000000E-03 0. -1.
</event>
<event>
 8    1  0.1177602E+005  0.1043930E+01  0.7957747E-01            NaN
         13   -1    0    0    0    0  0.00000000000E+00  0.00000000000E+00  0.74505805969E-08  0.10566000000E+00  0.10566000000E+00 0. -1.
     999900   -1    0    0    0    0 -0.00000000000E+00 -0.00000000000E+00 -0.74505805969E-08  0.93827000000E+00  0.93827000000E+00 0. -1.
     999902    2    1    2    0    0  0.17168572213E-01  0.20720018286E-01  0.77806328218E-02  0.10159189794E+01  0.10155327446E+01 0.  0.
     999903    2    3    3    0    0  0.19180785126E-01 -0.12143928752E+00  0.75751346930E-02  0.12450809798E+00  0.18151603977E-01 0.  0.
         14    1    1    2    0    0 -0.17168572213E-01 -0.20720018286E-01 -0.77806328218E-02  0.28011020630E-01  0.00000000000E+00 0.  1.
     999901    1    3    3    0    0 -0.20122129129E-02  0.14215930580E+00  0.20549812887E-03  0.89141088139E+00  0.88000000000E+00 0.  1.
        -11    1    4    4    0    0  0.78915006133E-02 -0.40171815042E-01 -0.58795870148E-02  0.41362799351E-01  0.51100000000E-03 0.  1.
         11    1    4    4    0    0  0.11289284513E-01 -0.81267472474E-01  0.13454721708E-01  0.83145298631E-01  0.51100000000E-03 0. -1.
</event>
<event>
 8    1  0.1177602E+005  0.1043930E+01  0.7957747E-01            NaN
         13   -1    0    0    0    0  0.00000000000E+00  0.00000000000E+00  0.74505805969E-08  0.10566000000E+00  0.10566000000E+00 0.  1.
     999900   -1    0    0    0    0 -0.00000000000E+00 -0.00000000000E+00 -0.74505805969E-08  0.93827000000E+00  0.93827000000E+00 0. -1.
     999902    2    1    2    0    0 -0.16095901975E-01  0.18773112639E-01  0.92870236257E-03  0.10191838830E+01  0.10188834168E+01 0.  0.
     999903    2    3    3    0    0  0.83227261865E-02  0.47560656137E-01  0.11954100626E+00  0.13042414567E+00  0.19726170765E-01 0.  0.
         14    1    1    2    0    0  0.16095901975E-01 -0.18773112639E-01 -0.92870236257E-03  0.24746117000E-01  0.00000000000E+00 0. -1.
     999901    1    3    3    0    0 -0.24418628161E-01 -0.28787543499E-01 -0.11861230390E+00  0.88875973733E+00  0.88000000000E+00 0. -1.
        -11    1    4    4    0    0 -0.14680603553E-02  0.28853121117E-01  0.50025105613E-01  0.57770495168E-01  0.51100000000E-03 0.  1.
         11    1    4    4    0    0  0.97907865418E-02  0.18707535020E-01  0.69515900646E-01  0.72653650502E-01  0.51100000000E-03 0. -1.
</event>
<event>
 8    1  0.1177602E+005  0.1043930E+01  0.7957747E-01            NaN
         13   -1    0    0    0    0  0.00000000000E+00  0.00000000000E+00  0.74505805969E-08  0.10566000000E+00  0.10566000000E+00 0.  1.
     999900   -1    0    0    0    0 -0.00000000000E+00 -0.00000000000E+00 -0.74505805969E-08  0.93827000000E+00  0.93827000000E+00 0.  1.
     999902    2    1    2    0    0 -0.10091795500E-01 -0.58356408718E-02 -0.20345529005E-01  0.10204813414E+01  0.10202119037E+01 0.  0.
     999903    2    3    3    0    0  0.82472617968E-01 -0.56842548407E-01 -0.83419022377E-01  0.13191612665E+00  0.20256434825E-01 0.  0.
         14    1    1    2    0    0  0.10091795500E-01  0.58356408718E-02  0.20345529005E-01  0.23448658625E-01  0.00000000000E+00 0.  1.
     999901    1    3    3    0    0 -0.92564413468E-01  0.51006907535E-01  0.63073493372E-01  0.88856521473E+00  0.88000000000E+00 0.  1.
        -11    1    4    4    0    0  0.13672867196E-01 -0.12377231317E-01 -0.25984100453E-01  0.31868130630E-01  0.51100000000E-03 0.  1.
         11    1    4    4    0    0  0.68799750771E-01 -0.44465317089E-01 -0.57434921923E-01  0.10004799602E+00  0.51100000000E-03 0. -1.
</event>
<event>
 8    1  0.1177602E+005  0.1043930E+01  0.7957747E-01            NaN
         13   -1    0    0    0    0  0.00000000000E+00  0.00000000000E+00  0.74505805969E-08  0.10566000000E+00  0.10566000000E+00 0.  1.
     999900   -1    0    0    0    0 -0.00000000000E+00 -0.00000000000E+00 -0.74505805969E-08  0.93827000000E+00  0.93827000000E+00 0. -1.
     999902    2    1    2    0    0  0.10000442985E-01 -0.66211388941E-02 -0.20163427653E-01  0.10204691357E+01  0.10201994142E+01 0.  0.
     999903    2    3    3    0    0 -0.53418746711E-01  0.16286626638E-01 -0.11840058937E+00  0.13243912532E+00  0.20065035419E-01 0.  0.
         14    1    1    2    0    0 -0.10000442985E-01  0.66211388941E-02  0.20163427653E-01  0.23460864325E-01  0.00000000000E+00 0. -1.
     999901    1    3    3    0    0  0.63419189695E-01 -0.22907765532E-01  0.98237161715E-01  0.88803001035E+00  0.88000000000E+00 0.  1.
        -11    1    4    4    0    0 -0.25332589850E-01  0.40885291756E-02 -0.33620059600E-01  0.42296875864E-01  0.51100000000E-03 0.  1.
         11    1    4    4    0    0 -0.28086156860E-01  0.12198097462E-01 -0.84780529768E-01  0.90142249460E-01  0.51100000000E-03 0. -1.
</event>
<event>
 8    1  0.1177602E+005  0.1043930E+01  0.7957747E-01            NaN
         13   -1    0    0    0    0  0.00000000000E+00  0.00000000000E+00  0.74505805969E-08  0.10566000000E+00  0.10566000000E+00 0. -1.
     999900   -1    0    0    0    0 -0.00000000000E+00 -0.00000000000E+00 -0.74505805969E-08  0.93827000000E+00  0.93827000000E+00 0.  1.
     999902    2    1    2    0    0 -0.40339842656E-02 -0.23776674678E-01 -0.14743759639E-03  0.10198130967E+01  0.10195278942E+01 0.  0.
     999903    2    3    3    0    0 -0.25201331338E-01  0.86415385822E-01  0.89139143471E-01  0.12820643434E+00  0.19707280350E-01 0.  0.
         14    1    1    2    0    0  0.40339842656E-02  0.23776674678E-01  0.14743759639E-03  0.24116903318E-01  0.00000000000E+00 0.  1.
     999901    1    3    3    0    0  0.21167347072E-01 -0.11019206050E+00 -0.89286581068E-01  0.89160666234E+00  0.88000000000E+00 0.  1.
        -11    1    4    4    0    0 -0.11738835569E-01  0.17487841851E-01  0.13675681147E-01  0.25117926844E-01  0.51100000000E-03 0. -1.
         11    1    4    4    0    0 -0.13462495769E-01  0.68927543971E-01  0.75463462324E-01  0.10308850749E+00  0.51100000000E-03 0.  1.
</event>
<event>
 8    1  0.1177602E+005  0.1043930E+01  0.7957747E-01            NaN
         13   -1    0    0    0    0  0.00000000000E+00  0.00000000000E+00  0.74505805969E-08  0.10566000000E+00  0.10566000000E+00 0. -1.
     999900   -1    0    0    0    0 -0.00000000000E+00 -0.00000000000E+00 -0.74505805969E-08  0.93827000000E+00  0.93827000000E+00 0.  1.
     999902    2    1    2    0    0 -0.18846503130E-01 -0.15809111035E-01  0.70103702864E-02  0.10183514159E+01  0.10180301284E+01 0.  0.
     999903    2    3    3    0    0 -0.98194770474E-01 -0.78091477687E-01 -0.34371534821E-01  0.13162276363E+00  0.20066331586E-01 0.  0.
         14    1    1    2    0    0  0.18846503130E-01  0.15809111035E-01 -0.70103702864E-02  0.25578584079E-01  0.00000000000E+00 0.  1.
     999901    1    3    3    0    0  0.79348267344E-01  0.62282366652E-01  0.41381905108E-01  0.88672865229E+00  0.88000000000E+00 0.  1.
        -11    1    4    4    0    0 -0.82955504378E-01 -0.72039810688E-01 -0.34682528766E-01  0.11521496844E+00  0.51100000000E-03 0. -1.
         11    1    4    4    0    0 -0.15239266096E-01 -0.60516669983E-02  0.31099394492E-03  0.16407795185E-01  0.51100000000E-03 0.  1.
</event>
<event>
 8    1  0.1177602E+005  0.1043930E+01  0.7957747E-01            NaN
         13   -1    0    0    0    0  0.00000000000E+00  0.00000000000E+00  0.74505805969E-08  0.10566000000E+00  0.10566000000E+00 0.  1.
     999900   -1    0    0    0    0 -0.00000000000E+00 -0.00000000000E+00 -0.74505805969E-08  0.93827000000E+00  0.93827000000E+00 0. -1.
     999902    2    1    2    0    0  0.17342307165E-01  0.12076373772E-01 -0.97350454929E-02  0.10206627369E+01  0.10203974995E+01 0.  0.
     999903    2    3    3    0    0  0.25516445630E-01  0.62121626277E-01 -0.11307871829E+00  0.13316554899E+00  0.20882563547E-01 0.  0.
         14    1    1    2    0    0 -0.17342307165E-01 -0.12076373772E-01  0.97350454929E-02  0.23267263098E-01  0.00000000000E+00 0.  1.
     999901    1    3    3    0    0 -0.81741384641E-02 -0.50045252505E-01  0.10334367280E+00  0.88749718791E+00  0.88000000000E+00 0.  1.
        -11    1    4    4    0    0  0.43122271776E-02  0.32227851665E-01 -0.41265141432E-01  0.52538583390E-01  0.51100000000E-03 0.  1.
         11    1    4    4    0    0  0.21204218452E-01  0.29893774612E-01 -0.71813576856E-01  0.80626965604E-01  0.51100000000E-03 0. -1.
</event>
<event>
 8    1  0.1177602E+005  0.1043930E+01  0.7957747E-01            NaN
         13   -1    0    0    0    0  0.00000000000E+00  0.00000000000E+00  0.74505805969E-08  0.10566000000E+00  0.10566000000E+00 0. -1.
     999900   -1    0    0    0    0 -0.00000000000E+00 -0.00000000000E+00 -0.74505805969E-08  0.93827000000E+00  0.93827000000E+00 0.  1.
     999902    2    1    2    0    0  0.22988242938E-01 -0.67934851608E-02  0.37329971528E-03  0.10199560536E+01  0.10196742623E+01 0.  0.
     999903    2    3    3    0    0 -0.90587259137E-01  0.52502288870E-01 -0.70765314879E-01  0.12783717923E+00  0.19289187381E-01 0.  0.
         14    1    1    2    0    0 -0.22988242938E-01  0.67934851608E-02 -0.37329971528E-03  0.23973946415E-01  0.00000000000E+00 0. -1.
     999901    1    3    3    0    0  0.11357550207E+00 -0.59295774031E-01  0.71138614594E-01  0.89211887435E+00  0.88000000000E+00 0. -1.
        -11    1    4    4    0    0 -0.56912455075E-01  0.23623081712E-01 -0.35131622524E-01  0.70933557323E-01  0.51100000000E-03 0.  1.
         11    1    4    4    0    0 -0.33674804061E-01  0.28879207158E-01 -0.35633692355E-01  0.56903621911E-01  0.51100000000E-03 0. -1.
</event>
<event>
 8    1  0.1177602E+005  0.1043930E+01  0.7957747E-01            NaN
         13   -1    0    0    0    0  0.00000000000E+00  0.00000000000E+00  0.74505805969E-08  0.10566000000E+00  0.10566000000E+00 0. -1.
     999900   -1    0    0    0    0 -0.00000000000E+00 -0.00000000000E+00 -0.74505805969E-08  0.93827000000E+00  0.93827000000E+00 0. -1.
     999902    2    1    2    0    0  0.18841149994E-01  0.78048775815E-02  0.12010527024E-01  0.10202623468E+01  0.10199877933E+01 0.  0.
     999903    2    3    3    0    0 -0.76429768863E-01  0.81108745674E-01 -0.61816500442E-01  0.12902700471E+00  0.20163085698E-01 0.  0.
         14    1    1    2    0    0 -0.18841149994E-01 -0.78048775815E-02 -0.12010527024E-01  0.23667653169E-01  0.00000000000E+00 0. -1.
     999901    1    3    3    0    0  0.95270918856E-01 -0.73303868092E-01  0.73827027466E-01  0.89123534212E+00  0.88000000000E+00 0.  1.
        -11    1    4    4    0    0 -0.47790068342E-01  0.42344571114E-01 -0.44422206620E-01  0.77785261437E-01  0.51100000000E-03 0.  1.
         11    1    4    4    0    0 -0.28639700521E-01  0.38764174560E-01 -0.17394293822E-01  0.51241743274E-01  0.51100000000E-03 0. -1.
</event>
<event>
 8    1  0.1177602E+005  0.1043930E+01  0.7957747E-01            NaN
         13   -1    0    0    0    0  0.00000000000E+00  0.00000000000E+00  0.74505805969E-08  0.10566000000E+00  0.10566000000E+00 0.  1.
     999900   -1    0    0    0    0 -0.00000000000E+00 -0.00000000000E+00 -0.74505805969E-08  0.93827000000E+00  0.93827000000E+00 0.  1.
     999902    2    1    2    0    0  0.64396284371E-03 -0.22998359912E-01  0.81717317275E-02  0.10195145040E+01  0.10192221089E+01 0.  0.
     999903    2    3    3    0    0 -0.49550212772E-01 -0.64295972401E-01  0.10239655504E+00  0.13210069667E+00  0.19399585680E-01 0.  0.
         14    1    1    2    0    0 -0.64396284371E-03  0.22998359912E-01 -0.81717317275E-02  0.24415496026E-01  0.00000000000E+00 0. -1.
     999901    1    3    3    0    0  0.50194175616E-01  0.41297612489E-01 -0.94224823311E-01  0.88741380730E+00  0.88000000000E+00 0.  1.
        -11    1    4    4    0    0 -0.28010211870E-01 -0.31191775135E-01  0.67144373082E-01  0.79158870398E-01  0.51100000000E-03 0.  1.
         11    1    4    4    0    0 -0.21540000902E-01 -0.33104197266E-01  0.35252181956E-01  0.52941826274E-01  0.51100000000E-03 0. -1.
</event>
<event>
 8    1  0.1177602E+005  0.1043930E+01  0.7957747E-01            NaN
         13   -1    0    0    0    0  0.00000000000E+00  0.00000000000E+00  0.74505805969E-08  0.10566000000E+00  0.10566000000E+00 0.  1.
     999900   -1    0    0    0    0 -0.00000000000E+00 -0.00000000000E+00 -0.74505805969E-08  0.93827000000E+00  0.93827000000E+00 0. -1.
     999902    2    1    2    0    0  0.27328590550E-02  0.49179891979E-02 -0.22111038031E-01  0.10211143663E+01  0.10208594399E+01 0.  0.
     999903    2    3    3    0    0 -0.10185474240E+00  0.29799879963E-01  0.71389397072E-01  0.12965488536E+00  0.21249044417E-01 0.  0.
         14    1    1    2    0    0 -0.27328590550E-02 -0.49179891979E-02  0.22111038031E-01  0.22815633657E-01  0.00000000000E+00 0.  1.
     999901    1    3    3    0    0  0.10458760146E+00 -0.24881890765E-01 -0.93500435103E-01  0.89145948098E+00  0.88000000000E+00 0. -1.
        -11    1    4    4    0    0 -0.19941658788E-01  0.11244256264E-01  0.73959465535E-02  0.24063752836E-01  0.51100000000E-03 0. -1.
         11    1    4    4    0    0 -0.81913083612E-01  0.18555623699E-01  0.63993450519E-01  0.10559113253E+00  0.51100000000E-03 0.  1.
</event>
<event>
 8    1  0.1177602E+005  0.1043930E+01  0.7957747E-01            NaN
         13   -1    0    0    0    0  0.00000000000E+00  0.00000000000E+00  0.74505805969E-08  0.10566000000E+00  0.10566000000E+00 0.  1.
     999900   -1    0    0    0    0 -0.00000000000E+00 -0.00000000000E+00 -0.74505805969E-08  0.93827000000E+00  0.93827000000E+00 0.  1.
     999902    2    1    2    0    0  0.20206693996E-01  0.23597392446E-02 -0.13648430101E-01  0.10194318675E+01  0.10191374657E+01 0.  0.
     999903    2    3    3    0    0  0.22347954064E-01 -0.79894812036E-01 -0.99768875946E-01  0.13140758439E+00  0.20772881063E-01 0.  0.
         14    1    1    2    0    0 -0.20206693996E-01 -0.23597392446E-02  0.13648430101E-01  0.24498132495E-01  0.00000000000E+00 0.  1.
     999901    1    3    3    0    0 -0.21412600684E-02  0.82254551281E-01  0.86120445845E-01  0.88802428311E+00  0.88000000000E+00 0. -1.
        -11    1    4    4    0    0  0.19131369825E-01 -0.31352422170E-01 -0.46652021724E-01  0.59377234183E-01  0.51100000000E-03 0.  1.
         11    1    4    4    0    0  0.32165842389E-02 -0.48542389866E-01 -0.53116854222E-01  0.72030350211E-01  0.51100000000E-03 0. -1.
</event>
<event>
 8    1  0.1177602E+005  0.1043930E+01  0.7957747E-01            NaN
         13   -1    0    0    0    0  0.00000000000E+00  0.00000000000E+00  0.74505805969E-08  0.10566000000E+00  0.10566000000E+00 0. -1.
     999900   -1    0    0    0    0 -0.00000000000E+00 -0.00000000000E+00 -0.74505805969E-08  0.93827000000E+00  0.93827000000E+00 0.  1.
     999902    2    1    2    0    0  0.16723683844E-01 -0.67213650015E-03  0.18473354052E-01  0.10190021405E+01  0.10186971896E+01 0.  0.
     999903    2    3    3    0    0  0.63320212303E-01  0.28420887882E-01 -0.10622559868E+00  0.12851493154E+00  0.20371884029E-01 0.  0.
         14    1    1    2    0    0 -0.16723683844E-01  0.67213650015E-03 -0.18473354052E-01  0.24927859489E-01  0.00000000000E+00 0.  1.
     999901    1    3    3    0    0 -0.46596528460E-01 -0.29093024382E-01  0.12469895273E+00  0.89048720897E+00  0.88000000000E+00 0. -1.
        -11    1    4    4    0    0  0.47482567939E-01  0.22691416210E-01 -0.62810005285E-01  0.81944203655E-01  0.51100000000E-03 0. -1.
         11    1    4    4    0    0  0.15837644364E-01  0.57294716722E-02 -0.43415593395E-01  0.46570727883E-01  0.51100000000E-03 0.  1.
</event>
<event>
 8    1  0.1177602E+005  0.1043930E+01  0.7957747E-01            NaN
         13   -1    0    0    0    0  0.00000000000E+00  0.00000000000E+00  0.74505805969E-08  0.10566000000E+00  0.10566000000E+00 0.  1.
     999900   -1    0    0    0    0 -0.00000000000E+00 -0.00000000000E+00 -0.74505805969E-08  0.93827000000E+00  0.93827000000E+00 0.  1.
     999902    2    1    2    0    0  0.16765917213E-02 -0.20484935875E-02  0.24220319431E-01  0.10195654528E+01  0.10192742916E+01 0.  0.
     999903    2    3    3    0    0  0.12310899794E-01  0.24025569682E-01  0.12864214481E+00  0.13294441602E+00  0.19915573742E-01 0.  0.
         14    1    1    2    0    0 -0.16765917213E-02  0.20484935875E-02 -0.24220319431E-01  0.24364547176E-01  0.00000000000E+00 0. -1.
     999901    1    3    3    0    0 -0.10634308072E-01 -0.26074063269E-01 -0.10442182538E+00  0.88662103680E+00  0.88000000000E+00 0.  1.
        -11    1    4    4    0    0  0.15612250753E-01  0.20066545009E-01  0.78059857941E-01  0.82097570884E-01  0.51100000000E-03 0. -1.
         11    1    4    4    0    0 -0.33013509590E-02  0.39590246725E-02  0.50582286870E-01  0.50846845138E-01  0.51100000000E-03 0.  1.
</event>
<event>
 8    1  0.1177602E+005  0.1043930E+01  0.7957747E-01            NaN
         13   -1    0    0    0    0  0.00000000000E+00  0.00000000000E+00  0.74505805969E-08  0.10566000000E+00  0.10566000000E+00 0. -1.
     999900   -1    0    0    0    0 -0.00000000000E+00 -0.00000000000E+00 -0.74505805969E-08  0.93827000000E+00  0.93827000000E+00 0. -1.
     999902    2    1    2    0    0  0.14656535838E-01  0.14243477477E-01  0.13024079811E-01  0.10196953688E+01  0.10194073415E+01 0.  0.
     999903    2    3    3    0    0 -0.95127243140E-01 -0.67001235192E-01 -0.48068223650E-01  0.12706697413E+00  0.17236701702E-01 0.  0.
         14    1    1    2    0    0 -0.14656535838E-01 -0.14243477477E-01 -0.13024079811E-01  0.24234631179E-01  0.00000000000E+00 0.  1.
     999901    1    3    3    0    0  0.10978377898E+00  0.81244712670E-01  0.61092303462E-01  0.89262839469E+00  0.88000000000E+00 0.  1.
        -11    1    4    4    0    0 -0.39219433758E-01 -0.34316781247E-01 -0.14365722218E-01  0.54059601879E-01  0.51100000000E-03 0. -1.
         11    1    4    4    0    0 -0.55907809382E-01 -0.32684453946E-01 -0.33702501432E-01  0.73007372253E-01  0.51100000000E-03 0.  1.
</event>
<event>
 8    1  0.1177602E+005  0.1043930E+01  0.7957747E-01            NaN
         13   -1    0    0    0    0  0.00000000000E+00  0.00000000000E+00  0.74505805969E-08  0.10566000000E+00  0.10566000000E+00 0. -1.
     999900   -1    0    0    0    0 -0.00000000000E+00 -0.00000000000E+00 -0.74505805969E-08  0.93827000000E+00  0.93827000000E+00 0. -1.
     999902    2    1    2    0    0 -0.97525576629E-02 -0.10355370243E-02 -0.22131470022E-01  0.10197228382E+01  0.10194354712E+01 0.  0.
     999903    2    3    3    0    0  0.57312763591E-01  0.21609086282E-01  0.10948714453E+00  0.12712326616E+00  0.20522780061E-01 0.  0.
         14    1    1    2    0    0  0.97525576629E-02  0.10355370243E-02  0.22131470022E-01  0.24207161817E-01  0.00000000000E+00 0. -1.
     999901    1    3    3    0    0 -0.67065321254E-01 -0.22644623306E-01 -0.13161861455E+00  0.89259957202E+00  0.88000000000E+00 0. -1.
        -11    1    4    4    0    0  0.13148155432E-01  0.13649031223E-01  0.24130663239E-01  0.30687457925E-01  0.51100000000E-03 0. -1.
         11    1    4    4    0    0  0.44164608159E-01  0.79600550591E-02  0.85356481292E-01  0.96435808235E-01  0.51100000000E-03 0.  1.
</event>
<event>
 8    1  0.1177602E+005  0.1043930E+01  0.7957747E-01            NaN
         13   -1    0    0    0    0  0.00000000000E+00  0.00000000000E+00  0.74505805969E-08  0.10566000000E+00  0.10566000000E+00 0. -1.
     999900   -1    0    0    0    0 -0.00000000000E+00 -0.00000000000E+00 -0.74505805969E-08  0.93827000000E+00  0.93827000000E+00 0. -1.
     999902    2    1    2    0    0  0.10636671310E-01 -0.20810376272E-01  0.57789508064E-02  0.10198549754E+01  0.10195707744E+01 0.  0.
     999903    2    3    3    0    0 -0.89478467190E-01 -0.43805572736E-01  0.81862751395E-01  0.13061903105E+00  0.20844589511E-01 0.  0.
         14    1    1    2    0    0 -0.10636671310E-01  0.20810376272E-01 -0.57789508064E-02  0.24075024602E-01  0.00000000000E+00 0. -1.
     999901    1    3    3    0    0  0.10011513850E+00  0.22995196464E-01 -0.76083800589E-01  0.88923594435E+00  0.88000000000E+00 0. -1.
        -11    1    4    4    0    0 -0.69211551408E-01 -0.37050577776E-01  0.73893402852E-01  0.10781224545E+00  0.51100000000E-03 0. -1.
         11    1    4    4    0    0 -0.20266915782E-01 -0.67549949602E-02  0.79693485430E-02  0.22806785600E-01  0.51100000000E-03 0.  1.
</event>
<event>
 8    1  0.1177602E+005  0.1043930E+01  0.7957747E-01            NaN
         13   -1    0    0    0    0  0.00000000000E+00  0.00000000000E+00  0.74505805969E-08  0.10566000000E+00  0.10566000000E+00 0.  1.
     999900   -1    0    0    0    0 -0.00000000000E+00 -0.00000000000E+00 -0.74505805969E-08  0.93827000000E+00  0.93827000000E+00 0. -1.
     999902    2    1    2    0    0  0.12075066378E-03 -0.21421836107E-01  0.10267405262E-01  0.10201743848E+01  0.10198977626E+01 0.  0.
     999903    2    3    3    0    0  0.11238752551E-01  0.12249046939E+00  0.29412759851E-01  0.12820975195E+00  0.21033435347E-01 0.  0.
         14    1    1    2    0    0 -0.12075066378E-03  0.21421836107E-01 -0.10267405262E-01  0.23755615204E-01  0.00000000000E+00 0. -1.
     999901    1    3    3    0    0 -0.11118001887E-01 -0.14391230550E+00 -0.19145354588E-01  0.89196463284E+00  0.88000000000E+00 0.  1.
        -11    1    4    4    0    0 -0.53076034559E-02  0.55970308069E-01  0.14323909421E-01  0.58019665130E-01  0.51100000000E-03 0.  1.
         11    1    4    4    0    0  0.16546356006E-01  0.66520161325E-01  0.15088850430E-01  0.70190086822E-01  0.51100000000E-03 0. -1.
</event>
<event>
 8    1  0.1177602E+005  0.1043930E+01  0.7957747E-01            NaN
         13   -1    0    0    0    0  0.00000000000E+00  0.00000000000E+00  0.74505805969E-08  0.10566000000E+00  0.10566000000E+00 0.  1.
     999900   -1    0    0    0    0 -0.00000000000E+00 -0.00000000000E+00 -0.74505805969E-08  0.93827000000E+00  0.93827000000E+00 0. -1.
     999902    2    1    2    0    0  0.12479982231E-01  0.15421615369E-01 -0.10336552890E-01  0.10215599195E+01  0.10213149605E+01 0.  0.
     999903    2    3    3    0    0  0.68828111704E-01  0.10979478581E-01  0.10995040993E+00  0.13158025808E+00  0.19141937227E-01 0.  0.
         14    1    1    2    0    0 -0.12479982231E-01 -0.15421615369E-01  0.10336552890E-01  0.22370080526E-01  0.00000000000E+00 0.  1.
     999901    1    3    3    0    0 -0.56348129473E-01  0.44421367875E-02 -0.12028696282E+00  0.88997966140E+00  0.88000000000E+00 0. -1.
        -11    1    4    4    0    0  0.36456510919E-01 -0.12917014194E-02  0.68167403430E-01  0.77316244686E-01  0.51100000000E-03 0. -1.
         11    1    4    4    0    0  0.32371600785E-01  0.12271180001E-01  0.41783006503E-01  0.54264013392E-01  0.51100000000E-03 0.  1.
</event>
<event>
 8    1  0.1177602E+005  0.1043930E+01  0.7957747E-01            NaN
         13   -1    0    0    0    0  0.00000000000E+00  0.00000000000E+00  0.74505805969E-08  0.10566000000E+00  0.10566000000E+00 0. -1.
     999900   -1    0    0    0    0 -0.00000000000E+00 -0.00000000000E+00 -0.74505805969E-08  0.93827000000E+00  0.93827000000E+00 0. -1.
     999902    2    1    2    0    0 -0.25656954203E-01  0.35709980951E-02 -0.30560761581E-02  0.10178460791E+01  0.10175118033E+01 0.  0.
     999903    2    3    3    0    0  0.48539769106E-01  0.30179227885E-01  0.11143357968E+00  0.12693585193E+00  0.20697169950E-01 0.  0.
         14    1    1    2    0    0  0.25656954203E-01 -0.35709980951E-02  0.30560761581E-02  0.26083920868E-01  0.00000000000E+00 0. -1.
     999901    1    3    3    0    0 -0.74196723309E-01 -0.26608229790E-01 -0.11448965584E+00  0.89091022720E+00  0.88000000000E+00 0. -1.
        -11    1    4    4    0    0  0.17599964245E-01  0.15454203441E-01  0.26621197091E-01  0.35461816098E-01  0.51100000000E-03 0. -1.
         11    1    4    4    0    0  0.30939804861E-01  0.14725024444E-01  0.84812382588E-01  0.91474035830E-01  0.51100000000E-03 0.  1.
</event>
<event>
 8    1  0.1177602E+005  0.1043930E+01  0.7957747E-01            NaN
         13   -1    0    0    0    0  0.00000000000E+00  0.00000000000E+00  0.74505805969E-08  0.10566000000E+00  0.10566000000E+00 0.  1.
     999900   -1    0    0    0    0 -0.00000000000E+00 -0.00000000000E+00 -0.74505805969E-08  0.93827000000E+00  0.93827000000E+00 0. -1.
     999902    2    1    2    0    0 -0.40847751350E-02 -0.16289248760E-01  0.16964770561E-01  0.10200589201E+01  0.10197795704E+01 0.  0.
     999903    2    3    3    0    0 -0.47148284619E-01  0.92368489663E-01  0.76245810192E-01  0.13035379393E+00  0.20586145678E-01 0.  0.
         14    1    1    2    0    0  0.40847751350E-02  0.16289248760E-01 -0.16964770561E-01  0.23871079851E-01  0.00000000000E+00 0. -1.
     999901    1    3    3    0    0  0.43063509484E-01 -0.10865773842E+00 -0.59281039631E-01  0.88970512622E+00  0.88000000000E+00 0.  1.
        -11    1    4    4    0    0 -0.22018017226E-01  0.40127556451E-01  0.21330347070E-01  0.50500086104E-01  0.51100000000E-03 0.  1.
         11    1    4    4    0    0 -0.25130267393E-01  0.52240933211E-01  0.54915463122E-01  0.79853707822E-01  0.51100000000E-03 0. -1.
</event>
<event>
 8    1  0.1177602E+005  0.1043930E+01  0.7957747E-01            NaN
         13   -1    0    0    0    0  0.00000000000E+00  0.00000000000E+00  0.74505805969E-08  0.10566000000E+00  0.10566000000E+00 0.  1.
     999900   -1    0    0    0    0 -0.00000000000E+00 -0.00000000000E+00 -0.74505805969E-08  0.93827000000E+00  0.93827000000E+00 0.  1.
     999902    2    1    2    0    0  0.14492614232E-02  0.18783168196E-01 -0.15799835319E-01  0.10193425528E+01  0.10190459741E+01 0.  0.
     999903    2    3    3    0    0 -0.55433535135E-01  0.11612705579E+00  0.18375376532E-01  0.13149153479E+00  0.19849416961E-01 0.  0.
         14    1    1    2    0    0 -0.14492614232E-02 -0.18783168196E-01  0.15799835319E-01  0.24587447249E-01  0.00000000000E+00 0. -1.
     999901    1    3    3    0    0  0.56882796559E-01 -0.97343887594E-01 -0.34175211851E-01  0.88785101796E+00  0.88000000000E+00 0.  1.
        -11    1    4    4    0    0 -0.48791350198E-01  0.88484977154E-01  0.20018375659E-01  0.10301059907E+00  0.51100000000E-03 0.  1.
         11    1    4    4    0    0 -0.66421849376E-02  0.27642078635E-01 -0.16429991265E-02  0.28480935714E-01  0.51100000000E-03 0. -1.
</event>
<event>
 8    1  0.1177602E+005  0.1043930E+01  0.7957747E-01            NaN
         13   -1    0    0    0    0  0.00000000000E+00  0.00000000000E+00  0.74505805969E-08  0.10566000000E+00  0.10566000000E+00 0.  1.
     999900   -1    0    0    0    0 -0.00000000000E+00 -0.00000000000E+00 -0.74505805969E-08  0.93827000000E+00  0.93827000000E+00 0.  1.
     999902    2    1    2    0    0 -0.14961991887E-01  0.11025103408E-01 -0.12543752742E-01  0.10215076933E+01  0.10212615765E+01 0.  0.
     999903    2    3    3    0    0 -0.82130429491E-01  0.95857392575E-01 -0.41529458290E-01  0.13440663509E+00  0.20159377228E-01 0.  0.
         14    1    1    2    0    0  0.14961991887E-01 -0.11025103408E-01  0.12543752742E-01  0.22422306733E-01  0.00000000000E+00 0. -1.
     999901    1    3    3    0    0  0.67168437604E-01 -0.84832289167E-01  0.28985705548E-01  0.88710105818E+00  0.88000000000E+00 0.  1.
        -11    1    4    4    0    0 -0.33343624385E-01  0.41401281854E-01 -0.72473754379E-02  0.53653042766E-01  0.51100000000E-03 0. -1.
         11    1    4    4    0    0 -0.48786805106E-01  0.54456110721E-01 -0.34282082852E-01  0.80753592322E-01  0.51100000000E-03 0.  1.
</event>
<event>
 8    1  0.1177602E+005  0.1043930E+01  0.7957747E-01            NaN
         13   -1    0    0    0    0  0.00000000000E+00  0.00000000000E+00  0.74505805969E-08  0.10566000000E+00  0.10566000000E+00 0. -1.
     999900   -1    0    0    0    0 -0.00000000000E+00 -0.00000000000E+00 -0.74505805969E-08  0.93827000000E+00  0.93827000000E+00 0. -1.
     999902    2    1    2    0    0 -0.97118978674E-02 -0.18937380442E-01  0.73261675878E-02  0.10214218222E+01  0.10211737955E+01 0.  0.
     999903    2    3    3    0    0  0.41696423216E-01 -0.67250026543E-01 -0.10346145123E+00  0.13167420416E+00  0.19304568652E-01 0.  0.
         14    1    1    2    0    0  0.97118978674E-02  0.18937380442E-01 -0.73261675878E-02  0.22508177841E-01  0.00000000000E+00 0.  1.
     999901    1    3    3    0    0 -0.51408321083E-01  0.48312646100E-01  0.11078761882E+00  0.88974761800E+00  0.88000000000E+00 0.  1.
        -11    1    4    4    0    0  0.14150121072E-01 -0.32871856072E-01 -0.59506511299E-01  0.69441132306E-01  0.51100000000E-03 0. -1.
         11    1    4    4    0    0  0.27546302145E-01 -0.34378170471E-01 -0.43954939935E-01  0.62233071854E-01  0.51100000000E-03 0.  1.
</event>
<event>
 8    1  0.1177602E+005  0.1043930E+01  0.7957747E-01            NaN
         13   -1    0    0    0    0  0.00000000000E+00  0.00000000000E+00  0.74505805969E-08  0.10566000000E+00  0.10566000000E+00 0. -1.
     999900   -1    0    0    0    0 -0.00000000000E+00 -0.00000000000E+00 -0.74505805969E-08  0.93827000000E+00  0.93827000000E+00 0. -1.
     999902    2    1    2    0    0  0.84010516596E-02  0.21350443567E-01 -0.78848216290E-02  0.10196691360E+01  0.10193804773E+01 0.  0.
     999903    2    3    3    0    0  0.16748050579E-01 -0.11042948568E+00  0.57896622984E-01  0.12738957186E+00  0.20022875887E-01 0.  0.
         14    1    1    2    0    0 -0.84010516596E-02 -0.21350443567E-01  0.78848216290E-02  0.24260863992E-01  0.00000000000E+00 0. -1.
     999901    1    3    3    0    0 -0.83469989189E-02  0.13177992925E+00 -0.65781444613E-01  0.89227956415E+00  0.88000000000E+00 0. -1.
        -11    1    4    4    0    0  0.17639562930E-02 -0.55130865671E-01  0.19904493916E-01  0.58642765031E-01  0.51100000000E-03 0. -1.
         11    1    4    4    0    0  0.14984094286E-01 -0.55298620013E-01  0.37992129068E-01  0.68746806828E-01  0.51100000000E-03 0.  1.
</event>
<event>
 8    1  0.1177602E+005  0.1043930E+01  0.7957747E-01            NaN
         13   -1    0    0    0    0  0.00000000000E+00  0.00000000000E+00  0.74505805969E-08  0.10566000000E+00  0.10566000000E+00 0.  1.
     999900   -1    0    0    0    0 -0.00000000000E+00 -0.00000000000E+00 -0.74505805969E-08  0.93827000000E+00  0.93827000000E+00 0.  1.
     999902    2    1    2    0    0 -0.21877429718E-01  0.66202634424E-02  0.15776645270E-02  0.10210184561E+01  0.10207613574E+01 0.  0.
     999903    2    3    3    0    0  0.46138957064E-01 -0.10065140494E+00  0.64541930993E-01  0.12967231762E+00  0.19741844538E-01 0.  0.
         14    1    1    2    0    0  0.21877429718E-01 -0.66202634424E-02 -0.15776645270E-02  0.22911543913E-01  0.00000000000E+00 0. -1.
     999901    1    3    3    0    0 -0.68016386782E-01  0.10727166838E+00 -0.62964266466E-01  0.89134613847E+00  0.88000000000E+00 0.  1.
        -11    1    4    4    0    0  0.25733910928E-01 -0.33307359239E-01  0.23517335371E-01  0.48217637178E-01  0.51100000000E-03 0.  1.
         11    1    4    4    0    0  0.20405046136E-01 -0.67344045699E-01  0.41024595622E-01  0.81454680442E-01  0.51100000000E-03 0. -1.
</event>
<event>
 8    1  0.1177602E+005  0.1043930E+01  0.7957747E-01            NaN
         13   -1    0    0    0    0  0.00000000000E+00  0.00000000000E+00  0.74505805969E-08  0.10566000000E+00  0.10566000000E+00 0.  1.
     999900   -1    0    0    0    0 -0.00000000000E+00 -0.00000000000E+00 -0.74505805969E-08  0.93827000000E+00  0.93827000000E+00 0. -1.
     999902    2    1    2    0    0 -0.17182772264E-01  0.15916804366E-01  0.23209694307E-02  0.10203932368E+01  0.10201217469E+01 0.  0.
     999903    2    3    3    0    0 -0.51869407437E-01 -0.10940151065E+00 -0.42105565781E-01  0.12972968651E+00  0.19944596563E-01 0.  0.
         14    1    1    2    0    0  0.17182772264E-01 -0.15916804366E-01 -0.23209694307E-02  0.23536763223E-01  0.00000000000E+00 0. -1.
     999901    1    3    3    0    0  0.34686635173E-01  0.12531831502E+00  0.44426535212E-01  0.89066355026E+00  0.88000000000E+00 0.  1.
        -11    1    4    4    0    0 -0.42801974284E-01 -0.85716346631E-01 -0.24627282065E-01  0.98924543089E-01  0.51100000000E-03 0.  1.
         11    1    4    4    0    0 -0.90674331526E-02 -0.23685164021E-01 -0.17478283717E-01  0.30805143424E-01  0.51100000000E-03 0. -1.
</event>
<event>
 8    1  0.1177602E+005  0.1043930E+01  0.7957747E-01            NaN
         13   -1    0    0    0    0  0.00000000000E+00  0.00000000000E+00  0.74505805969E-08  0.10566000000E+00  0.10566000000E+00 0. -1.
     999900   -1    0    0    0    0 -0.00000000000E+00 -0.00000000000E+00 -0.74505805969E-08  0.93827000000E+00  0.93827000000E+00 0.  1.
     999902    2    1    2    0    0  0.18963780022E-03  0.16597946215E-01 -0.16194676405E-01  0.10207395855E+01  0.10204761173E+01 0.  0.
     999903    2    3    3    0    0 -0.26724092445E-01 -0.11943797843E+00  0.33475502318E-01  0.12849676635E+00  0.20278113728E-01 0.  0.
         14    1    1    2    0    0 -0.18963780022E-03 -0.16597946215E-01  0.16194676405E-01  0.23190414505E-01  0.00000000000E+00 0. -1.
     999901    1    3    3    0    0  0.26913730245E-01  0.13603592465E+00 -0.49670178723E-01  0.89224281915E+00  0.88000000000E+00 0.  1.
        -11    1    4    4    0    0 -0.18233927367E-01 -0.48944820837E-01  0.21519978968E-01  0.56492850961E-01  0.51100000000E-03 0.  1.
         11    1    4    4    0    0 -0.84901650780E-02 -0.70493157597E-01  0.11955523351E-01  0.72003915384E-01  0.51100000000E-03 0. -1.
</event>
<event>
 7    1  0.1177602E+005  0.1043930E+01  0.7957747E-01            NaN
         13   -1    0    0    0    0  0.00000000000E+00  0.00000000000E+00  0.74505805969E-08  0.10566000000E+00  0.10566000000E+00 0. -1.
     999900   -1    0    0    0    0 -0.00000000000E+00 -0.00000000000E+00 -0.74505805969E-08  0.93827000000E+00  0.93827000000E+00 0.  1.
     999903    2    1    2    0    0 -0.45566254868E-01  0.95321495801E-01  0.34799309012E-02  0.10757827473E+00  0.19962568243E-01 0.  0.
         14    1    1    2    0    0  0.40170620336E-01  0.25920969914E-01  0.41734634071E-02  0.47989511523E-01  0.00000000000E+00 0. -1.
     999901    1    1    2    0    0  0.53956345323E-02 -0.12124246571E+00 -0.76533943083E-02  0.88836221374E+00  0.88000000000E+00 0.  1.
        -11    1    3    3    0    0 -0.10465829164E-01  0.38266278777E-01  0.78586438458E-02  0.40445779453E-01  0.51100000000E-03 0. -1.
         11    1    3    3    0    0 -0.35100425704E-01  0.57055217024E-01 -0.43787129446E-02  0.67132495279E-01  0.51100000000E-03 0.  1.
</event>
<event>
 8    1  0.1177602E+005  0.1043930E+01  0.7957747E-01            NaN
         13   -1    0    0    0    0  0.00000000000E+00  0.00000000000E+00  0.74505805969E-08  0.10566000000E+00  0.10566000000E+00 0.  1.
     999900   -1    0    0    0    0 -0.00000000000E+00 -0.00000000000E+00 -0.74505805969E-08  0.93827000000E+00  0.93827000000E+00 0.  1.
     999902    2    1    2    0    0  0.12126164438E-01 -0.16230202763E-01 -0.12397471116E-01  0.10201779341E+01  0.10199013955E+01 0.  0.
     999903    2    3    3    0    0 -0.12703241592E+00 -0.90655442345E-02 -0.93042700615E-02  0.12920879279E+00  0.19721153770E-01 0.  0.
         14    1    1    2    0    0 -0.12126164438E-01  0.16230202763E-01  0.12397471116E-01  0.23752065926E-01  0.00000000000E+00 0. -1.
     999901    1    3    3    0    0  0.13915858036E+00 -0.71646585282E-02 -0.30932010545E-02  0.89096914128E+00  0.88000000000E+00 0. -1.
        -11    1    4    4    0    0 -0.94059767406E-01 -0.13693196828E-01 -0.17786888783E-02  0.95069281784E-01  0.51100000000E-03 0. -1.
         11    1    4    4    0    0 -0.32972648519E-01  0.46276525931E-02 -0.75255811832E-02  0.34139511010E-01  0.51100000000E-03 0.  1.
</event>
<event>
 8    1  0.1177602E+005  0.1043930E+01  0.7957747E-01            NaN
         13   -1    0    0    0    0  0.00000000000E+00  0.00000000000E+00  0.74505805969E-08  0.10566000000E+00  0.10566000000E+00 0. -1.
     999900   -1    0    0    0    0 -0.00000000000E+00 -0.00000000000E+00 -0.74505805969E-08  0.93827000000E+00  0.93827000000E+00 0. -1.
     999902    2    1    2    0    0 -0.14777920234E-01 -0.36172562231E-02 -0.17960868383E-01  0.10203914303E+01  0.10201198983E+01 0.  0.
     999903    2    3    3    0    0 -0.82766768695E-01  0.80570797787E-01  0.57456292474E-01  0.13056118803E+00  0.20075029759E-01 0.  0.
         14    1    1    2    0    0  0.14777920234E-01  0.36172562231E-02  0.17960868383E-01  0.23538569670E-01  0.00000000000E+00 0. -1.
     999901    1    3    3    0    0  0.67988848461E-01 -0.84188054010E-01 -0.75417160857E-01  0.88983024230E+00  0.88000000000E+00 0.  1.
        -11    1    4    4    0    0 -0.39152574941E-01  0.48849824018E-01  0.23731998703E-01  0.66952955981E-01  0.51100000000E-03 0. -1.
         11    1    4    4    0    0 -0.43614193753E-01  0.31720973769E-01  0.33724293771E-01  0.63608232053E-01  0.51100000000E-03 0.  1.
</event>
<event>
 8    1  0.1177602E+005  0.1043930E+01  0.7957747E-01            NaN
         13   -1    0    0    0    0  0.00000000000E+00  0.00000000000E+00  0.74505805969E-08  0.10566000000E+00  0.10566000000E+00 0. -1.
     999900   -1    0    0    0    0 -0.00000000000E+00 -0.00000000000E+00 -0.74505805969E-08  0.93827000000E+00  0.93827000000E+00 0.  1.
     999902    2    1    2    0    0 -0.15332097876E-01  0.16293701009E-01  0.95908536942E-02  0.10195878063E+01  0.10192971855E+01 0.  0.
     999903    2    3    3    0    0  0.43472093633E-01  0.12017103963E+00  0.23028064884E-01  0.13142735176E+00  0.20296682717E-01 0.  0.
         14    1    1    2    0    0  0.15332097876E-01 -0.16293701009E-01 -0.95908536942E-02  0.24342193665E-01  0.00000000000E+00 0.  1.
     999901    1    3    3    0    0 -0.58804191509E-01 -0.10387733862E+00 -0.13437211189E-01  0.88816045457E+00  0.88000000000E+00 0.  1.
        -11    1    4    4    0    0  0.26065878461E-01  0.58342614918E-01  0.23451548381E-02  0.63945692643E-01  0.51100000000E-03 0. -1.
         11    1    4    4    0    0  0.17406215172E-01  0.61828424711E-01  0.20682910046E-01  0.67481659121E-01  0.51100000000E-03 0.  1.
</event>
<event>
 8    1  0.1177602E+005  0.1043930E+01  0.7957747E-01            NaN
         13   -1    0    0    0    0  0.00000000000E+00  0.00000000000E+00  0.74505805969E-08  0.10566000000E+00  0.10566000000E+00 0.  1.
     999900   -1    0    0    0    0 -0.00000000000E+00 -0.00000000000E+00 -0.74505805969E-08  0.93827000000E+00  0.93827000000E+00 0. -1.
     999902    2    1    2    0    0 -0.58518016671E-04 -0.25969073267E-01 -0.72429193832E-02  0.10169697316E+01  0.10166123051E+01 0.  0.
     999903    2    3    3    0    0  0.47434397297E-01 -0.31436528635E-01 -0.11428495126E+00  0.12919528578E+00  0.19801373763E-01 0.  0.
         14    1    1    2    0    0  0.58518016671E-04  0.25969073267E-01  0.72429193832E-02  0.26960268394E-01  0.00000000000E+00 0. -1.
     999901    1    3    3    0    0 -0.47492915314E-01  0.54674553682E-02  0.10704203188E+00  0.88777444583E+00  0.88000000000E+00 0.  1.
        -11    1    4    4    0    0  0.43004330700E-01 -0.20416217947E-01 -0.98811969125E-01  0.10968254546E+00  0.51100000000E-03 0.  1.
         11    1    4    4    0    0  0.44300665972E-02 -0.11020310688E-01 -0.15472982138E-01  0.19512740324E-01  0.51100000000E-03 0. -1.
</event>
<event>
 8    1  0.1177602E+005  0.1043930E+01  0.7957747E-01            NaN
         13   -1    0    0    0    0  0.00000000000E+00  0.00000000000E+00  0.74505805969E-08  0.10566000000E+00  0.10566000000E+00 0. -1.
     999900   -1    0    0    0    0 -0.00000000000E+00 -0.00000000000E+00 -0.74505805969E-08  0.93827000000E+00  0.93827000000E+00 0.  1.
     999902    2    1    2    0    0 -0.19534874181E-01 -0.12638186936E-01 -0.48718827977E-02  0.10201587922E+01  0.10198818025E+01 0.  0.
     999903    2    3    3    0    0 -0.16377385687E-01 -0.12801797341E+00  0.20060892837E-01  0.13227135105E+00  0.20891400364E-01 0.  0.
         14    1    1    2    0    0  0.19534874181E-01  0.12638186936E-01  0.48718827977E-02  0.23771207800E-01  0.00000000000E+00 0.  1.
     999901    1    3    3    0    0 -0.31574884940E-02  0.11537978647E+00 -0.24932775635E-01  0.88788744115E+00  0.88000000000E+00 0.  1.
        -11    1    4    4    0    0 -0.77218103425E-02 -0.98183619794E-01  0.75462606851E-02  0.98776802551E-01  0.51100000000E-03 0. -1.
         11    1    4    4    0    0 -0.86555753442E-02 -0.29834353611E-01  0.12514632152E-01  0.33494548495E-01  0.51100000000E-03 0.  1.
</event>
<event>
 8    1  0.1177602E+005  0.1043930E+01  0.7957747E-01            NaN
         13   -1    0    0    0    0  0.00000000000E+00  0.00000000000E+00  0.74505805969E-08  0.10566000000E+00  0.10566000000E+00 0.  1.
     999900   -1    0    0    0    0 -0.00000000000E+00 -0.00000000000E+00 -0.74505805969E-08  0.93827000000E+00  0.93827000000E+00 0. -1.
     999902    2    1    2    0    0  0.59160803680E-02 -0.21736462234E-01 -0.66127355076E-02  0.10204523070E+01  0.10201821939E+01 0.  0.
     999903    2    3    3    0    0 -0.10701881822E+00  0.66864101613E-01 -0.15945453706E-01  0.12877330038E+00  0.20111436043E-01 0.  0.
         14    1    1    2    0    0 -0.59160803680E-02  0.21736462234E-01  0.66127355076E-02  0.23477692993E-01  0.00000000000E+00 0.  1.
     999901    1    3    3    0    0  0.11293489858E+00 -0.88600563847E-01  0.93327181983E-02  0.89167900663E+00  0.88000000000E+00 0.  1.
        -11    1    4    4    0    0 -0.89416290118E-01  0.58674267429E-01 -0.64204269039E-02  0.10714208137E+00  0.51100000000E-03 0. -1.
         11    1    4    4    0    0 -0.17602528099E-01  0.81898341838E-02 -0.95250268020E-02  0.21631219013E-01  0.51100000000E-03 0.  1.
</event>
<event>
 8    1  0.1177602E+005  0.1043930E+01  0.7957747E-01            NaN
         13   -1    0    0    0    0  0.00000000000E+00  0.00000000000E+00  0.74505805969E-08  0.10566000000E+00  0.10566000000E+00 0. -1.
     999900   -1    0    0    0    0 -0.00000000000E+00 -0.00000000000E+00 -0.74505805969E-08  0.93827000000E+00  0.93827000000E+00 0.  1.
     999902    2    1    2    0    0 -0.11698379062E-01 -0.11758259385E-01 -0.39958820205E-02  0.10268690560E+01  0.10267273165E+01 0.  0.
     999903    2    3    3    0    0  0.29298655573E-01 -0.66605869334E-01  0.11364939636E+00  0.13640320676E+00  0.19872002290E-01 0.  0.
         14    1    1    2    0    0  0.11698379062E-01  0.11758259385E-01  0.39958820205E-02  0.17060943982E-01  0.00000000000E+00 0.  1.
     999901    1    3    3    0    0 -0.40997034635E-01  0.54847609949E-01 -0.11764527838E+00  0.89046584926E+00  0.88000000000E+00 0.  1.
        -11    1    4    4    0    0  0.68033768639E-03 -0.11670994010E-01  0.88733509936E-02  0.14685790391E-01  0.51100000000E-03 0. -1.
         11    1    4    4    0    0  0.28618317887E-01 -0.54934875324E-01  0.10477604536E+00  0.12171741637E+00  0.51100000000E-03 0.  1.
</event>
<event>
 8    1  0.1177602E+005  0.1043930E+01  0.7957747E-01            NaN
         13   -1    0    0    0    0  0.00000000000E+00  0.00000000000E+00  0.74505805969E-08  0.10566000000E+00  0.10566000000E+00 0.  1.
     999900   -1    0    0    0    0 -0.00000000000E+00 -0.00000000000E+00 -0.74505805969E-08  0.93827000000E+00  0.93827000000E+00 0.  1.
     999902    2    1    2    0    0  0.76954723829E-02  0.17420184671E-01  0.16231599487E-01  0.10189070515E+01  0.10185997407E+01 0.  0.
     999903    2    3    3    0    0  0.75457070468E-01 -0.99768323097E-01 -0.17648103281E-01  0.12791175703E+00  0.20061761138E-01 0.  0.
         14    1    1    2    0    0 -0.76954723829E-02 -0.17420184671E-01 -0.16231599487E-01  0.25022948488E-01  0.00000000000E+00 0. -1.
     999901    1    3    3    0    0 -0.67761598085E-01  0.11718850777E+00  0.33879702768E-01  0.89099529448E+00  0.88000000000E+00 0. -1.
        -11    1    4    4    0    0  0.53420983406E-01 -0.81125638507E-01 -0.79639298084E-02  0.97462074625E-01  0.51100000000E-03 0. -1.
         11    1    4    4    0    0  0.22036087062E-01 -0.18642684590E-01 -0.96841734729E-02  0.30449682405E-01  0.51100000000E-03 0.  1.
</event>
<event>
 8    1  0.1177602E+005  0.1043930E+01  0.7957747E-01            NaN
         13   -1    0    0    0    0  0.00000000000E+00  0.00000000000E+00  0.74505805969E-08  0.10566000000E+00  0.10566000000E+00 0.  1.
     999900   -1    0    0    0    0 -0.00000000000E+00 -0.00000000000E+00 -0.74505805969E-08  0.93827000000E+00  0.93827000000E+00 0.  1.
     999902    2    1    2    0    0 -0.33306980045E-02 -0.12548829253E-01  0.19462849188E-01  0.10205340781E+01  0.10202658650E+01 0.  0.
     999903    2    3    3    0    0  0.98592522644E-01  0.59666549505E-01 -0.53861855314E-01  0.12869333212E+00  0.19501067215E-01 0.  0.
         14    1    1    2    0    0  0.33306980045E-02  0.12548829253E-01 -0.19462849188E-01  0.23395921938E-01  0.00000000000E+00 0. -1.
     999901    1    3    3    0    0 -0.10192322065E+00 -0.72215378758E-01  0.73324704502E-01  0.89184074594E+00  0.88000000000E+00 0. -1.
        -11    1    4    4    0    0  0.65243685066E-01  0.33810008245E-01 -0.25230933320E-01  0.77696307606E-01  0.51100000000E-03 0. -1.
         11    1    4    4    0    0  0.33348837578E-01  0.25856541260E-01 -0.28630921995E-01  0.50997024511E-01  0.51100000000E-03 0.  1.
</event>
<event>
 8    1  0.1177602E+005  0.1043930E+01  0.7957747E-01            NaN
         13   -1    0    0    0    0  0.00000000000E+00  0.00000000000E+00  0.74505805969E-08  0.10566000000E+00  0.10566000000E+00 0. -1.
     999900   -1    0    0    0    0 -0.00000000000E+00 -0.00000000000E+00 -0.74505805969E-08  0.93827000000E+00  0.93827000000E+00 0. -1.
     999902    2    1    2    0    0  0.20427133899E-02 -0.23828548239E-01 -0.48858538331E-04  0.10200140058E+01  0.10197335914E+01 0.  0.
     999903    2    3    3    0    0  0.11723964591E+00 -0.78642872608E-02 -0.53562226457E-01  0.13075089999E+00  0.20491563083E-01 0.  0.
         14    1    1    2    0    0 -0.20427133899E-02  0.23828548239E-01  0.48858538331E-04  0.23915994153E-01  0.00000000000E+00 0.  1.
     999901    1    3    3    0    0 -0.11519693252E+00 -0.15964260978E-01  0.53513367919E-01  0.88926310586E+00  0.88000000000E+00 0.  1.
        -11    1    4    4    0    0  0.68814592351E-01 -0.40709357255E-02 -0.20248824846E-01  0.71849124329E-01  0.51100000000E-03 0.  1.
         11    1    4    4    0    0  0.48425053561E-01 -0.37933515352E-02 -0.33313401611E-01  0.58901775662E-01  0.51100000000E-03 0. -1.
</event>
<event>
 8    1  0.1177602E+005  0.1043930E+01  0.7957747E-01            NaN
         13   -1    0    0    0    0  0.00000000000E+00  0.00000000000E+00  0.74505805969E-08  0.10566000000E+00  0.10566000000E+00 0. -1.
     999900   -1    0    0    0    0 -0.00000000000E+00 -0.00000000000E+00 -0.74505805969E-08  0.93827000000E+00  0.93827000000E+00 0.  1.
     999902    2    1    2    0    0  0.99944194092E-02  0.22545874984E-01  0.43893307174E-02  0.10188806263E+01  0.10185726580E+01 0.  0.
     999903    2    3    3    0    0 -0.21076754670E-01  0.20285766376E-01 -0.12413307468E+00  0.12899943501E+00  0.19393094080E-01 0.  0.
         14    1    1    2    0    0 -0.99944194092E-02 -0.22545874984E-01 -0.43893307174E-02  0.25049373690E-01  0.00000000000E+00 0.  1.
     999901    1    3    3    0    0  0.31071174079E-01  0.22601086083E-02  0.12852240539E+00  0.88988119130E+00  0.88000000000E+00 0. -1.
        -11    1    4    4    0    0 -0.89696591492E-03  0.50790473290E-02 -0.57522165101E-01  0.57755189104E-01  0.51100000000E-03 0. -1.
         11    1    4    4    0    0 -0.20179788755E-01  0.15206719047E-01 -0.66610909576E-01  0.71244245901E-01  0.51100000000E-03 0.  1.
</event>
<event>
 8    1  0.1177602E+005  0.1043930E+01  0.7957747E-01            NaN
         13   -1    0    0    0    0  0.00000000000E+00  0.00000000000E+00  0.74505805969E-08  0.10566000000E+00  0.10566000000E+00 0. -1.
     999900   -1    0    0    0    0 -0.00000000000E+00 -0.00000000000E+00 -0.74505805969E-08  0.93827000000E+00  0.93827000000E+00 0.  1.
     999902    2    1    2    0    0 -0.22020131125E-01  0.10726145325E-01  0.66601115114E-02  0.10185470637E+01  0.10182307340E+01 0.  0.
     999903    2    3    3    0    0 -0.65776605591E-01  0.79977698428E-01 -0.77318799189E-01  0.13076169321E+00  0.19935636801E-01 0.  0.
         14    1    1    2    0    0  0.22020131125E-01 -0.10726145325E-01 -0.66601115114E-02  0.25382936269E-01  0.00000000000E+00 0. -1.
     999901    1    3    3    0    0  0.43756474466E-01 -0.69251553103E-01  0.83978910701E-01  0.88778537052E+00  0.88000000000E+00 0. -1.
        -11    1    4    4    0    0 -0.38072702910E-01  0.38464447443E-01 -0.29500691543E-01  0.61640865881E-01  0.51100000000E-03 0.  1.
         11    1    4    4    0    0 -0.27703902680E-01  0.41513250985E-01 -0.47818107646E-01  0.69120827331E-01  0.51100000000E-03 0. -1.
</event>
<event>
 8    1  0.1177602E+005  0.1043930E+01  0.7957747E-01            NaN
         13   -1    0    0    0    0  0.00000000000E+00  0.00000000000E+00  0.74505805969E-08  0.10566000000E+00  0.10566000000E+00 0.  1.
     999900   -1    0    0    0    0 -0.00000000000E+00 -0.00000000000E+00 -0.74505805969E-08  0.93827000000E+00  0.93827000000E+00 0.  1.
     999902    2    1    2    0    0 -0.16002393135E-01  0.49127524922E-02  0.60736155412E-02  0.10261226833E+01  0.10259681577E+01 0.  0.
     999903    2    3    3    0    0  0.11001302449E+00 -0.65304108279E-01 -0.32762977763E-01  0.13353175010E+00  0.19743947314E-01 0.  0.
         14    1    1    2    0    0  0.16002393135E-01 -0.49127524922E-02 -0.60736155412E-02  0.17807316722E-01  0.00000000000E+00 0. -1.
     999901    1    3    3    0    0 -0.12601541763E+00  0.70216860771E-01  0.38836593304E-01  0.89259093318E+00  0.88000000000E+00 0. -1.
        -11    1    4    4    0    0  0.80929710776E-01 -0.38994171800E-01 -0.27552900736E-01  0.93965882003E-01  0.51100000000E-03 0. -1.
         11    1    4    4    0    0  0.29083313719E-01 -0.26309936480E-01 -0.52100770262E-02  0.39565868094E-01  0.51100000000E-03 0.  1.
</event>
<event>
 8    1  0.1177602E+005  0.1043930E+01  0.7957747E-01            NaN
         13   -1    0    0    0    0  0.00000000000E+00  0.00000000000E+00  0.74505805969E-08  0.10566000000E+00  0.10566000000E+00 0. -1.
     999900   -1    0    0    0    0 -0.00000000000E+00 -0.00000000000E+00 -0.74505805969E-08  0.93827000000E+00  0.93827000000E+00 0.  1.
     999902    2    1    2    0    0 -0.19427147560E-02  0.36648801413E-02  0.18759419225E-01  0.10247174703E+01  0.10245373457E+01 0.  0.
     999903    2    3    3    0    0  0.37567193135E-01 -0.78255662442E-01  0.10272930884E+00  0.13605389479E+00  0.20545283810E-01 0.  0.
         14    1    1    2    0    0  0.19427147560E-02 -0.36648801413E-02 -0.18759419225E-01  0.19212529681E-01  0.00000000000E+00 0.  1.
     999901    1    3    3    0    0 -0.39509907891E-01  0.81920542583E-01 -0.83969889617E-01  0.88866357553E+00  0.88000000000E+00 0. -1.
        -11    1    4    4    0    0  0.26665713702E-01 -0.35964430504E-01  0.43173331009E-01  0.62198859958E-01  0.51100000000E-03 0. -1.
         11    1    4    4    0    0  0.10901479434E-01 -0.42291231938E-01  0.59555977833E-01  0.73855034827E-01  0.51100000000E-03 0.  1.
</event>
<event>
 8    1  0.1177602E+005  0.1043930E+01  0.7957747E-01            NaN
         13   -1    0    0    0    0  0.00000000000E+00  0.00000000000E+00  0.74505805969E-08  0.10566000000E+00  0.10566000000E+00 0. -1.
     999900   -1    0    0    0    0 -0.00000000000E+00 -0.00000000000E+00 -0.74505805969E-08  0.93827000000E+00  0.93827000000E+00 0. -1.
     999902    2    1    2    0    0  0.28628715062E-03 -0.99160831351E-02 -0.21814230344E-01  0.10199660414E+01  0.10196844876E+01 0.  0.
     999903    2    3    3    0    0  0.40357530636E-01 -0.55575310146E-01  0.10673196707E+00  0.12855446733E+00  0.20425300421E-01 0.  0.
         14    1    1    2    0    0 -0.28628715062E-03  0.99160831351E-02  0.21814230344E-01  0.23963958575E-01  0.00000000000E+00 0. -1.
     999901    1    3    3    0    0 -0.40071243486E-01  0.45659227011E-01 -0.12854619742E+00  0.89141157410E+00  0.88000000000E+00 0. -1.
        -11    1    4    4    0    0  0.14097446650E-01 -0.34064679442E-01  0.65299043926E-01  0.74989110184E-01  0.51100000000E-03 0. -1.
         11    1    4    4    0    0  0.26260083986E-01 -0.21510630703E-01  0.41432923149E-01  0.53565357143E-01  0.51100000000E-03 0.  1.
</event>
<event>
 8    1  0.1177602E+005  0.1043930E+01  0.7957747E-01            NaN
         13   -1    0    0    0    0  0.00000000000E+00  0.00000000000E+00  0.74505805969E-08  0.10566000000E+00  0.10566000000E+00 0.  1.
     999900   -1    0    0    0    0 -0.00000000000E+00 -0.00000000000E+00 -0.74505805969E-08  0.93827000000E+00  0.93827000000E+00 0. -1.
     999902    2    1    2    0    0  0.55989640417E-02 -0.16724028486E-01 -0.17047516544E-01  0.10194012547E+01  0.10191061077E+01 0.  0.
     999903    2    3    3    0    0 -0.52765717467E-01 -0.55917536801E-01 -0.10466436037E+00  0.13226018445E+00  0.25042687548E-01 0.  0.
         14    1    1    2    0    0 -0.55989640417E-02  0.16724028486E-01  0.17047516544E-01  0.24528745330E-01  0.00000000000E+00 0.  1.
     999901    1    3    3    0    0  0.58364681508E-01  0.39193508315E-01  0.87616843822E-01  0.88714107022E+00  0.88000000000E+00 0.  1.
        -11    1    4    4    0    0 -0.32574206367E-01 -0.16599339721E-01 -0.50544207381E-01  0.62382649995E-01  0.51100000000E-03 0. -1.
         11    1    4    4    0    0 -0.20191511100E-01 -0.39318197080E-01 -0.54120152985E-01  0.69877534460E-01  0.51100000000E-03 0.  1.
</event>
<event>
 8    1  0.1177602E+005  0.1043930E+01  0.7957747E-01            NaN
         13   -1    0    0    0    0  0.00000000000E+00  0.00000000000E+00  0.74505805969E-08  0.10566000000E+00  0.10566000000E+00 0.  1.
     999900   -1    0    0    0    0 -0.00000000000E+00 -0.00000000000E+00 -0.74505805969E-08  0.93827000000E+00  0.93827000000E+00 0.  1.
     999902    2    1    2    0    0 -0.11769301137E-01 -0.19860061560E-01  0.55075892428E-02  0.10201966472E+01  0.10199205493E+01 0.  0.
     999903    2    3    3    0    0 -0.59913953556E-01 -0.11080380820E+00  0.40033685230E-01  0.13352831921E+00  0.18972357169E-01 0.  0.
         14    1    1    2    0    0  0.11769301137E-01  0.19860061560E-01 -0.55075892428E-02  0.23733352770E-01  0.00000000000E+00 0.  1.
     999901    1    3    3    0    0  0.48144652419E-01  0.90943746636E-01 -0.34526095987E-01  0.88666832802E+00  0.88000000000E+00 0.  1.
        -11    1    4    4    0    0 -0.18717866353E-01 -0.46060745947E-01  0.23647334809E-01  0.55058227383E-01  0.51100000000E-03 0. -1.
         11    1    4    4    0    0 -0.41196087204E-01 -0.64743062249E-01  0.16386350422E-01  0.78470091827E-01  0.51100000000E-03 0.  1.
</event>
<event>
 8    1  0.1177602E+005  0.1043930E+01  0.7957747E-01            NaN
         13   -1    0    0    0    0  0.00000000000E+00  0.00000000000E+00  0.74505805969E-08  0.10566000000E+00  0.10566000000E+00 0.  1.
     999900   -1    0    0    0    0 -0.00000000000E+00 -0.00000000000E+00 -0.74505805969E-08  0.93827000000E+00  0.93827000000E+00 0. -1.
     999902    2    1    2    0    0  0.16358115463E-01  0.59044553535E-02  0.16874975266E-01  0.10196974738E+01  0.10194094971E+01 0.  0.
     999903    2    3    3    0    0 -0.10681468250E+00 -0.36637371134E-01 -0.53757650064E-01  0.12730164634E+00  0.23751860130E-01 0.  0.
         14    1    1    2    0    0 -0.16358115463E-01 -0.59044553535E-02 -0.16874975266E-01  0.24232526173E-01  0.00000000000E+00 0. -1.
     999901    1    3    3    0    0  0.12317279796E+00  0.42541826487E-01  0.70632625330E-01  0.89239582749E+00  0.88000000000E+00 0.  1.
        -11    1    4    4    0    0 -0.22417264467E-01 -0.86480081027E-03 -0.18518967002E-01  0.29094585174E-01  0.51100000000E-03 0. -1.
         11    1    4    4    0    0 -0.84397418029E-01 -0.35772570324E-01 -0.35238683061E-01  0.98207061164E-01  0.51100000000E-03 0.  1.
</event>
<event>
 8    1  0.1177602E+005  0.1043930E+01  0.7957747E-01            NaN
         13   -1    0    0    0    0  0.00000000000E+00  0.00000000000E+00  0.74505805969E-08  0.10566000000E+00  0.10566000000E+00 0.  1.
     999900   -1    0    0    0    0 -0.00000000000E+00 -0.00000000000E+00 -0.74505805969E-08  0.93827000000E+00  0.93827000000E+00 0.  1.
     999902    2    1    2    0    0  0.12989085584E-01 -0.19828058478E-01 -0.25952073802E-02  0.10200845948E+01  0.10198058527E+01 0.  0.
     999903    2    3    3    0    0  0.19440312818E-01  0.52336494049E-01 -0.11559365966E+00  0.12990596600E+00  0.19915608850E-01 0.  0.
         14    1    1    2    0    0 -0.12989085584E-01  0.19828058478E-01  0.25952073802E-02  0.23845405190E-01  0.00000000000E+00 0. -1.
     999901    1    3    3    0    0 -0.64512272337E-02 -0.72164552527E-01  0.11299845228E+00  0.89017862881E+00  0.88000000000E+00 0. -1.
        -11    1    4    4    0    0  0.15077376063E-02  0.16891361236E-01 -0.19059027752E-01  0.25516641961E-01  0.51100000000E-03 0. -1.
         11    1    4    4    0    0  0.17932575211E-01  0.35445132813E-01 -0.96534631912E-01  0.10438932404E+00  0.51100000000E-03 0.  1.
</event>
<event>
 8    1  0.1177602E+005  0.1043930E+01  0.7957747E-01            NaN
         13   -1    0    0    0    0  0.00000000000E+00  0.00000000000E+00  0.74505805969E-08  0.10566000000E+00  0.10566000000E+00 0. -1.
     999900   -1    0    0    0    0 -0.00000000000E+00 -0.00000000000E+00 -0.74505805969E-08  0.93827000000E+00  0.93827000000E+00 0.  1.
     999902    2    1    2    0    0 -0.11811906608E-01 -0.17418397503E-01  0.11216099421E-01  0.10200820945E+01  0.10198032933E+01 0.  0.
     999903    2    3    3    0    0  0.11943164194E+00  0.41950513593E-01  0.71622640593E-02  0.12836130290E+00  0.20039046065E-01 0.  0.
         14    1    1    2    0    0  0.11811906608E-01  0.17418397503E-01 -0.11216099421E-01  0.23847905475E-01  0.00000000000E+00 0.  1.
     999901    1    3    3    0    0 -0.13124354855E+00 -0.59368911097E-01  0.40538353621E-02  0.89172079163E+00  0.88000000000E+00 0. -1.
        -11    1    4    4    0    0  0.89588231984E-01  0.35581418386E-01 -0.22501536865E-02  0.96423093484E-01  0.51100000000E-03 0. -1.
         11    1    4    4    0    0  0.29843409958E-01  0.63690952073E-02  0.94124177458E-02  0.31938209413E-01  0.51100000000E-03 0.  1.
</event>
<event>
 8    1  0.1177602E+005  0.1043930E+01  0.7957747E-01            NaN
         13   -1    0    0    0    0  0.00000000000E+00  0.00000000000E+00  0.74505805969E-08  0.10566000000E+00  0.10566000000E+00 0.  1.
     999900   -1    0    0    0    0 -0.00000000000E+00 -0.00000000000E+00 -0.74505805969E-08  0.93827000000E+00  0.93827000000E+00 0.  1.
     999902    2    1    2    0    0  0.85984434018E-02  0.20602487039E-01  0.33640151797E-02  0.10213531911E+01  0.10211036327E+01 0.  0.
     999903    2    3    3    0    0 -0.65232398354E-01 -0.67362103493E-02 -0.11069789277E+00  0.13050611310E+00  0.21844444770E-01 0.  0.
         14    1    1    2    0    0 -0.85984434018E-02 -0.20602487039E-01 -0.33640151797E-02  0.22576808881E-01  0.00000000000E+00 0.  1.
     999901    1    3    3    0    0  0.73830841756E-01  0.27338697388E-01  0.11406190795E+00  0.89084707802E+00  0.88000000000E+00 0. -1.
        -11    1    4    4    0    0 -0.10584750221E-01 -0.87896886958E-02 -0.30175841071E-01  0.33168329321E-01  0.51100000000E-03 0. -1.
         11    1    4    4    0    0 -0.54647648133E-01  0.20534783465E-02 -0.80522051702E-01  0.97337783779E-01  0.51100000000E-03 0.  1.
</event>
<event>
 8    1  0.1177602E+005  0.1043930E+01  0.7957747E-01            NaN
         13   -1    0    0    0    0  0.00000000000E+00  0.00000000000E+00  0.74505805969E-08  0.10566000000E+00  0.10566000000E+00 0.  1.
     999900   -1    0    0    0    0 -0.00000000000E+00 -0.00000000000E+00 -0.74505805969E-08  0.93827000000E+00  0.93827000000E+00 0. -1.
     999902    2    1    2    0    0 -0.92858243726E-02  0.39769273797E-02 -0.20793481363E-01  0.10208126612E+01  0.10205508698E+01 0.  0.
     999903    2    3    3    0    0  0.11012478062E+00  0.14665554251E-01 -0.66517698792E-01  0.13150740237E+00  0.22957500724E-01 0.  0.
         14    1    1    2    0    0  0.92858243726E-02 -0.39769273797E-02  0.20793481363E-01  0.23117338793E-01  0.00000000000E+00 0.  1.
     999901    1    3    3    0    0 -0.11941060499E+00 -0.10688626872E-01  0.45724217429E-01  0.88930525883E+00  0.88000000000E+00 0.  1.
        -11    1    4    4    0    0  0.53090355717E-01  0.17176292885E-01 -0.39350212907E-01  0.68281119530E-01  0.51100000000E-03 0. -1.
         11    1    4    4    0    0  0.57034424899E-01 -0.25107386335E-02 -0.27167485885E-01  0.63226282845E-01  0.51100000000E-03 0.  1.
</event>
<event>
 8    1  0.1177602E+005  0.1043930E+01  0.7957747E-01            NaN
         13   -1    0    0    0    0  0.00000000000E+00  0.00000000000E+00  0.74505805969E-08  0.10566000000E+00  0.10566000000E+00 0. -1.
     999900   -1    0    0    0    0 -0.00000000000E+00 -0.00000000000E+00 -0.74505805969E-08  0.93827000000E+00  0.93827000000E+00 0. -1.
     999902    2    1    2    0    0 -0.21684036125E-02  0.23445585763E-01  0.43766853113E-02  0.10199810368E+01  0.10196998394E+01 0.  0.
     999903    2    3    3    0    0  0.76557934635E-01 -0.99285454405E-01  0.16266648988E-01  0.12790362095E+00  0.19391069377E-01 0.  0.
         14    1    1    2    0    0  0.21684036125E-02 -0.23445585763E-01 -0.43766853113E-02  0.23948963241E-01  0.00000000000E+00 0. -1.
     999901    1    3    3    0    0 -0.78726338248E-01  0.12273104017E+00 -0.11889963677E-01  0.89207741581E+00  0.88000000000E+00 0.  1.
        -11    1    4    4    0    0  0.66285289401E-01 -0.79281280796E-01  0.19541108896E-01  0.10517308179E+00  0.51100000000E-03 0. -1.
         11    1    4    4    0    0  0.10272645234E-01 -0.20004173609E-01 -0.32744599078E-02  0.22730539162E-01  0.51100000000E-03 0.  1.
</event>
<event>
 8    1  0.1177602E+005  0.1043930E+01  0.7957747E-01            NaN
         13   -1    0    0    0    0  0.00000000000E+00  0.00000000000E+00  0.74505805969E-08  0.10566000000E+00  0.10566000000E+00 0. -1.
     999900   -1    0    0    0    0 -0.00000000000E+00 -0.00000000000E+00 -0.74505805969E-08  0.93827000000E+00  0.93827000000E+00 0.  1.
     999902    2    1    2    0    0  0.60846309550E-02 -0.21607079082E-01 -0.16537111082E-01  0.10160487403E+01  0.10156661253E+01 0.  0.
     999903    2    3    3    0    0 -0.10589551333E+00  0.58615286884E-01 -0.26100426232E-01  0.12528129717E+00  0.19093443135E-01 0.  0.
         14    1    1    2    0    0 -0.60846309550E-02  0.21607079082E-01  0.16537111082E-01  0.27881259714E-01  0.00000000000E+00 0. -1.
     999901    1    3    3    0    0  0.11198014429E+00 -0.80222365966E-01  0.95633151503E-02  0.89076744311E+00  0.88000000000E+00 0. -1.
        -11    1    4    4    0    0 -0.63755942731E-01  0.45006883032E-01 -0.13166072200E-01  0.79145728451E-01  0.51100000000E-03 0. -1.
         11    1    4    4    0    0 -0.42139570603E-01  0.13608403852E-01 -0.12934354032E-01  0.46135568721E-01  0.51100000000E-03 0.  1.
</event>
<event>
 8    1  0.1177602E+005  0.1043930E+01  0.7957747E-01            NaN
         13   -1    0    0    0    0  0.00000000000E+00  0.00000000000E+00  0.74505805969E-08  0.10566000000E+00  0.10566000000E+00 0.  1.
     999900   -1    0    0    0    0 -0.00000000000E+00 -0.00000000000E+00 -0.74505805969E-08  0.93827000000E+00  0.93827000000E+00 0. -1.
     999902    2    1    2    0    0 -0.20508469300E-01  0.11827638977E-01 -0.18446959229E-02  0.10201835632E+01  0.10199071572E+01 0.  0.
     999903    2    3    3    0    0 -0.22409183064E-01 -0.11767740703E+00 -0.45107226214E-01  0.12965180287E+00  0.20610301355E-01 0.  0.
         14    1    1    2    0    0  0.20508469300E-01 -0.11827638977E-01  0.18446959229E-02  0.23746436782E-01  0.00000000000E+00 0.  1.
     999901    1    3    3    0    0  0.19007137640E-02  0.12950504600E+00  0.43262530291E-01  0.89053176034E+00  0.88000000000E+00 0.  1.
        -11    1    4    4    0    0  0.31343167339E-02 -0.30727114827E-01 -0.10112501648E-01  0.32503897267E-01  0.51100000000E-03 0. -1.
         11    1    4    4    0    0 -0.25543499798E-01 -0.86950292199E-01 -0.34994724567E-01  0.97147905607E-01  0.51100000000E-03 0.  1.
</event>
<event>
 8    1  0.1177602E+005  0.1043930E+01  0.7957747E-01            NaN
         13   -1    0    0    0    0  0.00000000000E+00  0.00000000000E+00  0.74505805969E-08  0.10566000000E+00  0.10566000000E+00 0.  1.
     999900   -1    0    0    0    0 -0.00000000000E+00 -0.00000000000E+00 -0.74505805969E-08  0.93827000000E+00  0.93827000000E+00 0. -1.
     999902    2    1    2    0    0  0.23195301970E-01 -0.10203226524E-02  0.49234165857E-03  0.10207070482E+01  0.10204428317E+01 0.  0.
     999903    2    3    3    0    0  0.89192192049E-01 -0.11281119995E-01 -0.95789157400E-01  0.13293962337E+00  0.20368357694E-01 0.  0.
         14    1    1    2    0    0 -0.23195301970E-01  0.10203226524E-02 -0.49234165857E-03  0.23222951839E-01  0.00000000000E+00 0.  1.
     999901    1    3    3    0    0 -0.65996890079E-01  0.10260797342E-01  0.96281499059E-01  0.88776742479E+00  0.88000000000E+00 0. -1.
        -11    1    4    4    0    0  0.68508403607E-01 -0.30904311789E-02 -0.81407598773E-01  0.10644440046E+00  0.51100000000E-03 0. -1.
         11    1    4    4    0    0  0.20683788442E-01 -0.81906888160E-02 -0.14381558627E-01  0.26495222912E-01  0.51100000000E-03 0.  1.
</event>
<event>
 8    1  0.1177602E+005  0.1043930E+01  0.7957747E-01            NaN
         13   -1    0    0    0    0  0.00000000000E+00  0.00000000000E+00  0.74505805969E-08  0.10566000000E+00  0.10566000000E+00 0. -1.
     999900   -1    0    0    0    0 -0.00000000000E+00 -0.00000000000E+00 -0.74505805969E-08  0.93827000000E+00  0.93827000000E+00 0. -1.
     999902    2    1    2    0    0  0.25434232636E-02 -0.44734802287E-02 -0.24223030508E-01  0.10191663929E+01  0.10188654967E+01 0.  0.
     999903    2    3    3    0    0 -0.10626253919E+00  0.32855320926E-01 -0.65653212712E-01  0.13071344717E+00  0.20111230290E-01 0.  0.
         14    1    1    2    0    0 -0.25434232636E-02  0.44734802287E-02  0.24223030508E-01  0.24763607052E-01  0.00000000000E+00 0. -1.
     999901    1    3    3    0    0  0.10880596245E+00 -0.37328801155E-01  0.41430182204E-01  0.88845294578E+00  0.88000000000E+00 0. -1.
        -11    1    4    4    0    0 -0.66132262593E-01  0.28735070908E-01 -0.48338377331E-01  0.86810369771E-01  0.51100000000E-03 0. -1.
         11    1    4    4    0    0 -0.40130276597E-01  0.41202500181E-02 -0.17314835381E-01  0.43903077401E-01  0.51100000000E-03 0.  1.
</event>
<event>
 8    1  0.1177602E+005  0.1043930E+01  0.7957747E-01            NaN
         13   -1    0    0    0    0  0.00000000000E+00  0.00000000000E+00  0.74505805969E-08  0.10566000000E+00  0.10566000000E+00 0. -1.
     999900   -1    0    0    0    0 -0.00000000000E+00 -0.00000000000E+00 -0.74505805969E-08  0.93827000000E+00  0.93827000000E+00 0. -1.
     999902    2    1    2    0    0  0.14488506310E-02  0.15212769632E-01  0.16722418290E-01  0.10212768148E+01  0.10210255460E+01 0.  0.
     999903    2    3    3    0    0 -0.72544270430E-02  0.10071191955E+00 -0.81645234186E-01  0.13163528766E+00  0.21596000584E-01 0.  0.
         14    1    1    2    0    0 -0.14488506310E-02 -0.15212769632E-01 -0.16722418290E-01  0.22653185240E-01  0.00000000000E+00 0.  1.
     999901    1    3    3    0    0  0.87032776740E-02 -0.85499149923E-01  0.98367652476E-01  0.88964152710E+00  0.88000000000E+00 0.  1.
        -11    1    4    4    0    0 -0.13657030417E-01  0.58764180528E-01 -0.41573413845E-01  0.73269047030E-01  0.51100000000E-03 0.  1.
         11    1    4    4    0    0  0.64026033741E-02  0.41947739026E-01 -0.40071820341E-01  0.58366240635E-01  0.51100000000E-03 0. -1.
</event>
<event>
 8    1  0.1177602E+005  0.1043930E+01  0.7957747E-01            NaN
         13   -1    0    0    0    0  0.00000000000E+00  0.00000000000E+00  0.74505805969E-08  0.10566000000E+00  0.10566000000E+00 0. -1.
     999900   -1    0    0    0    0 -0.00000000000E+00 -0.00000000000E+00 -0.74505805969E-08  0.93827000000E+00  0.93827000000E+00 0.  1.
     999902    2    1    2    0    0 -0.92039356788E-02  0.76525273916E-02  0.19547279680E-01  0.10210090543E+01  0.10207517422E+01 0.  0.
     999903    2    3    3    0    0 -0.12458563281E+00  0.36039639784E-01 -0.17071108767E-01  0.13226855759E+00  0.19573273413E-01 0.  0.
         14    1    1    2    0    0  0.92039356788E-02 -0.76525273916E-02 -0.19547279680E-01  0.22920945669E-01  0.00000000000E+00 0.  1.
     999901    1    3    3    0    0  0.11538169713E+00 -0.28387112392E-01  0.36618388447E-01  0.88874049675E+00  0.88000000000E+00 0.  1.
        -11    1    4    4    0    0 -0.41407834897E-01  0.31222378811E-02 -0.22160864824E-02  0.41587610181E-01  0.51100000000E-03 0. -1.
         11    1    4    4    0    0 -0.83177797916E-01  0.32917401903E-01 -0.14855022285E-01  0.90680947405E-01  0.51100000000E-03 0.  1.
</event>
<event>
 8    1  0.1177602E+005  0.1043930E+01  0.7957747E-01            NaN
         13   -1    0    0    0    0  0.00000000000E+00  0.00000000000E+00  0.74505805969E-08  0.10566000000E+00  0.10566000000E+00 0. -1.
     999900   -1    0    0    0    0 -0.00000000000E+00 -0.00000000000E+00 -0.74505805969E-08  0.93827000000E+00  0.93827000000E+00 0. -1.
     999902    2    1    2    0    0  0.13775204419E-02 -0.17410335236E-01 -0.16825713392E-01  0.10196787739E+01  0.10193903472E+01 0.  0.
     999903    2    3    3    0    0 -0.82504144686E-01  0.31604710216E-01 -0.94632829243E-01  0.13091977638E+00  0.19463398407E-01 0.  0.
         14    1    1    2    0    0 -0.13775204419E-02  0.17410335236E-01  0.16825713392E-01  0.24251226088E-01  0.00000000000E+00 0.  1.
     999901    1    3    3    0    0  0.83881665128E-01 -0.49015045452E-01  0.77807115851E-01  0.88875899754E+00  0.88000000000E+00 0.  1.
        -11    1    4    4    0    0 -0.39300348108E-01  0.22895786508E-01 -0.38802490367E-01  0.59788199345E-01  0.51100000000E-03 0. -1.
         11    1    4    4    0    0 -0.43203796578E-01  0.87089237085E-02 -0.55830338876E-01  0.71131577031E-01  0.51100000000E-03 0.  1.
</event>
<event>
 8    1  0.1177602E+005  0.1043930E+01  0.7957747E-01            NaN
         13   -1    0    0    0    0  0.00000000000E+00  0.00000000000E+00  0.74505805969E-08  0.10566000000E+00  0.10566000000E+00 0.  1.
     999900   -1    0    0    0    0 -0.00000000000E+00 -0.00000000000E+00 -0.74505805969E-08  0.93827000000E+00  0.93827000000E+00 0.  1.
     999902    2    1    2    0    0 -0.11851739227E-01 -0.39355397709E-03 -0.17689071540E-01  0.10226339473E+01  0.10224121813E+01 0.  0.
     999903    2    3    3    0    0 -0.26511071701E-01  0.26063861362E-01 -0.12846078634E+00  0.13517394054E+00  0.19689052322E-01 0.  0.
         14    1    1    2    0    0  0.11851739227E-01  0.39355397709E-03  0.17689071540E-01  0.21296052672E-01  0.00000000000E+00 0.  1.
     999901    1    3    3    0    0  0.14659332474E-01 -0.26457415339E-01  0.11077171480E+00  0.88746000679E+00  0.88000000000E+00 0. -1.
        -11    1    4    4    0    0 -0.74300375680E-02  0.71811183412E-03 -0.49733981790E-01  0.50293649784E-01  0.51100000000E-03 0.  1.
         11    1    4    4    0    0 -0.19081034133E-01  0.25345749527E-01 -0.78726804550E-01  0.84880290753E-01  0.51100000000E-03 0. -1.
</event>
<event>
 8    1  0.1177602E+005  0.1043930E+01  0.7957747E-01            NaN
         13   -1    0    0    0    0  0.00000000000E+00  0.00000000000E+00  0.74505805969E-08  0.10566000000E+00  0.10566000000E+00 0.  1.
     999900   -1    0    0    0    0 -0.00000000000E+00 -0.00000000000E+00 -0.74505805969E-08  0.93827000000E+00  0.93827000000E+00 0. -1.
     999902    2    1    2    0    0 -0.22692591239E-01 -0.36709426287E-02  0.57420645618E-02  0.10202361016E+01  0.10199609317E+01 0.  0.
     999903    2    3    3    0    0  0.43504790811E-01 -0.52334425879E-01 -0.10800845699E+00  0.12911915687E+00  0.19348667509E-01 0.  0.
         14    1    1    2    0    0  0.22692591239E-01  0.36709426287E-02 -0.57420645618E-02  0.23693898420E-01  0.00000000000E+00 0. -1.
     999901    1    3    3    0    0 -0.66197382049E-01  0.48663483250E-01  0.11375052155E+00  0.89111694471E+00  0.88000000000E+00 0.  1.
        -11    1    4    4    0    0  0.14856204219E-01 -0.64658590330E-02 -0.31490635020E-01  0.35418008863E-01  0.51100000000E-03 0.  1.
         11    1    4    4    0    0  0.28648586591E-01 -0.45868566846E-01 -0.76517821970E-01  0.93701148009E-01  0.51100000000E-03 0. -1.
</event>
<event>
 8    1  0.1177602E+005  0.1043930E+01  0.7957747E-01            NaN
         13   -1    0    0    0    0  0.00000000000E+00  0.00000000000E+00  0.74505805969E-08  0.10566000000E+00  0.10566000000E+00 0. -1.
     999900   -1    0    0    0    0 -0.00000000000E+00 -0.00000000000E+00 -0.74505805969E-08  0.93827000000E+00  0.93827000000E+00 0.  1.
     999902    2    1    2    0    0 -0.22808793880E-01  0.35559291156E-02 -0.35967810673E-02  0.10205671546E+01  0.10202997082E+01 0.  0.
     999903    2    3    3    0    0 -0.53957377092E-01 -0.10586501288E+00 -0.53690164948E-01  0.13183067855E+00  0.19439508792E-01 0.  0.
         14    1    1    2    0    0  0.22808793880E-01 -0.35559291156E-02  0.35967810673E-02  0.23362845378E-01  0.00000000000E+00 0.  1.
     999901    1    3    3    0    0  0.31148583212E-01  0.10942094199E+00  0.50093383880E-01  0.88873647607E+00  0.88000000000E+00 0. -1.
        -11    1    4    4    0    0 -0.33301660256E-01 -0.44062117864E-01 -0.24131516304E-01  0.60274887031E-01  0.51100000000E-03 0. -1.
         11    1    4    4    0    0 -0.20655716836E-01 -0.61802895013E-01 -0.29558648643E-01  0.71555791524E-01  0.51100000000E-03 0.  1.
</event>
<event>
 8    1  0.1177602E+005  0.1043930E+01  0.7957747E-01            NaN
         13   -1    0    0    0    0  0.00000000000E+00  0.00000000000E+00  0.74505805969E-08  0.10566000000E+00  0.10566000000E+00 0.  1.
     999900   -1    0    0    0    0 -0.00000000000E+00 -0.00000000000E+00 -0.74505805969E-08  0.93827000000E+00  0.93827000000E+00 0. -1.
     999902    2    1    2    0    0 -0.22268230665E-01 -0.17424149527E-02  0.26328849333E-02  0.10214390643E+01  0.10211914217E+01 0.  0.
     999903    2    3    3    0    0 -0.12720229720E-01 -0.84799320637E-01  0.98705271905E-01  0.13227118505E+00  0.20005166031E-01 0.  0.
         14    1    1    2    0    0  0.22268230665E-01  0.17424149527E-02 -0.26328849333E-02  0.22490935727E-01  0.00000000000E+00 0.  1.
     999901    1    3    3    0    0 -0.95480009447E-02  0.83056905684E-01 -0.96072386972E-01  0.88916787922E+00  0.88000000000E+00 0. -1.
        -11    1    4    4    0    0 -0.14217193104E-02 -0.48837142985E-01  0.67526350415E-01  0.83349606731E-01  0.51100000000E-03 0. -1.
         11    1    4    4    0    0 -0.11298510410E-01 -0.35962177652E-01  0.31178921489E-01  0.48921578319E-01  0.51100000000E-03 0.  1.
</event>
<event>
 8    1  0.1177602E+005  0.1043930E+01  0.7957747E-01            NaN
         13   -1    0    0    0    0  0.00000000000E+00  0.00000000000E+00  0.74505805969E-08  0.10566000000E+00  0.10566000000E+00 0.  1.
     999900   -1    0    0    0    0 -0.00000000000E+00 -0.00000000000E+00 -0.74505805969E-08  0.93827000000E+00  0.93827000000E+00 0.  1.
     999902    2    1    2    0    0  0.97571253924E-02  0.21091793273E-01 -0.28197945541E-02  0.10205202482E+01  0.10202517143E+01 0.  0.
     999903    2    3    3    0    0 -0.35913796999E-01  0.11869138622E+00 -0.43614414085E-01  0.13300928222E+00  0.20293005298E-01 0.  0.
         14    1    1    2    0    0 -0.97571253924E-02 -0.21091793273E-01  0.28197945541E-02  0.23409751829E-01  0.00000000000E+00 0.  1.
     999901    1    3    3    0    0  0.45670922392E-01 -0.97599592946E-01  0.40794619530E-01  0.88751096595E+00  0.88000000000E+00 0. -1.
        -11    1    4    4    0    0 -0.73245417435E-02  0.56976991809E-01 -0.23623029619E-01  0.62115498522E-01  0.51100000000E-03 0. -1.
         11    1    4    4    0    0 -0.28589255256E-01  0.61714394410E-01 -0.19991384466E-01  0.70893783700E-01  0.51100000000E-03 0.  1.
</event>
<event>
 8    1  0.1177602E+005  0.1043930E+01  0.7957747E-01            NaN
         13   -1    0    0    0    0  0.00000000000E+00  0.00000000000E+00  0.74505805969E-08  0.10566000000E+00  0.10566000000E+00 0.  1.
     999900   -1    0    0    0    0 -0.00000000000E+00 -0.00000000000E+00 -0.74505805969E-08  0.93827000000E+00  0.93827000000E+00 0.  1.
     999902    2    1    2    0    0  0.13972522049E-01 -0.12817958154E-01  0.14096122301E-01  0.10203030644E+01  0.10200294658E+01 0.  0.
     999903    2    3    3    0    0  0.55446235690E-01  0.11562671586E+00 -0.34957347238E-02  0.12983825504E+00  0.20048187925E-01 0.  0.
         14    1    1    2    0    0 -0.13972522049E-01  0.12817958154E-01 -0.14096122301E-01  0.23626935636E-01  0.00000000000E+00 0. -1.
     999901    1    3    3    0    0 -0.41473713641E-01 -0.12844467401E+00  0.17591857024E-01  0.89046480932E+00  0.88000000000E+00 0. -1.
        -11    1    4    4    0    0  0.40487056348E-01  0.62380362279E-01  0.66137527941E-03  0.74372104099E-01  0.51100000000E-03 0. -1.
         11    1    4    4    0    0  0.14959179343E-01  0.53246353579E-01 -0.41571100032E-02  0.55466150944E-01  0.51100000000E-03 0.  1.
</event>
<event>
 8    1  0.1177602E+005  0.1043930E+01  0.7957747E-01            NaN
         13   -1    0    0    0    0  0.00000000000E+00  0.00000000000E+00  0.74505805969E-08  0.10566000000E+00  0.10566000000E+00 0. -1.
     999900   -1    0    0    0    0 -0.00000000000E+00 -0.00000000000E+00 -0.74505805969E-08  0.93827000000E+00  0.93827000000E+00 0.  1.
     999902    2    1    2    0    0 -0.56911032205E-02  0.92284494399E-02 -0.19633343251E-01  0.10215018681E+01  0.10212556219E+01 0.  0.
     999903    2    3    3    0    0  0.42820608368E-01 -0.11720290507E+00 -0.35117590490E-01  0.13100872633E+00  0.18971445789E-01 0.  0.
         14    1    1    2    0    0  0.56911032205E-02 -0.92284494399E-02  0.19633343251E-01  0.22428131936E-01  0.00000000000E+00 0. -1.
     999901    1    3    3    0    0 -0.48511711589E-01  0.12643135451E+00  0.15484247238E-01  0.89049314173E+00  0.88000000000E+00 0. -1.
        -11    1    4    4    0    0  0.28573734003E-01 -0.72493726317E-01 -0.12514901020E-01  0.78922002628E-01  0.51100000000E-03 0.  1.
         11    1    4    4    0    0  0.14246874365E-01 -0.44709178750E-01 -0.22602689469E-01  0.52086723701E-01  0.51100000000E-03 0. -1.
</event>
<event>
 8    1  0.1177602E+005  0.1043930E+01  0.7957747E-01            NaN
         13   -1    0    0    0    0  0.00000000000E+00  0.00000000000E+00  0.74505805969E-08  0.10566000000E+00  0.10566000000E+00 0. -1.
     999900   -1    0    0    0    0 -0.00000000000E+00 -0.00000000000E+00 -0.74505805969E-08  0.93827000000E+00  0.93827000000E+00 0. -1.
     999902    2    1    2    0    0  0.10710386565E-01  0.14045028473E-02 -0.21765926797E-01  0.10196310169E+01  0.10193414394E+01 0.  0.
     999903    2    3    3    0    0 -0.36159095946E-01 -0.12258833200E+00 -0.76312809160E-04  0.12943923376E+00  0.20472665890E-01 0.  0.
         14    1    1    2    0    0 -0.10710386565E-01 -0.14045028473E-02  0.21765926797E-01  0.24298983064E-01  0.00000000000E+00 0. -1.
     999901    1    3    3    0    0  0.46869482512E-01  0.12399283485E+00 -0.21689613988E-01  0.89019178318E+00  0.88000000000E+00 0.  1.
        -11    1    4    4    0    0 -0.25426387868E-01 -0.98525020581E-01 -0.75864199326E-02  0.10203673735E+00  0.51100000000E-03 0. -1.
         11    1    4    4    0    0 -0.10732708079E-01 -0.24063311423E-01  0.75101071234E-02  0.27402496407E-01  0.51100000000E-03 0.  1.
</event>
<event>
 8    1  0.1177602E+005  0.1043930E+01  0.7957747E-01            NaN
         13   -1    0    0    0    0  0.00000000000E+00  0.00000000000E+00  0.74505805969E-08  0.10566000000E+00  0.10566000000E+00 0.  1.
     999900   -1    0    0    0    0 -0.00000000000E+00 -0.00000000000E+00 -0.74505805969E-08  0.93827000000E+00  0.93827000000E+00 0.  1.
     999902    2    1    2    0    0 -0.47043911339E-02 -0.24672254322E-02 -0.20906627212E-01  0.10223590575E+01  0.10221314676E+01 0.  0.
     999903    2    3    3    0    0 -0.16426642868E-01  0.63938940701E-01  0.11023263515E+00  0.13008964967E+00  0.20348473317E-01 0.  0.
         14    1    1    2    0    0  0.47043911339E-02  0.24672254322E-02  0.20906627212E-01  0.21570942461E-01  0.00000000000E+00 0.  1.
     999901    1    3    3    0    0  0.11722251734E-01 -0.66406166133E-01 -0.13113926236E+00  0.89226940787E+00  0.88000000000E+00 0.  1.
        -11    1    4    4    0    0 -0.67735629633E-03  0.32068078609E-01  0.65631071293E-01  0.73051482649E-01  0.51100000000E-03 0.  1.
         11    1    4    4    0    0 -0.15749286572E-01  0.31870862092E-01  0.44601563854E-01  0.57038167022E-01  0.51100000000E-03 0. -1.
</event>
<event>
 8    1  0.1177602E+005  0.1043930E+01  0.7957747E-01            NaN
         13   -1    0    0    0    0  0.00000000000E+00  0.00000000000E+00  0.74505805969E-08  0.10566000000E+00  0.10566000000E+00 0. -1.
     999900   -1    0    0    0    0 -0.00000000000E+00 -0.00000000000E+00 -0.74505805969E-08  0.93827000000E+00  0.93827000000E+00 0.  1.
     999902    2    1    2    0    0  0.21238564391E-01 -0.61341729648E-02 -0.10759844834E-01  0.10193438462E+01  0.10190472992E+01 0.  0.
     999903    2    3    3    0    0  0.94719584412E-01 -0.49727781391E-02  0.87821930098E-01  0.13079493061E+00  0.19952299940E-01 0.  0.
         14    1    1    2    0    0 -0.21238564391E-01  0.61341729648E-02  0.10759844834E-01  0.24586153750E-01  0.00000000000E+00 0. -1.
     999901    1    3    3    0    0 -0.73481020020E-01 -0.11613948257E-02 -0.98581774932E-01  0.88854891564E+00  0.88000000000E+00 0.  1.
        -11    1    4    4    0    0  0.85192423970E-01 -0.92769375514E-02  0.82884211275E-01  0.11922191188E+00  0.51100000000E-03 0.  1.
         11    1    4    4    0    0  0.95271604420E-02  0.43041594123E-02  0.49377188227E-02  0.11573018729E-01  0.51100000000E-03 0. -1.
</event>
<event>
 8    1  0.1177602E+005  0.1043930E+01  0.7957747E-01            NaN
         13   -1    0    0    0    0  0.00000000000E+00  0.00000000000E+00  0.74505805969E-08  0.10566000000E+00  0.10566000000E+00 0.  1.
     999900   -1    0    0    0    0 -0.00000000000E+00 -0.00000000000E+00 -0.74505805969E-08  0.93827000000E+00  0.93827000000E+00 0. -1.
     999902    2    1    2    0    0  0.19187865175E-01  0.15855769103E-01 -0.18684878181E-02  0.10189686132E+01  0.10186628313E+01 0.  0.
     999903    2    3    3    0    0 -0.96017316430E-01  0.47777233750E-02  0.81349568829E-01  0.12749780498E+00  0.19894376890E-01 0.  0.
         14    1    1    2    0    0 -0.19187865175E-01 -0.15855769103E-01  0.18684878181E-02  0.24961386791E-01  0.00000000000E+00 0. -1.
     999901    1    3    3    0    0  0.11520518161E+00  0.11078045728E-01 -0.83218056647E-01  0.89147080823E+00  0.88000000000E+00 0. -1.
        -11    1    4    4    0    0 -0.32356869206E-01  0.10746862850E-01  0.25172169161E-01  0.42383502299E-01  0.51100000000E-03 0.  1.
         11    1    4    4    0    0 -0.63660447225E-01 -0.59691394750E-02  0.56177399669E-01  0.85114302684E-01  0.51100000000E-03 0. -1.
</event>
<event>
 8    1  0.1177602E+005  0.1043930E+01  0.7957747E-01            NaN
         13   -1    0    0    0    0  0.00000000000E+00  0.00000000000E+00  0.74505805969E-08  0.10566000000E+00  0.10566000000E+00 0.  1.
     999900   -1    0    0    0    0 -0.00000000000E+00 -0.00000000000E+00 -0.74505805969E-08  0.93827000000E+00  0.93827000000E+00 0. -1.
     999902    2    1    2    0    0  0.16090856048E-01 -0.83126358095E-02  0.12558825317E-01  0.10218904978E+01  0.10216528030E+01 0.  0.
     999903    2    3    3    0    0 -0.12718096140E+00  0.16545108746E-01  0.28669157827E-02  0.12990470520E+00  0.20451788693E-01 0.  0.
         14    1    1    2    0    0 -0.16090856048E-01  0.83126358095E-02 -0.12558825317E-01  0.22039502168E-01  0.00000000000E+00 0. -1.
     999901    1    3    3    0    0  0.14327181745E+00 -0.24857744556E-01  0.96919095346E-02  0.89198579263E+00  0.88000000000E+00 0.  1.
        -11    1    4    4    0    0 -0.27924605919E-01 -0.72644653941E-03  0.78867967114E-02  0.29030570502E-01  0.51100000000E-03 0. -1.
         11    1    4    4    0    0 -0.99256355485E-01  0.17271555286E-01 -0.50198809287E-02  0.10087413470E+00  0.51100000000E-03 0.  1.
</event>
<event>
 8    1  0.1177602E+005  0.1043930E+01  0.7957747E-01            NaN
         13   -1    0    0    0    0  0.00000000000E+00  0.00000000000E+00  0.74505805969E-08  0.10566000000E+00  0.10566000000E+00 0.  1.
     999900   -1    0    0    0    0 -0.00000000000E+00 -0.00000000000E+00 -0.74505805969E-08  0.93827000000E+00  0.93827000000E+00 0.  1.
     999902    2    1    2    0    0  0.19608626318E-01  0.79502419983E-02  0.13478516000E-01  0.10188426532E+01  0.10185337388E+01 0.  0.
     999903    2    3    3    0    0 -0.61812739301E-02  0.12369836666E+00  0.36749060419E-01  0.13058353251E+00  0.19028175441E-01 0.  0.
         14    1    1    2    0    0 -0.19608626318E-01 -0.79502419983E-02 -0.13478516000E-01  0.25087346760E-01  0.00000000000E+00 0. -1.
     999901    1    3    3    0    0  0.25789900248E-01 -0.11574812466E+00 -0.23270544418E-01  0.88825912073E+00  0.88000000000E+00 0. -1.
        -11    1    4    4    0    0 -0.74960295300E-02  0.81056307005E-01  0.32701287851E-01  0.87726567880E-01  0.51100000000E-03 0. -1.
         11    1    4    4    0    0  0.13147555999E-02  0.42642059653E-01  0.40477725680E-02  0.42856964632E-01  0.51100000000E-03 0.  1.
</event>
<event>
 8    1  0.1177602E+005  0.1043930E+01  0.7957747E-01            NaN
         13   -1    0    0    0    0  0.00000000000E+00  0.00000000000E+00  0.74505805969E-08  0.10566000000E+00  0.10566000000E+00 0. -1.
     999900   -1    0    0    0    0 -0.00000000000E+00 -0.00000000000E+00 -0.74505805969E-08  0.93827000000E+00  0.93827000000E+00 0. -1.
     999902    2    1    2    0    0 -0.40334541261E-03  0.65439078964E-02 -0.22971544063E-01  0.10200411479E+01  0.10197613771E+01 0.  0.
     999903    2    3    3    0    0 -0.88047421353E-01  0.49711706660E-01  0.77444065971E-01  0.12895852679E+00  0.20226618420E-01 0.  0.
         14    1    1    2    0    0  0.40334541261E-03 -0.65439078964E-02  0.22971544063E-01  0.23888852101E-01  0.00000000000E+00 0. -1.
     999901    1    3    3    0    0  0.87644075940E-01 -0.43167798763E-01 -0.10041561003E+00  0.89108262111E+00  0.88000000000E+00 0.  1.
        -11    1    4    4    0    0 -0.70048573198E-01  0.48111181593E-01  0.65464619436E-01  0.10727239123E+00  0.51100000000E-03 0.  1.
         11    1    4    4    0    0 -0.17998848154E-01  0.16005250669E-02  0.11979446536E-01  0.21686135563E-01  0.51100000000E-03 0. -1.
</event>
<event>
 8    1  0.1177602E+005  0.1043930E+01  0.7957747E-01            NaN
         13   -1    0    0    0    0  0.00000000000E+00  0.00000000000E+00  0.74505805969E-08  0.10566000000E+00  0.10566000000E+00 0.  1.
     999900   -1    0    0    0    0 -0.00000000000E+00 -0.00000000000E+00 -0.74505805969E-08  0.93827000000E+00  0.93827000000E+00 0. -1.
     999902    2    1    2    0    0 -0.86098971300E-02 -0.72727530727E-02  0.20705225984E-01  0.10203560812E+01  0.10200837234E+01 0.  0.
     999903    2    3    3    0    0 -0.38707299701E-01  0.74196701156E-01  0.10092166258E+00  0.13244966588E+00  0.18823562412E-01 0.  0.
         14    1    1    2    0    0  0.86098971300E-02  0.72727530727E-02 -0.20705225984E-01  0.23573918828E-01  0.00000000000E+00 0. -1.
     999901    1    3    3    0    0  0.30097402571E-01 -0.81469454228E-01 -0.80216436595E-01  0.88790641529E+00  0.88000000000E+00 0. -1.
        -11    1    4    4    0    0 -0.13541233145E-01  0.34389183872E-01  0.31528171786E-01  0.48582586383E-01  0.51100000000E-03 0. -1.
         11    1    4    4    0    0 -0.25166066556E-01  0.39807517283E-01  0.69393490794E-01  0.83867079499E-01  0.51100000000E-03 0.  1.
</event>
<event>
 8    1  0.1177602E+005  0.1043930E+01  0.7957747E-01            NaN
         13   -1    0    0    0    0  0.00000000000E+00  0.00000000000E+00  0.74505805969E-08  0.10566000000E+00  0.10566000000E+00 0. -1.
     999900   -1    0    0    0    0 -0.00000000000E+00 -0.00000000000E+00 -0.74505805969E-08  0.93827000000E+00  0.93827000000E+00 0.  1.
     999902    2    1    2    0    0 -0.19888892479E-01 -0.11971693552E-01 -0.57437043087E-02  0.10200159951E+01  0.10197356278E+01 0.  0.
     999903    2    3    3    0    0  0.12366152590E+00  0.20089191575E-01  0.14230723594E-01  0.12758470883E+00  0.19483219078E-01 0.  0.
         14    1    1    2    0    0  0.19888892479E-01  0.11971693552E-01  0.57437043087E-02  0.23914004887E-01  0.00000000000E+00 0.  1.
     999901    1    3    3    0    0 -0.14355041838E+00 -0.32060885127E-01 -0.19974427903E-01  0.89243128629E+00  0.88000000000E+00 0. -1.
        -11    1    4    4    0    0  0.64032517768E-01  0.20188703809E-01  0.85356613306E-02  0.67682093116E-01  0.51100000000E-03 0.  1.
         11    1    4    4    0    0  0.59629008135E-01 -0.99512233821E-04  0.56950622635E-02  0.59902615711E-01  0.51100000000E-03 0. -1.
</event>
<event>
 8    1  0.1177602E+005  0.1043930E+01  0.7957747E-01            NaN
         13   -1    0    0    0    0  0.00000000000E+00  0.00000000000E+00  0.74505805969E-08  0.10566000000E+00  0.10566000000E+00 0. -1.
     999900   -1    0    0    0    0 -0.00000000000E+00 -0.00000000000E+00 -0.74505805969E-08  0.93827000000E+00  0.93827000000E+00 0. -1.
     999902    2    1    2    0    0  0.72004933017E-02 -0.19976070065E-01 -0.10965741823E-01  0.10200315069E+01  0.10197515075E+01 0.  0.
     999903    2    3    3    0    0  0.10717690337E+00 -0.74352599599E-01 -0.13918657264E-01  0.13269796800E+00  0.19995599703E-01 0.  0.
         14    1    1    2    0    0 -0.72004933017E-02  0.19976070065E-01  0.10965741823E-01  0.23898493106E-01  0.00000000000E+00 0.  1.
     999901    1    3    3    0    0 -0.99976410073E-01  0.54376529534E-01  0.29529154406E-02  0.88733353889E+00  0.88000000000E+00 0.  1.
        -11    1    4    4    0    0  0.92349678986E-01 -0.57679418704E-01 -0.16879550343E-01  0.11018420437E+00  0.51100000000E-03 0.  1.
         11    1    4    4    0    0  0.14827224389E-01 -0.16673180894E-01  0.29608930790E-02  0.22513763635E-01  0.51100000000E-03 0. -1.
</event>
<event>
 8    1  0.1177602E+005  0.1043930E+01  0.7957747E-01            NaN
         13   -1    0    0    0    0  0.00000000000E+00  0.00000000000E+00  0.74505805969E-08  0.10566000000E+00  0.10566000000E+00 0. -1.
     999900   -1    0    0    0    0 -0.00000000000E+00 -0.00000000000E+00 -0.74505805969E-08  0.93827000000E+00  0.93827000000E+00 0.  1.
     999902    2    1    2    0    0 -0.61547137209E-02 -0.35595394458E-02 -0.19113966086E-01  0.10235365079E+01  0.10233333222E+01 0.  0.
     999903    2    3    3    0    0 -0.48201550180E-01  0.10055619649E+00 -0.72516374913E-01  0.13479591568E+00  0.21826043188E-01 0.  0.
         14    1    1    2    0    0  0.61547137209E-02  0.35595394458E-02  0.19113966086E-01  0.20393492139E-01  0.00000000000E+00 0. -1.
     999901    1    3    3    0    0  0.42046836459E-01 -0.10411573593E+00  0.53402408826E-01  0.88874059218E+00  0.88000000000E+00 0. -1.
        -11    1    4    4    0    0 -0.22358241094E-01  0.68922509246E-01 -0.41487139249E-01  0.83496389561E-01  0.51100000000E-03 0. -1.
         11    1    4    4    0    0 -0.25843309087E-01  0.31633687242E-01 -0.31029235663E-01  0.51299526118E-01  0.51100000000E-03 0.  1.
</event>
<event>
 8    1  0.1177602E+005  0.1043930E+01  0.7957747E-01            NaN
         13   -1    0    0    0    0  0.00000000000E+00  0.00000000000E+00  0.74505805969E-08  0.10566000000E+00  0.10566000000E+00 0. -1.
     999900   -1    0    0    0    0 -0.00000000000E+00 -0.00000000000E+00 -0.74505805969E-08  0.93827000000E+00  0.93827000000E+00 0.  1.
     999902    2    1    2    0    0 -0.19428000626E-01  0.13624466153E-01  0.80591315943E-03  0.10201871530E+01  0.10199108316E+01 0.  0.
     999903    2    3    3    0    0 -0.12512570811E+00  0.28841044868E-01 -0.29621048670E-01  0.13320950413E+00  0.19470921067E-01 0.  0.
         14    1    1    2    0    0  0.19428000626E-01 -0.13624466153E-01 -0.80591315943E-03  0.23742846972E-01  0.00000000000E+00 0.  1.
     999901    1    3    3    0    0  0.10569770749E+00 -0.15216578715E-01  0.30426961829E-01  0.88697764890E+00  0.88000000000E+00 0. -1.
        -11    1    4    4    0    0 -0.79032585455E-01  0.25941594103E-01 -0.13390607661E-01  0.84253696434E-01  0.51100000000E-03 0. -1.
         11    1    4    4    0    0 -0.46093122657E-01  0.28994507649E-02 -0.16230441009E-01  0.48955807698E-01  0.51100000000E-03 0.  1.
</event>
<event>
 8    1  0.1177602E+005  0.1043930E+01  0.7957747E-01            NaN
         13   -1    0    0    0    0  0.00000000000E+00  0.00000000000E+00  0.74505805969E-08  0.10566000000E+00  0.10566000000E+00 0. -1.
     999900   -1    0    0    0    0 -0.00000000000E+00 -0.00000000000E+00 -0.74505805969E-08  0.93827000000E+00  0.93827000000E+00 0. -1.
     999902    2    1    2    0    0 -0.55691933967E-02  0.23367272988E-01 -0.14056329522E-02  0.10198671414E+01  0.10195832310E+01 0.  0.
     999903    2    3    3    0    0 -0.67038253566E-01 -0.95991317842E-01  0.48555070011E-01  0.12828372384E+00  0.19765081206E-01 0.  0.
         14    1    1    2    0    0  0.55691933967E-02 -0.23367272988E-01  0.14056329522E-02  0.24062858641E-01  0.00000000000E+00 0.  1.
     999901    1    3    3    0    0  0.61469060169E-01  0.11935859083E+00 -0.49960702963E-01  0.89158341752E+00  0.88000000000E+00 0. -1.
        -11    1    4    4    0    0 -0.38249820093E-01 -0.70383213348E-01  0.30309773040E-01  0.85649220201E-01  0.51100000000E-03 0. -1.
         11    1    4    4    0    0 -0.28788433472E-01 -0.25608104495E-01  0.18245296970E-01  0.42634503634E-01  0.51100000000E-03 0.  1.
</event>
<event>
 8    1  0.1177602E+005  0.1043930E+01  0.7957747E-01            NaN
         13   -1    0    0    0    0  0.00000000000E+00  0.00000000000E+00  0.74505805969E-08  0.10566000000E+00  0.10566000000E+00 0.  1.
     999900   -1    0    0    0    0 -0.00000000000E+00 -0.00000000000E+00 -0.74505805969E-08  0.93827000000E+00  0.93827000000E+00 0. -1.
     999902    2    1    2    0    0 -0.76357631415E-02  0.18323798904E-01 -0.11001457403E-01  0.10212342174E+01  0.10209819921E+01 0.  0.
     999903    2    3    3    0    0  0.77071515417E-01 -0.10063857350E+00 -0.15134706759E-01  0.12918912161E+00  0.19814863810E-01 0.  0.
         14    1    1    2    0    0  0.76357631415E-02 -0.18323798904E-01  0.11001457403E-01  0.22695782648E-01  0.00000000000E+00 0. -1.
     999901    1    3    3    0    0 -0.84707278558E-01  0.11896237241E+00  0.41332493563E-02  0.89204509574E+00  0.88000000000E+00 0.  1.
        -11    1    4    4    0    0  0.46413450813E-01 -0.59323488749E-01 -0.18715556004E-01  0.77614546905E-01  0.51100000000E-03 0.  1.
         11    1    4    4    0    0  0.30658064603E-01 -0.41315084755E-01  0.35808492453E-02  0.51574574704E-01  0.51100000000E-03 0. -1.
</event>
<event>
 8    1  0.1177602E+005  0.1043930E+01  0.7957747E-01            NaN
         13   -1    0    0    0    0  0.00000000000E+00  0.00000000000E+00  0.74505805969E-08  0.10566000000E+00  0.10566000000E+00 0. -1.
     999900   -1    0    0    0    0 -0.00000000000E+00 -0.00000000000E+00 -0.74505805969E-08  0.93827000000E+00  0.93827000000E+00 0.  1.
     999902    2    1    2    0    0 -0.14198674900E-01 -0.16793179208E-01  0.51649573833E-02  0.10213404001E+01  0.10210905557E+01 0.  0.
     999903    2    3    3    0    0  0.41683033201E-01  0.11388639867E+00  0.39258485078E-01  0.12928530879E+00  0.21584146046E-01 0.  0.
         14    1    1    2    0    0  0.14198674900E-01  0.16793179208E-01 -0.51649573833E-02  0.22589599854E-01  0.00000000000E+00 0.  1.
     999901    1    3    3    0    0 -0.55881708100E-01 -0.13067957788E+00 -0.34093527695E-01  0.89205509135E+00  0.88000000000E+00 0. -1.
        -11    1    4    4    0    0  0.20336965751E-01  0.36042731406E-01  0.21488244557E-01  0.46633426191E-01  0.51100000000E-03 0.  1.
         11    1    4    4    0    0  0.21346067450E-01  0.77843667265E-01  0.17770240521E-01  0.82651882604E-01  0.51100000000E-03 0. -1.
</event>
<event>
 8    1  0.1177602E+005  0.1043930E+01  0.7957747E-01            NaN
         13   -1    0    0    0    0  0.00000000000E+00  0.00000000000E+00  0.74505805969E-08  0.10566000000E+00  0.10566000000E+00 0.  1.
     999900   -1    0    0    0    0 -0.00000000000E+00 -0.00000000000E+00 -0.74505805969E-08  0.93827000000E+00  0.93827000000E+00 0. -1.
     999902    2    1    2    0    0 -0.23559493247E-01 -0.43435938601E-02 -0.25687662001E-02  0.10198361193E+01  0.10195514676E+01 0.  0.
     999903    2    3    3    0    0 -0.32219770182E-02 -0.87191826622E-01 -0.95442191016E-01  0.13084628957E+00  0.19968572891E-01 0.  0.
         14    1    1    2    0    0  0.23559493247E-01  0.43435938601E-02  0.25687662001E-02  0.24093880748E-01  0.00000000000E+00 0. -1.
     999901    1    3    3    0    0 -0.20337516229E-01  0.82848232762E-01  0.92873424816E-01  0.88898982968E+00  0.88000000000E+00 0.  1.
        -11    1    4    4    0    0  0.35675490027E-02 -0.46860972788E-01 -0.63223981278E-01  0.78779509431E-01  0.51100000000E-03 0. -1.
         11    1    4    4    0    0 -0.67895260209E-02 -0.40330853834E-01 -0.32218209738E-01  0.52066780141E-01  0.51100000000E-03 0.  1.
</event>
<event>
 8    1  0.1177602E+005  0.1043930E+01  0.7957747E-01            NaN
         13   -1    0    0    0    0  0.00000000000E+00  0.00000000000E+00  0.74505805969E-08  0.10566000000E+00  0.10566000000E+00 0.  1.
     999900   -1    0    0    0    0 -0.00000000000E+00 -0.00000000000E+00 -0.74505805969E-08  0.93827000000E+00  0.93827000000E+00 0. -1.
     999902    2    1    2    0    0  0.51198900314E-02 -0.16026353077E-01  0.16533035010E-01  0.10203418989E+01  0.10200692095E+01 0.  0.
     999903    2    3    3    0    0 -0.22217945834E-01  0.59274387971E-01 -0.10901114125E+00  0.12782921044E+00  0.21208204509E-01 0.  0.
         14    1    1    2    0    0 -0.51198900314E-02  0.16026353077E-01 -0.16533035010E-01  0.23588101100E-01  0.00000000000E+00 0. -1.
     999901    1    3    3    0    0  0.27337835865E-01 -0.75300741048E-01  0.12554417626E+00  0.89251268846E+00  0.88000000000E+00 0.  1.
        -11    1    4    4    0    0 -0.99061377259E-02  0.16780981121E-01 -0.17554444721E-01  0.26232661750E-01  0.51100000000E-03 0. -1.
         11    1    4    4    0    0 -0.12311808108E-01  0.42493406850E-01 -0.91456696527E-01  0.10159654869E+00  0.51100000000E-03 0.  1.
</event>
<event>
 8    1  0.1177602E+005  0.1043930E+01  0.7957747E-01            NaN
         13   -1    0    0    0    0  0.00000000000E+00  0.00000000000E+00  0.74505805969E-08  0.10566000000E+00  0.10566000000E+00 0.  1.
     999900   -1    0    0    0    0 -0.00000000000E+00 -0.00000000000E+00 -0.74505805969E-08  0.93827000000E+00  0.93827000000E+00 0.  1.
     999902    2    1    2    0    0  0.20386357479E-01 -0.14319083242E-01  0.32540881131E-02  0.10188057327E+01  0.10184958970E+01 0.  0.
     999903    2    3    3    0    0 -0.13441508173E-01 -0.66609237547E-03  0.12715549181E+00  0.12937766567E+00  0.19721649391E-01 0.  0.
         14    1    1    2    0    0 -0.20386357479E-01  0.14319083242E-01 -0.32540881131E-02  0.25124267265E-01  0.00000000000E+00 0. -1.
     999901    1    3    3    0    0  0.33827865652E-01 -0.13652990867E-01 -0.12390140370E+00  0.88942806707E+00  0.88000000000E+00 0.  1.
        -11    1    4    4    0    0 -0.11010973986E-01 -0.86288376518E-02  0.55493664859E-01  0.57232039522E-01  0.51100000000E-03 0.  1.
         11    1    4    4    0    0 -0.24305341870E-02  0.79627452763E-02  0.71661826950E-01  0.72145626143E-01  0.51100000000E-03 0. -1.
</event>
<event>
 8    1  0.1177602E+005  0.1043930E+01  0.7957747E-01            NaN
         13   -1    0    0    0    0  0.00000000000E+00  0.00000000000E+00  0.74505805969E-08  0.10566000000E+00  0.10566000000E+00 0. -1.
     999900   -1    0    0    0    0 -0.00000000000E+00 -0.00000000000E+00 -0.74505805969E-08  0.93827000000E+00  0.93827000000E+00 0. -1.
     999902    2    1    2    0    0 -0.52560699542E-02  0.43671542126E-03  0.22087690202E-01  0.10212213442E+01  0.10209688295E+01 0.  0.
     999903    2    3    3    0    0  0.85725099005E-01 -0.61889465840E-01 -0.71530087205E-01  0.12941059393E+00  0.21247349584E-01 0.  0.
         14    1    1    2    0    0  0.52560699542E-02 -0.43671542126E-03 -0.22087690202E-01  0.22708655842E-01  0.00000000000E+00 0. -1.
     999901    1    3    3    0    0 -0.90981168959E-01  0.62326181262E-01  0.93617777406E-01  0.89181075023E+00  0.88000000000E+00 0.  1.
        -11    1    4    4    0    0  0.65847847520E-01 -0.40884104361E-01 -0.42350472893E-01  0.88324813545E-01  0.51100000000E-03 0. -1.
         11    1    4    4    0    0  0.19877251484E-01 -0.21005361479E-01 -0.29179614312E-01  0.41085780385E-01  0.51100000000E-03 0.  1.
</event>
<event>
 8    1  0.1177602E+005  0.1043930E+01  0.7957747E-01            NaN
         13   -1    0    0    0    0  0.00000000000E+00  0.00000000000E+00  0.74505805969E-08  0.10566000000E+00  0.10566000000E+00 0.  1.
     999900   -1    0    0    0    0 -0.00000000000E+00 -0.00000000000E+00 -0.74505805969E-08  0.93827000000E+00  0.93827000000E+00 0.  1.
     999902    2    1    2    0    0 -0.23788734186E-01 -0.69109513485E-02  0.10070855226E-01  0.10171888847E+01  0.10168373222E+01 0.  0.
     999903    2    3    3    0    0  0.54277432906E-01 -0.50755744943E-01 -0.99585390234E-01  0.12587458293E+00  0.20123998394E-01 0.  0.
         14    1    1    2    0    0  0.23788734186E-01  0.69109513485E-02 -0.10070855226E-01  0.26741115304E-01  0.00000000000E+00 0. -1.
     999901    1    3    3    0    0 -0.78066167092E-01  0.43844793595E-01  0.10965624546E+00  0.89131430177E+00  0.88000000000E+00 0.  1.
        -11    1    4    4    0    0  0.29265718145E-01 -0.14150089531E-01 -0.45898733745E-01  0.56246441422E-01  0.51100000000E-03 0. -1.
         11    1    4    4    0    0  0.25011714761E-01 -0.36605655412E-01 -0.53686656489E-01  0.69628141505E-01  0.51100000000E-03 0.  1.
</event>
<event>
 7    1  0.1177602E+005  0.1043930E+01  0.7957747E-01            NaN
         13   -1    0    0    0    0  0.00000000000E+00  0.00000000000E+00  0.74505805969E-08  0.10566000000E+00  0.10566000000E+00 0. -1.
     999900   -1    0    0    0    0 -0.00000000000E+00 -0.00000000000E+00 -0.74505805969E-08  0.93827000000E+00  0.93827000000E+00 0. -1.
     999903    2    1    2    0    0  0.51265069959E-01  0.35750582210E-01  0.43073844398E-02  0.66114225705E-01  0.21126423112E-01 0.  0.
         14    1    1    2    0    0  0.65271053456E-01 -0.39402259061E-01 -0.46182275137E-01  0.89138381044E-01  0.00000000000E+00 0.  1.
     999901    1    1    2    0    0 -0.11653612342E+00  0.36516768506E-02  0.41874890698E-01  0.88867739325E+00  0.88000000000E+00 0. -1.
        -11    1    3    3    0    0  0.11639002927E-01 -0.51688730926E-03 -0.26120816448E-02  0.11950634006E-01  0.51100000000E-03 0. -1.
         11    1    3    3    0    0  0.39626067032E-01  0.36267469520E-01  0.69194660846E-02  0.54163591698E-01  0.51100000000E-03 0.  1.
</event>
<event>
 8    1  0.1177602E+005  0.1043930E+01  0.7957747E-01            NaN
         13   -1    0    0    0    0  0.00000000000E+00  0.00000000000E+00  0.74505805969E-08  0.10566000000E+00  0.10566000000E+00 0.  1.
     999900   -1    0    0    0    0 -0.00000000000E+00 -0.00000000000E+00 -0.74505805969E-08  0.93827000000E+00  0.93827000000E+00 0.  1.
     999902    2    1    2    0    0  0.18439469559E-01 -0.45606416200E-02  0.14192892680E-01  0.10202181529E+01  0.10199425611E+01 0.  0.
     999903    2    3    3    0    0  0.11705233670E+00 -0.49272162012E-01 -0.31784862510E-01  0.13239070820E+00  0.19698392229E-01 0.  0.
         14    1    1    2    0    0 -0.18439469559E-01  0.45606416200E-02 -0.14192892680E-01  0.23711847086E-01  0.00000000000E+00 0. -1.
     999901    1    3    3    0    0 -0.98612867137E-01  0.44711520392E-01  0.45977755190E-01  0.88782744472E+00  0.88000000000E+00 0.  1.
        -11    1    4    4    0    0  0.38996701546E-01 -0.23766563524E-01 -0.18161202235E-01  0.49149594717E-01  0.51100000000E-03 0. -1.
         11    1    4    4    0    0  0.78055635150E-01 -0.25505598488E-01 -0.13623660276E-01  0.83241113479E-01  0.51100000000E-03 0.  1.
</event>
<event>
 8    1  0.1177602E+005  0.1043930E+01  0.7957747E-01            NaN
         13   -1    0    0    0    0  0.00000000000E+00  0.00000000000E+00  0.74505805969E-08  0.10566000000E+00  0.10566000000E+00 0. -1.
     999900   -1    0    0    0    0 -0.00000000000E+00 -0.00000000000E+00 -0.74505805969E-08  0.93827000000E+00  0.93827000000E+00 0. -1.
     999902    2    1    2    0    0 -0.44831707195E-02  0.23159208328E-01  0.36199660968E-02  0.10200647134E+01  0.10197855008E+01 0.  0.
     999903    2    3    3    0    0  0.55689659190E-01 -0.10428756576E+00 -0.43938329494E-01  0.12758208546E+00  0.19219188812E-01 0.  0.
         14    1    1    2    0    0  0.44831707195E-02 -0.23159208328E-01 -0.36199660968E-02  0.23865286603E-01  0.00000000000E+00 0. -1.
     999901    1    3    3    0    0 -0.60172829910E-01  0.12744677409E+00  0.47558295590E-01  0.89248262793E+00  0.88000000000E+00 0. -1.
        -11    1    4    4    0    0  0.31580083520E-01 -0.65718540651E-01 -0.17557616208E-01  0.74998395105E-01  0.51100000000E-03 0. -1.
         11    1    4    4    0    0  0.24109575670E-01 -0.38569025113E-01 -0.26380713285E-01  0.52583690357E-01  0.51100000000E-03 0.  1.
</event>
<event>
 8    1  0.1177602E+005  0.1043930E+01  0.7957747E-01            NaN
         13   -1    0    0    0    0  0.00000000000E+00  0.00000000000E+00  0.74505805969E-08  0.10566000000E+00  0.10566000000E+00 0. -1.
     999900   -1    0    0    0    0 -0.00000000000E+00 -0.00000000000E+00 -0.74505805969E-08  0.93827000000E+00  0.93827000000E+00 0.  1.
     999902    2    1    2    0    0  0.63241321272E-02  0.20993410717E-01  0.86674920749E-02  0.10203536695E+01  0.10200812553E+01 0.  0.
     999903    2    3    3    0    0  0.82963750492E-01  0.39923814330E-01  0.93596242768E-01  0.13274740320E+00  0.19614320048E-01 0.  0.
         14    1    1    2    0    0 -0.63241321272E-02 -0.20993410717E-01 -0.86674920749E-02  0.23576330494E-01  0.00000000000E+00 0.  1.
     999901    1    3    3    0    0 -0.76639618364E-01 -0.18930403613E-01 -0.84928750693E-01  0.88760626630E+00  0.88000000000E+00 0.  1.
        -11    1    4    4    0    0  0.40333503182E-01  0.18656516426E-01  0.31471676515E-01  0.54457181599E-01  0.51100000000E-03 0. -1.
         11    1    4    4    0    0  0.42630247309E-01  0.21267297904E-01  0.62124566253E-01  0.78290221605E-01  0.51100000000E-03 0.  1.
</event>
<event>
 8    1  0.1177602E+005  0.1043930E+01  0.7957747E-01            NaN
         13   -1    0    0    0    0  0.00000000000E+00  0.00000000000E+00  0.74505805969E-08  0.10566000000E+00  0.10566000000E+00 0. -1.
     999900   -1    0    0    0    0 -0.00000000000E+00 -0.00000000000E+00 -0.74505805969E-08  0.93827000000E+00  0.93827000000E+00 0.  1.
     999902    2    1    2    0    0 -0.10105991553E-01 -0.14294698676E-02 -0.19986655512E-01  0.10214880561E+01  0.10212415032E+01 0.  0.
     999903    2    3    3    0    0  0.57112188697E-01  0.45344942638E-01 -0.10953330751E+00  0.13316112733E+00  0.20405255596E-01 0.  0.
         14    1    1    2    0    0  0.10105991553E-01  0.14294698676E-02  0.19986655512E-01  0.22441943943E-01  0.00000000000E+00 0. -1.
     999901    1    3    3    0    0 -0.67218180250E-01 -0.46774412505E-01  0.89546652001E-01  0.88832692873E+00  0.88000000000E+00 0. -1.
        -11    1    4    4    0    0  0.32721244884E-01  0.15433928621E-01 -0.63519790963E-01  0.73102058688E-01  0.51100000000E-03 0.  1.
         11    1    4    4    0    0  0.24390943813E-01  0.29911014017E-01 -0.46013516549E-01  0.60059068640E-01  0.51100000000E-03 0. -1.
</event>
<event>
 8    1  0.1177602E+005  0.1043930E+01  0.7957747E-01            NaN
         13   -1    0    0    0    0  0.00000000000E+00  0.00000000000E+00  0.74505805969E-08  0.10566000000E+00  0.10566000000E+00 0. -1.
     999900   -1    0    0    0    0 -0.00000000000E+00 -0.00000000000E+00 -0.74505805969E-08  0.93827000000E+00  0.93827000000E+00 0.  1.
     999902    2    1    2    0    0 -0.79605618637E-02  0.19018632915E-01 -0.13750488977E-01  0.10191478514E+01  0.10188464988E+01 0.  0.
     999903    2    3    3    0    0 -0.64748860134E-01  0.72996524237E-01 -0.87582528756E-01  0.13258725352E+00  0.19691953038E-01 0.  0.
         14    1    1    2    0    0  0.79605618637E-02 -0.19018632915E-01  0.13750488977E-01  0.24782148621E-01  0.00000000000E+00 0. -1.
     999901    1    3    3    0    0  0.56788298270E-01 -0.53977891322E-01  0.73832039779E-01  0.88656059786E+00  0.88000000000E+00 0. -1.
        -11    1    4    4    0    0 -0.21346066204E-01  0.35211681098E-01 -0.28300619421E-01  0.49967021212E-01  0.51100000000E-03 0. -1.
         11    1    4    4    0    0 -0.43402793930E-01  0.37784843138E-01 -0.59281909335E-01  0.82620232312E-01  0.51100000000E-03 0.  1.
</event>
<event>
 8    1  0.1177602E+005  0.1043930E+01  0.7957747E-01            NaN
         13   -1    0    0    0    0  0.00000000000E+00  0.00000000000E+00  0.74505805969E-08  0.10566000000E+00  0.10566000000E+00 0.  1.
     999900   -1    0    0    0    0 -0.00000000000E+00 -0.00000000000E+00 -0.74505805969E-08  0.93827000000E+00  0.93827000000E+00 0. -1.
     999902    2    1    2    0    0  0.11222268650E-01 -0.93003115989E-02 -0.18356850243E-01  0.10204905235E+01  0.10202212992E+01 0.  0.
     999903    2    3    3    0    0 -0.11800596810E+00  0.31952030321E-02 -0.51393068049E-01  0.13035150806E+00  0.20362965921E-01 0.  0.
         14    1    1    2    0    0 -0.11222268650E-01  0.93003115989E-02  0.18356850243E-01  0.23439476537E-01  0.00000000000E+00 0.  1.
     999901    1    3    3    0    0  0.12922823675E+00 -0.12495514631E-01  0.33036217806E-01  0.89013901540E+00  0.88000000000E+00 0.  1.
        -11    1    4    4    0    0 -0.36688000440E-01 -0.92587547749E-03 -0.26284123363E-01  0.45144023787E-01  0.51100000000E-03 0.  1.
         11    1    4    4    0    0 -0.81317967655E-01  0.41210785096E-02 -0.25108944686E-01  0.85207484272E-01  0.51100000000E-03 0. -1.
</event>
<event>
 8    1  0.1177602E+005  0.1043930E+01  0.7957747E-01            NaN
         13   -1    0    0    0    0  0.00000000000E+00  0.00000000000E+00  0.74505805969E-08  0.10566000000E+00  0.10566000000E+00 0.  1.
     999900   -1    0    0    0    0 -0.00000000000E+00 -0.00000000000E+00 -0.74505805969E-08  0.93827000000E+00  0.93827000000E+00 0.  1.
     999902    2    1    2    0    0  0.21878331164E-01  0.72463079578E-02 -0.59906393057E-02  0.10201170180E+01  0.10198390423E+01 0.  0.
     999903    2    3    3    0    0  0.66214523973E-01 -0.10912669519E+00 -0.22518478357E-01  0.13119545602E+00  0.20301897037E-01 0.  0.
         14    1    1    2    0    0 -0.21878331164E-01 -0.72463079578E-02  0.59906393057E-02  0.23812982023E-01  0.00000000000E+00 0.  1.
     999901    1    3    3    0    0 -0.44336192810E-01  0.11637300315E+00  0.16527839051E-01  0.88892156196E+00  0.88000000000E+00 0. -1.
        -11    1    4    4    0    0  0.36687679300E-01 -0.59380014714E-01 -0.22518046804E-01  0.73343680796E-01  0.51100000000E-03 0. -1.
         11    1    4    4    0    0  0.29526844673E-01 -0.49746680479E-01 -0.43155271875E-06  0.57851775221E-01  0.51100000000E-03 0.  1.
</event>
<event>
 8    1  0.1177602E+005  0.1043930E+01  0.7957747E-01            NaN
         13   -1    0    0    0    0  0.00000000000E+00  0.00000000000E+00  0.74505805969E-08  0.10566000000E+00  0.10566000000E+00 0.  1.
     999900   -1    0    0    0    0 -0.00000000000E+00 -0.00000000000E+00 -0.74505805969E-08  0.93827000000E+00  0.93827000000E+00 0.  1.
     999902    2    1    2    0    0 -0.22451582934E-01 -0.59280167895E-02 -0.50794526596E-02  0.10201599390E+01  0.10198829763E+01 0.  0.
     999903    2    3    3    0    0  0.27650671330E-01  0.93996036934E-01  0.81497537637E-01  0.12887399858E+00  0.19153179484E-01 0.  0.
         14    1    1    2    0    0  0.22451582934E-01  0.59280167895E-02  0.50794526596E-02  0.23770060972E-01  0.00000000000E+00 0.  1.
     999901    1    3    3    0    0 -0.50102254264E-01 -0.99924053724E-01 -0.86576990296E-01  0.89128594045E+00  0.88000000000E+00 0. -1.
        -11    1    4    4    0    0  0.95047864871E-02  0.34166512008E-01  0.18047429993E-01  0.39795255487E-01  0.51100000000E-03 0. -1.
         11    1    4    4    0    0  0.18145884843E-01  0.59829524926E-01  0.63450107644E-01  0.89078743091E-01  0.51100000000E-03 0.  1.
</event>
<event>
 8    1  0.1177602E+005  0.1043930E+01  0.7957747E-01            NaN
         13   -1    0    0    0    0  0.00000000000E+00  0.00000000000E+00  0.74505805969E-08  0.10566000000E+00  0.10566000000E+00 0. -1.
     999900   -1    0    0    0    0 -0.00000000000E+00 -0.00000000000E+00 -0.74505805969E-08  0.93827000000E+00  0.93827000000E+00 0. -1.
     999902    2    1    2    0    0  0.23446534169E-01  0.25560792455E-02  0.99815727625E-02  0.10183193518E+01  0.10179972480E+01 0.  0.
     999903    2    3    3    0    0  0.19332346438E-01  0.11779125177E+00  0.47384910997E-01  0.13000911252E+00  0.20211900809E-01 0.  0.
         14    1    1    2    0    0 -0.23446534169E-01 -0.25560792455E-02 -0.99815727625E-02  0.25610648185E-01  0.00000000000E+00 0.  1.
     999901    1    3    3    0    0  0.41141877305E-02 -0.11523517253E+00 -0.37403338234E-01  0.88831023930E+00  0.88000000000E+00 0. -1.
        -11    1    4    4    0    0  0.13191933670E-01  0.94729401358E-01  0.45910076010E-01  0.10609280275E+00  0.51100000000E-03 0. -1.
         11    1    4    4    0    0  0.61404127680E-02  0.23061850416E-01  0.14748349862E-02  0.23916309766E-01  0.51100000000E-03 0.  1.
</event>
<event>
 8    1  0.1177602E+005  0.1043930E+01  0.7957747E-01            NaN
         13   -1    0    0    0    0  0.00000000000E+00  0.00000000000E+00  0.74505805969E-08  0.10566000000E+00  0.10566000000E+00 0. -1.
     999900   -1    0    0    0    0 -0.00000000000E+00 -0.00000000000E+00 -0.74505805969E-08  0.93827000000E+00  0.93827000000E+00 0. -1.
     999902    2    1    2    0    0 -0.16521427275E-01 -0.60235913933E-02  0.14251294288E-01  0.10212950580E+01  0.10210441983E+01 0.  0.
     999903    2    3    3    0    0  0.87606456376E-01 -0.78597001891E-01 -0.50946700475E-01  0.12980176320E+00  0.20013783659E-01 0.  0.
         14    1    1    2    0    0  0.16521427275E-01  0.60235913933E-02 -0.14251294288E-01  0.22634942045E-01  0.00000000000E+00 0. -1.
     999901    1    3    3    0    0 -0.10412788365E+00  0.72573410498E-01  0.65197994764E-01  0.89149329475E+00  0.88000000000E+00 0. -1.
        -11    1    4    4    0    0  0.19935085615E-01 -0.16672984645E-01 -0.20653652102E-01  0.33199857253E-01  0.51100000000E-03 0. -1.
         11    1    4    4    0    0  0.67671370761E-01 -0.61924017247E-01 -0.30293048374E-01  0.96601905951E-01  0.51100000000E-03 0.  1.
</event>
<event>
 7    1  0.1177602E+005  0.1043930E+01  0.7957747E-01            NaN
         13   -1    0    0    0    0  0.00000000000E+00  0.00000000000E+00  0.74505805969E-08  0.10566000000E+00  0.10566000000E+00 0.  1.
     999900   -1    0    0    0    0 -0.00000000000E+00 -0.00000000000E+00 -0.74505805969E-08  0.93827000000E+00  0.93827000000E+00 0. -1.
     999903    2    1    2    0    0  0.52387474720E-01  0.20817407759E-01  0.51943403023E-01  0.79401181823E-01  0.20703105660E-01 0.  0.
         14    1    1    2    0    0 -0.26885740174E-02  0.69209516257E-01  0.28500344014E-01  0.74896296168E-01  0.00000000000E+00 0.  1.
     999901    1    1    2    0    0 -0.49698900703E-01 -0.90026924016E-01 -0.80443747036E-01  0.88963252201E+00  0.88000000000E+00 0. -1.
        -11    1    3    3    0    0  0.10000516387E-01 -0.35075089366E-02  0.53749706930E-02  0.11893879850E-01  0.51100000000E-03 0. -1.
         11    1    3    3    0    0  0.42386958333E-01  0.24324916696E-01  0.46568432329E-01  0.67507301973E-01  0.51100000000E-03 0.  1.
</event>
<event>
 8    1  0.1177602E+005  0.1043930E+01  0.7957747E-01            NaN
         13   -1    0    0    0    0  0.00000000000E+00  0.00000000000E+00  0.74505805969E-08  0.10566000000E+00  0.10566000000E+00 0. -1.
     999900   -1    0    0    0    0 -0.00000000000E+00 -0.00000000000E+00 -0.74505805969E-08  0.93827000000E+00  0.93827000000E+00 0. -1.
     999902    2    1    2    0    0 -0.51419702280E-02  0.20924548524E-01 -0.98704590874E-02  0.10202297352E+01  0.10199544157E+01 0.  0.
     999903    2    3    3    0    0  0.33082789693E-01 -0.13304277963E-01  0.12237990252E+00  0.12886959307E+00  0.18948791299E-01 0.  0.
         14    1    1    2    0    0  0.51419702280E-02 -0.20924548524E-01  0.98704590874E-02  0.23700264795E-01  0.00000000000E+00 0.  1.
     999901    1    3    3    0    0 -0.38224759921E-01  0.34228826486E-01 -0.13225036161E+00  0.89136014213E+00  0.88000000000E+00 0. -1.
        -11    1    4    4    0    0  0.28490441267E-01 -0.25131462802E-02  0.84275562137E-01  0.88998048531E-01  0.51100000000E-03 0. -1.
         11    1    4    4    0    0  0.45923484265E-02 -0.10791131682E-01  0.38104340386E-01  0.39871544543E-01  0.51100000000E-03 0.  1.
</event>
<event>
 8    1  0.1177602E+005  0.1043930E+01  0.7957747E-01            NaN
         13   -1    0    0    0    0  0.00000000000E+00  0.00000000000E+00  0.74505805969E-08  0.10566000000E+00  0.10566000000E+00 0.  1.
     999900   -1    0    0    0    0 -0.00000000000E+00 -0.00000000000E+00 -0.74505805969E-08  0.93827000000E+00  0.93827000000E+00 0. -1.
     999902    2    1    2    0    0 -0.28134059712E-02  0.19799139230E-01 -0.10886518591E-01  0.10211607784E+01  0.10209068997E+01 0.  0.
     999903    2    3    3    0    0 -0.10547632413E+00 -0.48500559072E-01  0.55948328045E-01  0.13005392714E+00  0.17499982006E-01 0.  0.
         14    1    1    2    0    0  0.28134059712E-02 -0.19799139230E-01  0.10886518591E-01  0.22769221648E-01  0.00000000000E+00 0. -1.
     999901    1    3    3    0    0  0.10266291816E+00  0.68299698302E-01 -0.66834846636E-01  0.89110685121E+00  0.88000000000E+00 0. -1.
        -11    1    4    4    0    0 -0.12507692290E-01  0.48924667304E-04  0.62571013897E-02  0.13994899029E-01  0.51100000000E-03 0.  1.
         11    1    4    4    0    0 -0.92968631844E-01 -0.48549483739E-01  0.49691226655E-01  0.11605902811E+00  0.51100000000E-03 0. -1.
</event>
<event>
 8    1  0.1177602E+005  0.1043930E+01  0.7957747E-01            NaN
         13   -1    0    0    0    0  0.00000000000E+00  0.00000000000E+00  0.74505805969E-08  0.10566000000E+00  0.10566000000E+00 0.  1.
     999900   -1    0    0    0    0 -0.00000000000E+00 -0.00000000000E+00 -0.74505805969E-08  0.93827000000E+00  0.93827000000E+00 0. -1.
     999902    2    1    2    0    0  0.22932776166E-01 -0.46372244300E-02 -0.38698569217E-02  0.10202151973E+01  0.10199395360E+01 0.  0.
     999903    2    3    3    0    0  0.97733847645E-01  0.86966519748E-01 -0.54623588871E-02  0.13230248636E+00  0.18948086961E-01 0.  0.
         14    1    1    2    0    0 -0.22932776166E-01  0.46372244300E-02  0.38698569217E-02  0.23714802670E-01  0.00000000000E+00 0. -1.
     999901    1    3    3    0    0 -0.74801071479E-01 -0.91603744178E-01  0.15925019654E-02  0.88791271097E+00  0.88000000000E+00 0.  1.
        -11    1    4    4    0    0  0.70328574129E-01  0.51633956107E-01  0.23254480900E-04  0.87249271768E-01  0.51100000000E-03 0.  1.
         11    1    4    4    0    0  0.27405273517E-01  0.35332563641E-01 -0.54856133680E-02  0.45053214591E-01  0.51100000000E-03 0. -1.
</event>
<event>
 8    1  0.1177602E+005  0.1043930E+01  0.7957747E-01            NaN
         13   -1    0    0    0    0  0.00000000000E+00  0.00000000000E+00  0.74505805969E-08  0.10566000000E+00  0.10566000000E+00 0. -1.
     999900   -1    0    0    0    0 -0.00000000000E+00 -0.00000000000E+00 -0.74505805969E-08  0.93827000000E+00  0.93827000000E+00 0. -1.
     999902    2    1    2    0    0  0.36049100004E-02 -0.16003657333E-01  0.17829966211E-01  0.10197015019E+01  0.10194136221E+01 0.  0.
     999903    2    3    3    0    0 -0.31642762849E-01  0.12190273512E+00  0.13968063355E-01  0.12825577401E+00  0.19821591784E-01 0.  0.
         14    1    1    2    0    0 -0.36049100004E-02  0.16003657333E-01 -0.17829966211E-01  0.24228498080E-01  0.00000000000E+00 0.  1.
     999901    1    3    3    0    0  0.35247672849E-01 -0.13790639246E+00  0.38619028556E-02  0.89144572791E+00  0.88000000000E+00 0. -1.
        -11    1    4    4    0    0 -0.32974583656E-01  0.10945565243E+00  0.86419110078E-02  0.11464208111E+00  0.51100000000E-03 0. -1.
         11    1    4    4    0    0  0.13318208074E-02  0.12447082696E-01  0.53261523476E-02  0.13613692892E-01  0.51100000000E-03 0.  1.
</event>
<event>
 8    1  0.1177602E+005  0.1043930E+01  0.7957747E-01            NaN
         13   -1    0    0    0    0  0.00000000000E+00  0.00000000000E+00  0.74505805969E-08  0.10566000000E+00  0.10566000000E+00 0. -1.
     999900   -1    0    0    0    0 -0.00000000000E+00 -0.00000000000E+00 -0.74505805969E-08  0.93827000000E+00  0.93827000000E+00 0. -1.
     999902    2    1    2    0    0 -0.41094704787E-02  0.20787238886E-01 -0.11435910757E-01  0.10198514389E+01  0.10195671535E+01 0.  0.
     999903    2    3    3    0    0  0.76404334803E-01 -0.67912164597E-01  0.73862986797E-01  0.12764857022E+00  0.19716292346E-01 0.  0.
         14    1    1    2    0    0  0.41094704787E-02 -0.20787238886E-01  0.11435910757E-01  0.24078561065E-01  0.00000000000E+00 0. -1.
     999901    1    3    3    0    0 -0.80513805282E-01  0.88699403483E-01 -0.85298897554E-01  0.89220286871E+00  0.88000000000E+00 0. -1.
        -11    1    4    4    0    0  0.20660410991E-01 -0.21990835604E-01  0.32783626085E-01  0.44558688189E-01  0.51100000000E-03 0. -1.
         11    1    4    4    0    0  0.55743923812E-01 -0.45921328993E-01  0.41079360712E-01  0.83089882031E-01  0.51100000000E-03 0.  1.
</event>
<event>
 8    1  0.1177602E+005  0.1043930E+01  0.7957747E-01            NaN
         13   -1    0    0    0    0  0.00000000000E+00  0.00000000000E+00  0.74505805969E-08  0.10566000000E+00  0.10566000000E+00 0.  1.
     999900   -1    0    0    0    0 -0.00000000000E+00 -0.00000000000E+00 -0.74505805969E-08  0.93827000000E+00  0.93827000000E+00 0.  1.
     999902    2    1    2    0    0  0.49357913562E-02 -0.13268963222E-01 -0.17094673256E-01  0.10217341609E+01  0.10214930446E+01 0.  0.
     999903    2    3    3    0    0  0.18367026353E-01 -0.45598374796E-01 -0.12364275065E+00  0.13461630977E+00  0.20431877746E-01 0.  0.
         14    1    1    2    0    0 -0.49357913562E-02  0.13268963222E-01  0.17094673256E-01  0.22195839138E-01  0.00000000000E+00 0.  1.
     999901    1    3    3    0    0 -0.13431234997E-01  0.32329411574E-01  0.10654807739E+00  0.88711785109E+00  0.88000000000E+00 0. -1.
        -11    1    4    4    0    0  0.92790096470E-03 -0.19511769989E-02 -0.27587890786E-01  0.27677083136E-01  0.51100000000E-03 0.  1.
         11    1    4    4    0    0  0.17439125389E-01 -0.43647197797E-01 -0.96054859860E-01  0.10693922664E+00  0.51100000000E-03 0. -1.
</event>
<event>
 8    1  0.1177602E+005  0.1043930E+01  0.7957747E-01            NaN
         13   -1    0    0    0    0  0.00000000000E+00  0.00000000000E+00  0.74505805969E-08  0.10566000000E+00  0.10566000000E+00 0. -1.
     999900   -1    0    0    0    0 -0.00000000000E+00 -0.00000000000E+00 -0.74505805969E-08  0.93827000000E+00  0.93827000000E+00 0. -1.
     999902    2    1    2    0    0  0.14628321887E-01  0.11052070646E-01 -0.15194002526E-01  0.10201183688E+01  0.10198404251E+01 0.  0.
     999903    2    3    3    0    0  0.51807911028E-02 -0.58667654785E-01 -0.11587166154E+00  0.13158807278E+00  0.20504746671E-01 0.  0.
         14    1    1    2    0    0 -0.14628321887E-01 -0.11052070646E-01  0.15194002526E-01  0.23811631182E-01  0.00000000000E+00 0. -1.
     999901    1    3    3    0    0  0.94475307845E-02  0.69719725431E-01  0.10067765901E+00  0.88853029604E+00  0.88000000000E+00 0.  1.
        -11    1    4    4    0    0 -0.24369872156E-02 -0.52124870045E-01 -0.10005576936E+00  0.11284661752E+00  0.51100000000E-03 0. -1.
         11    1    4    4    0    0  0.76177783184E-02 -0.65427847404E-02 -0.15815892180E-01  0.18741455256E-01  0.51100000000E-03 0.  1.
</event>
<event>
 8    1  0.1177602E+005  0.1043930E+01  0.7957747E-01            NaN
         13   -1    0    0    0    0  0.00000000000E+00  0.00000000000E+00  0.74505805969E-08  0.10566000000E+00  0.10566000000E+00 0. -1.
     999900   -1    0    0    0    0 -0.00000000000E+00 -0.00000000000E+00 -0.74505805969E-08  0.93827000000E+00  0.93827000000E+00 0. -1.
     999902    2    1    2    0    0 -0.15576532949E-01 -0.53174409812E-02  0.17425441486E-01  0.10199602364E+01  0.10196785445E+01 0.  0.
     999903    2    3    3    0    0  0.61534184260E-01  0.10201113854E+00  0.47163007935E-01  0.12959524967E+00  0.19438395002E-01 0.  0.
         14    1    1    2    0    0  0.15576532949E-01  0.53174409812E-02 -0.17425441486E-01  0.23969763627E-01  0.00000000000E+00 0.  1.
     999901    1    3    3    0    0 -0.77110717210E-01 -0.10732857952E+00 -0.29737566449E-01  0.89036498670E+00  0.88000000000E+00 0. -1.
        -11    1    4    4    0    0  0.52041899398E-01  0.88619385398E-01  0.33089343272E-01  0.10796721966E+00  0.51100000000E-03 0.  1.
         11    1    4    4    0    0  0.94922848624E-02  0.13391753143E-01  0.14073664663E-01  0.21628030012E-01  0.51100000000E-03 0. -1.
</event>
<event>
 8    1  0.1177602E+005  0.1043930E+01  0.7957747E-01            NaN
         13   -1    0    0    0    0  0.00000000000E+00  0.00000000000E+00  0.74505805969E-08  0.10566000000E+00  0.10566000000E+00 0. -1.
     999900   -1    0    0    0    0 -0.00000000000E+00 -0.00000000000E+00 -0.74505805969E-08  0.93827000000E+00  0.93827000000E+00 0. -1.
     999902    2    1    2    0    0 -0.13950868803E-01  0.18222415059E-01 -0.83969928868E-02  0.10194924747E+01  0.10191995454E+01 0.  0.
     999903    2    3    3    0    0  0.86923463880E-02 -0.12532130781E+00 -0.90551398674E-02  0.12757434581E+00  0.20303474453E-01 0.  0.
         14    1    1    2    0    0  0.13950868803E-01 -0.18222415059E-01  0.83969928868E-02  0.24437525253E-01  0.00000000000E+00 0. -1.
     999901    1    3    3    0    0 -0.22643215191E-01  0.14354372287E+00  0.65814698054E-03  0.89191812894E+00  0.88000000000E+00 0. -1.
        -11    1    4    4    0    0  0.13777745596E-01 -0.10814044058E+00 -0.10876789117E-01  0.10955704827E+00  0.51100000000E-03 0. -1.
         11    1    4    4    0    0 -0.50853992084E-02 -0.17180867227E-01  0.18216492497E-02  0.18017297543E-01  0.51100000000E-03 0.  1.
</event>
<event>
 8    1  0.1177602E+005  0.1043930E+01  0.7957747E-01            NaN
         13   -1    0    0    0    0  0.00000000000E+00  0.00000000000E+00  0.74505805969E-08  0.10566000000E+00  0.10566000000E+00 0. -1.
     999900   -1    0    0    0    0 -0.00000000000E+00 -0.00000000000E+00 -0.74505805969E-08  0.93827000000E+00  0.93827000000E+00 0. -1.
     999902    2    1    2    0    0  0.96160026953E-02  0.27450237674E-02  0.21272491982E-01  0.10204242224E+01  0.10201534552E+01 0.  0.
     999903    2    3    3    0    0  0.12344548297E-01  0.75101416929E-01 -0.10220932219E+00  0.12885781941E+00  0.19104485916E-01 0.  0.
         14    1    1    2    0    0 -0.96160026953E-02 -0.27450237674E-02 -0.21272491982E-01  0.23505777554E-01  0.00000000000E+00 0.  1.
     999901    1    3    3    0    0 -0.27285456016E-02 -0.72356393162E-01  0.12348181417E+00  0.89156640304E+00  0.88000000000E+00 0.  1.
        -11    1    4    4    0    0  0.75836269727E-02  0.30789655455E-01 -0.57865220563E-01  0.65986052715E-01  0.51100000000E-03 0. -1.
         11    1    4    4    0    0  0.47609213242E-02  0.44311761474E-01 -0.44344101630E-01  0.62871766694E-01  0.51100000000E-03 0.  1.
</event>
<event>
 8    1  0.1177602E+005  0.1043930E+01  0.7957747E-01            NaN
         13   -1    0    0    0    0  0.00000000000E+00  0.00000000000E+00  0.74505805969E-08  0.10566000000E+00  0.10566000000E+00 0.  1.
     999900   -1    0    0    0    0 -0.00000000000E+00 -0.00000000000E+00 -0.74505805969E-08  0.93827000000E+00  0.93827000000E+00 0.  1.
     999902    2    1    2    0    0  0.54908146905E-02  0.11200912645E-01 -0.22216396962E-01  0.10184510325E+01  0.10181322742E+01 0.  0.
     999903    2    3    3    0    0  0.91830959339E-01 -0.63623692727E-01  0.58163080222E-01  0.12743240056E+00  0.19369394455E-01 0.  0.
         14    1    1    2    0    0 -0.54908146905E-02 -0.11200912645E-01  0.22216396962E-01  0.25478967483E-01  0.00000000000E+00 0.  1.
     999901    1    3    3    0    0 -0.86340144648E-01  0.74824605372E-01 -0.80379477184E-01  0.89101863196E+00  0.88000000000E+00 0. -1.
        -11    1    4    4    0    0  0.21229069101E-01 -0.14631935820E-01  0.46717547573E-02  0.26207886871E-01  0.51100000000E-03 0. -1.
         11    1    4    4    0    0  0.70601890237E-01 -0.48991756907E-01  0.53491325465E-01  0.10122451369E+00  0.51100000000E-03 0.  1.
</event>
<event>
 8    1  0.1177602E+005  0.1043930E+01  0.7957747E-01            NaN
         13   -1    0    0    0    0  0.00000000000E+00  0.00000000000E+00  0.74505805969E-08  0.10566000000E+00  0.10566000000E+00 0. -1.
     999900   -1    0    0    0    0 -0.00000000000E+00 -0.00000000000E+00 -0.74505805969E-08  0.93827000000E+00  0.93827000000E+00 0.  1.
     999902    2    1    2    0    0  0.16448084946E-01 -0.15526866000E-01  0.63583374390E-02  0.10204342233E+01  0.10201636891E+01 0.  0.
     999903    2    3    3    0    0 -0.44268031506E-01  0.11159162516E+00  0.41946102531E-01  0.12851940306E+00  0.18585263676E-01 0.  0.
         14    1    1    2    0    0 -0.16448084946E-01  0.15526866000E-01 -0.63583374390E-02  0.23495776667E-01  0.00000000000E+00 0.  1.
     999901    1    3    3    0    0  0.60716116452E-01 -0.12711849116E+00 -0.35587765092E-01  0.89191482027E+00  0.88000000000E+00 0. -1.
        -11    1    4    4    0    0 -0.15061887102E-01  0.20431604688E-01  0.47947639906E-02  0.25837217264E-01  0.51100000000E-03 0.  1.
         11    1    4    4    0    0 -0.29206144404E-01  0.91160020476E-01  0.37151338541E-01  0.10268218580E+00  0.51100000000E-03 0. -1.
</event>
<event>
 8    1  0.1177602E+005  0.1043930E+01  0.7957747E-01            NaN
         13   -1    0    0    0    0  0.00000000000E+00  0.00000000000E+00  0.74505805969E-08  0.10566000000E+00  0.10566000000E+00 0. -1.
     999900   -1    0    0    0    0 -0.00000000000E+00 -0.00000000000E+00 -0.74505805969E-08  0.93827000000E+00  0.93827000000E+00 0.  1.
     999902    2    1    2    0    0  0.99985877056E-02  0.16009129164E-01  0.14681984774E-01  0.10200171447E+01  0.10197368047E+01 0.  0.
     999903    2    3    3    0    0  0.74050445513E-01 -0.99714208376E-01  0.32339536996E-01  0.12995741607E+00  0.20413047439E-01 0.  0.
         14    1    1    2    0    0 -0.99985877056E-02 -0.16009129164E-01 -0.14681984774E-01  0.23912855321E-01  0.00000000000E+00 0.  1.
     999901    1    3    3    0    0 -0.64051857807E-01  0.11572333754E+00 -0.17657552222E-01  0.89005972861E+00  0.88000000000E+00 0. -1.
        -11    1    4    4    0    0  0.35167109017E-01 -0.49821253898E-01  0.54686089840E-02  0.61229483926E-01  0.51100000000E-03 0. -1.
         11    1    4    4    0    0  0.38883336496E-01 -0.49892954478E-01  0.26870928012E-01  0.68727932144E-01  0.51100000000E-03 0.  1.
</event>
<event>
 8    1  0.1177602E+005  0.1043930E+01  0.7957747E-01            NaN
         13   -1    0    0    0    0  0.00000000000E+00  0.00000000000E+00  0.74505805969E-08  0.10566000000E+00  0.10566000000E+00 0.  1.
     999900   -1    0    0    0    0 -0.00000000000E+00 -0.00000000000E+00 -0.74505805969E-08  0.93827000000E+00  0.93827000000E+00 0.  1.
     999902    2    1    2    0    0  0.14574313871E-01 -0.44490845878E-02  0.18040996138E-01  0.10203146973E+01  0.10200413713E+01 0.  0.
     999903    2    3    3    0    0  0.51589791785E-01 -0.51963583609E-01  0.10978951659E+00  0.13349703612E+00  0.20149443235E-01 0.  0.
         14    1    1    2    0    0 -0.14574313871E-01  0.44490845878E-02 -0.18040996138E-01  0.23615302669E-01  0.00000000000E+00 0. -1.
     999901    1    3    3    0    0 -0.37015477914E-01  0.47514499021E-01 -0.91748520454E-01  0.88681766121E+00  0.88000000000E+00 0.  1.
        -11    1    4    4    0    0  0.23588077524E-01 -0.14711284723E-01  0.54518216265E-01  0.61198989577E-01  0.51100000000E-03 0. -1.
         11    1    4    4    0    0  0.28001714261E-01 -0.37252298886E-01  0.55271300327E-01  0.72298046548E-01  0.51100000000E-03 0.  1.
</event>
<event>
 8    1  0.1177602E+005  0.1043930E+01  0.7957747E-01            NaN
         13   -1    0    0    0    0  0.00000000000E+00  0.00000000000E+00  0.74505805969E-08  0.10566000000E+00  0.10566000000E+00 0. -1.
     999900   -1    0    0    0    0 -0.00000000000E+00 -0.00000000000E+00 -0.74505805969E-08  0.93827000000E+00  0.93827000000E+00 0.  1.
     999902    2    1    2    0    0 -0.17982689083E-01  0.13059054196E-01  0.73544724310E-02  0.10205205090E+01  0.10202519812E+01 0.  0.
     999903    2    3    3    0    0  0.12598882195E+00 -0.62079168628E-02 -0.13091148690E-01  0.12837868421E+00  0.19949608912E-01 0.  0.
         14    1    1    2    0    0  0.17982689083E-01 -0.13059054196E-01 -0.73544724310E-02  0.23409490978E-01  0.00000000000E+00 0. -1.
     999901    1    3    3    0    0 -0.14397151103E+00  0.19266971059E-01  0.20445621121E-01  0.89214182482E+00  0.88000000000E+00 0. -1.
        -11    1    4    4    0    0  0.72239213823E-01 -0.13395327273E-01 -0.68872177082E-02  0.73794537029E-01  0.51100000000E-03 0.  1.
         11    1    4    4    0    0  0.53749608128E-01  0.71874104100E-02 -0.62039309814E-02  0.54584147176E-01  0.51100000000E-03 0. -1.
</event>
<event>
 8    1  0.1177602E+005  0.1043930E+01  0.7957747E-01            NaN
         13   -1    0    0    0    0  0.00000000000E+00  0.00000000000E+00  0.74505805969E-08  0.10566000000E+00  0.10566000000E+00 0. -1.
     999900   -1    0    0    0    0 -0.00000000000E+00 -0.00000000000E+00 -0.74505805969E-08  0.93827000000E+00  0.93827000000E+00 0.  1.
     999902    2    1    2    0    0 -0.73399995412E-03 -0.19464038643E-01 -0.13132365374E-01  0.10204385850E+01  0.10201681525E+01 0.  0.
     999903    2    3    3    0    0  0.12430773510E-01 -0.10486974368E+00  0.76064028098E-01  0.13171847032E+00  0.20293638981E-01 0.  0.
         14    1    1    2    0    0  0.73399995412E-03  0.19464038643E-01  0.13132365374E-01  0.23491414954E-01  0.00000000000E+00 0. -1.
     999901    1    3    3    0    0 -0.13164773464E-01  0.85405705036E-01 -0.89196393472E-01  0.88872011473E+00  0.88000000000E+00 0.  1.
        -11    1    4    4    0    0  0.28198583304E-02 -0.54075589726E-01  0.50502034879E-01  0.74046185946E-01  0.51100000000E-03 0. -1.
         11    1    4    4    0    0  0.96109151797E-02 -0.50794153953E-01  0.25561993220E-01  0.57672284372E-01  0.51100000000E-03 0.  1.
</event>
<event>
 8    1  0.1177602E+005  0.1043930E+01  0.7957747E-01            NaN
         13   -1    0    0    0    0  0.00000000000E+00  0.00000000000E+00  0.74505805969E-08  0.10566000000E+00  0.10566000000E+00 0. -1.
     999900   -1    0    0    0    0 -0.00000000000E+00 -0.00000000000E+00 -0.74505805969E-08  0.93827000000E+00  0.93827000000E+00 0. -1.
     999902    2    1    2    0    0 -0.21437222679E-01  0.99738813132E-02  0.41803137012E-02  0.10199194222E+01  0.10196367588E+01 0.  0.
     999903    2    3    3    0    0 -0.94057337470E-01 -0.21847174571E-01  0.88264794747E-01  0.13236296729E+00  0.20129564042E-01 0.  0.
         14    1    1    2    0    0  0.21437222679E-01 -0.99738813132E-02 -0.41803137012E-02  0.24010577820E-01  0.00000000000E+00 0.  1.
     999901    1    3    3    0    0  0.72620114791E-01  0.31821055884E-01 -0.84084481046E-01  0.88755645489E+00  0.88000000000E+00 0. -1.
        -11    1    4    4    0    0 -0.63245306131E-01 -0.12099676515E-01  0.70496554330E-01  0.95479820972E-01  0.51100000000E-03 0.  1.
         11    1    4    4    0    0 -0.30812031339E-01 -0.97474980555E-02  0.17768240417E-01  0.36883146315E-01  0.51100000000E-03 0. -1.
</event>
<event>
 8    1  0.1177602E+005  0.1043930E+01  0.7957747E-01            NaN
         13   -1    0    0    0    0  0.00000000000E+00  0.00000000000E+00  0.74505805969E-08  0.10566000000E+00  0.10566000000E+00 0.  1.
     999900   -1    0    0    0    0 -0.00000000000E+00 -0.00000000000E+00 -0.74505805969E-08  0.93827000000E+00  0.93827000000E+00 0. -1.
     999902    2    1    2    0    0  0.11616886731E-01 -0.10174221224E-01  0.18555666216E-01  0.10197891719E+01  0.10195033965E+01 0.  0.
     999903    2    3    3    0    0  0.47803139055E-01 -0.12096153592E+00  0.11774862054E-01  0.13207905405E+00  0.19733115962E-01 0.  0.
         14    1    1    2    0    0 -0.11616886731E-01  0.10174221224E-01 -0.18555666216E-01  0.24140828146E-01  0.00000000000E+00 0. -1.
     999901    1    3    3    0    0 -0.36186252324E-01  0.11078731470E+00  0.67808041622E-02  0.88771011781E+00  0.88000000000E+00 0. -1.
        -11    1    4    4    0    0  0.16393165811E-01 -0.24336091226E-01 -0.26069042139E-02  0.29462489576E-01  0.51100000000E-03 0. -1.
         11    1    4    4    0    0  0.31409973245E-01 -0.96625444693E-01  0.14381766268E-01  0.10261656447E+00  0.51100000000E-03 0.  1.
</event>
<event>
 8    1  0.1177602E+005  0.1043930E+01  0.7957747E-01            NaN
         13   -1    0    0    0    0  0.00000000000E+00  0.00000000000E+00  0.74505805969E-08  0.10566000000E+00  0.10566000000E+00 0.  1.
     999900   -1    0    0    0    0 -0.00000000000E+00 -0.00000000000E+00 -0.74505805969E-08  0.93827000000E+00  0.93827000000E+00 0.  1.
     999902    2    1    2    0    0 -0.17462619773E-01 -0.51714771118E-02  0.13604077419E-01  0.10211976841E+01  0.10209446370E+01 0.  0.
     999903    2    3    3    0    0  0.15925813054E-02  0.29166017375E-01 -0.12482587643E+00  0.12951107078E+00  0.18396335059E-01 0.  0.
         14    1    1    2    0    0  0.17462619773E-01  0.51714771118E-02 -0.13604077419E-01  0.22732315924E-01  0.00000000000E+00 0. -1.
     999901    1    3    3    0    0 -0.19055201078E-01 -0.34337494487E-01  0.13842995384E+00  0.89168661330E+00  0.88000000000E+00 0. -1.
        -11    1    4    4    0    0  0.19797572942E-02  0.27569889442E-01 -0.79813039130E-01  0.84465380950E-01  0.51100000000E-03 0.  1.
         11    1    4    4    0    0 -0.38717598880E-03  0.15961279332E-02 -0.45012837295E-01  0.45045689827E-01  0.51100000000E-03 0. -1.
</event>
<event>
 8    1  0.1177602E+005  0.1043930E+01  0.7957747E-01            NaN
         13   -1    0    0    0    0  0.00000000000E+00  0.00000000000E+00  0.74505805969E-08  0.10566000000E+00  0.10566000000E+00 0.  1.
     999900   -1    0    0    0    0 -0.00000000000E+00 -0.00000000000E+00 -0.74505805969E-08  0.93827000000E+00  0.93827000000E+00 0.  1.
     999902    2    1    2    0    0  0.16349369514E-01  0.17397848569E-01 -0.51633176229E-02  0.10195036440E+01  0.10192109857E+01 0.  0.
     999903    2    3    3    0    0  0.60171711045E-01  0.10631623451E+00 -0.48169485434E-01  0.13289414290E+00  0.20415125748E-01 0.  0.
         14    1    1    2    0    0 -0.16349369514E-01 -0.17397848569E-01  0.51633176229E-02  0.24426355996E-01  0.00000000000E+00 0. -1.
     999901    1    3    3    0    0 -0.43822341531E-01 -0.88918385944E-01  0.43006167811E-01  0.88660950110E+00  0.88000000000E+00 0. -1.
        -11    1    4    4    0    0  0.17139740051E-01  0.45098936470E-01 -0.26210645030E-01  0.54908503837E-01  0.51100000000E-03 0.  1.
         11    1    4    4    0    0  0.43031970994E-01  0.61217298044E-01 -0.21958840404E-01  0.77985639065E-01  0.51100000000E-03 0. -1.
</event>
<event>
 8    1  0.1177602E+005  0.1043930E+01  0.7957747E-01            NaN
         13   -1    0    0    0    0  0.00000000000E+00  0.00000000000E+00  0.74505805969E-08  0.10566000000E+00  0.10566000000E+00 0.  1.
     999900   -1    0    0    0    0 -0.00000000000E+00 -0.00000000000E+00 -0.74505805969E-08  0.93827000000E+00  0.93827000000E+00 0.  1.
     999902    2    1    2    0    0  0.35847327886E-02  0.29018405816E-01  0.12058272384E-01  0.10123021623E+01  0.10118079599E+01 0.  0.
     999903    2    3    3    0    0 -0.10619848106E-01 -0.11529726860E+00 -0.21621909932E-01  0.11979830309E+00  0.21860583612E-01 0.  0.
         14    1    1    2    0    0 -0.35847327886E-02 -0.29018405816E-01 -0.12058272384E-01  0.31627837709E-01  0.00000000000E+00 0.  1.
     999901    1    3    3    0    0  0.14204580895E-01  0.14431567441E+00  0.33680182317E-01  0.89250385920E+00  0.88000000000E+00 0. -1.
        -11    1    4    4    0    0 -0.86873741125E-02 -0.11287447416E+00 -0.24161585063E-01  0.11575906314E+00  0.51100000000E-03 0. -1.
         11    1    4    4    0    0 -0.19324739936E-02 -0.24227944336E-02  0.25396751312E-02  0.40392399502E-02  0.51100000000E-03 0.  1.
</event>
<event>
 8    1  0.1177602E+005  0.1043930E+01  0.7957747E-01            NaN
         13   -1    0    0    0    0  0.00000000000E+00  0.00000000000E+00  0.74505805969E-08  0.10566000000E+00  0.10566000000E+00 0.  1.
     999900   -1    0    0    0    0 -0.00000000000E+00 -0.00000000000E+00 -0.74505805969E-08  0.93827000000E+00  0.93827000000E+00 0.  1.
     999902    2    1    2    0    0  0.88013163001E-02 -0.22307020386E-01  0.25646642420E-02  0.10198127068E+01  0.10195274951E+01 0.  0.
     999903    2    3    3    0    0  0.65849907753E-01 -0.50340865617E-01  0.10083583012E+00  0.13206405980E+00  0.20065845402E-01 0.  0.
         14    1    1    2    0    0 -0.88013163001E-02  0.22307020386E-01 -0.25646642420E-02  0.24117293169E-01  0.00000000000E+00 0. -1.
     999901    1    3    3    0    0 -0.57048591452E-01  0.28033845231E-01 -0.98271165881E-01  0.88774864703E+00  0.88000000000E+00 0. -1.
        -11    1    4    4    0    0  0.39642227160E-01 -0.25633087312E-01  0.71139640065E-01  0.85379569272E-01  0.51100000000E-03 0. -1.
         11    1    4    4    0    0  0.26207680593E-01 -0.24707778304E-01  0.29696190058E-01  0.46684490526E-01  0.51100000000E-03 0.  1.
</event>
<event>
 8    1  0.1177602E+005  0.1043930E+01  0.7957747E-01            NaN
         13   -1    0    0    0    0  0.00000000000E+00  0.00000000000E+00  0.74505805969E-08  0.10566000000E+00  0.10566000000E+00 0.  1.
     999900   -1    0    0    0    0 -0.00000000000E+00 -0.00000000000E+00 -0.74505805969E-08  0.93827000000E+00  0.93827000000E+00 0.  1.
     999902    2    1    2    0    0 -0.17404523322E-01 -0.41284756401E-02 -0.15992274630E-01  0.10199359468E+01  0.10196536769E+01 0.  0.
     999903    2    3    3    0    0  0.12380510829E+00  0.95663832520E-02  0.22551945418E-01  0.12774013522E+00  0.19741615403E-01 0.  0.
         14    1    1    2    0    0  0.17404523322E-01  0.41284756401E-02  0.15992274630E-01  0.23994053243E-01  0.00000000000E+00 0.  1.
     999901    1    3    3    0    0 -0.14120963161E+00 -0.13694858892E-01 -0.38544220048E-01  0.89219581153E+00  0.88000000000E+00 0.  1.
        -11    1    4    4    0    0  0.29221419284E-01  0.92995386286E-02  0.77199500365E-03  0.30679469698E-01  0.51100000000E-03 0.  1.
         11    1    4    4    0    0  0.94583689002E-01  0.26684462342E-03  0.21779950415E-01  0.97060665526E-01  0.51100000000E-03 0. -1.
</event>
<event>
 8    1  0.1177602E+005  0.1043930E+01  0.7957747E-01            NaN
         13   -1    0    0    0    0  0.00000000000E+00  0.00000000000E+00  0.74505805969E-08  0.10566000000E+00  0.10566000000E+00 0.  1.
     999900   -1    0    0    0    0 -0.00000000000E+00 -0.00000000000E+00 -0.74505805969E-08  0.93827000000E+00  0.93827000000E+00 0. -1.
     999902    2    1    2    0    0 -0.22536610051E-01  0.26137398512E-02  0.28580775818E-02  0.10210630143E+01  0.10208069260E+01 0.  0.
     999903    2    3    3    0    0 -0.11312625537E+00  0.67383794324E-01 -0.14347202868E-01  0.13387776560E+00  0.19475330566E-01 0.  0.
         14    1    1    2    0    0  0.22536610051E-01 -0.26137398512E-02 -0.28580775818E-02  0.22866985723E-01  0.00000000000E+00 0. -1.
     999901    1    3    3    0    0  0.90589645318E-01 -0.64770054472E-01  0.17205280450E-01  0.88718524868E+00  0.88000000000E+00 0. -1.
        -11    1    4    4    0    0 -0.69750309877E-01  0.52197202490E-01 -0.81290825971E-02  0.87498553020E-01  0.51100000000E-03 0.  1.
         11    1    4    4    0    0 -0.43375945492E-01  0.15186591834E-01 -0.62181202709E-02  0.46379212580E-01  0.51100000000E-03 0. -1.
</event>
<event>
 8    1  0.1177602E+005  0.1043930E+01  0.7957747E-01            NaN
         13   -1    0    0    0    0  0.00000000000E+00  0.00000000000E+00  0.74505805969E-08  0.10566000000E+00  0.10566000000E+00 0.  1.
     999900   -1    0    0    0    0 -0.00000000000E+00 -0.00000000000E+00 -0.74505805969E-08  0.93827000000E+00  0.93827000000E+00 0. -1.
     999902    2    1    2    0    0  0.14742451007E-02  0.19616074908E-01  0.66052236910E-02  0.10231792705E+01  0.10229688299E+01 0.  0.
     999903    2    3    3    0    0 -0.10224761819E+00 -0.47942389494E-01 -0.64584119732E-01  0.13166915076E+00  0.20312769495E-01 0.  0.
         14    1    1    2    0    0 -0.14742451007E-02 -0.19616074908E-01 -0.66052236910E-02  0.20750729467E-01  0.00000000000E+00 0.  1.
     999901    1    3    3    0    0  0.10372186329E+00  0.67558464402E-01  0.71189343423E-01  0.89151011977E+00  0.88000000000E+00 0. -1.
        -11    1    4    4    0    0 -0.67459071230E-01 -0.29064119288E-01 -0.30888804502E-01  0.79685812325E-01  0.51100000000E-03 0.  1.
         11    1    4    4    0    0 -0.34788546961E-01 -0.18878270206E-01 -0.33695315230E-01  0.51983338437E-01  0.51100000000E-03 0. -1.
</event>
<event>
 8    1  0.1177602E+005  0.1043930E+01  0.7957747E-01            NaN
         13   -1    0    0    0    0  0.00000000000E+00  0.00000000000E+00  0.74505805969E-08  0.10566000000E+00  0.10566000000E+00 0.  1.
     999900   -1    0    0    0    0 -0.00000000000E+00 -0.00000000000E+00 -0.74505805969E-08  0.93827000000E+00  0.93827000000E+00 0. -1.
     999902    2    1    2    0    0  0.63454333559E-02 -0.40667108087E-02  0.23004669670E-01  0.10197222019E+01  0.10194348197E+01 0.  0.
     999903    2    3    3    0    0 -0.11779434597E+00  0.42509297964E-01  0.26960548079E-01  0.12978082274E+00  0.20824083217E-01 0.  0.
         14    1    1    2    0    0 -0.63454333559E-02  0.40667108087E-02 -0.23004669670E-01  0.24207798081E-01  0.00000000000E+00 0. -1.
     999901    1    3    3    0    0  0.12413977933E+00 -0.46576008773E-01 -0.39558784085E-02  0.88994137918E+00  0.88000000000E+00 0.  1.
        -11    1    4    4    0    0 -0.60397467031E-01  0.11573714022E-01  0.90498258794E-02  0.62160802356E-01  0.51100000000E-03 0. -1.
         11    1    4    4    0    0 -0.57396878939E-01  0.30935583942E-01  0.17910722199E-01  0.67620020382E-01  0.51100000000E-03 0.  1.
</event>
<event>
 8    1  0.1177602E+005  0.1043930E+01  0.7957747E-01            NaN
         13   -1    0    0    0    0  0.00000000000E+00  0.00000000000E+00  0.74505805969E-08  0.10566000000E+00  0.10566000000E+00 0. -1.
     999900   -1    0    0    0    0 -0.00000000000E+00 -0.00000000000E+00 -0.74505805969E-08  0.93827000000E+00  0.93827000000E+00 0.  1.
     999902    2    1    2    0    0 -0.97153991162E-02  0.21313572812E-01  0.70129496211E-02  0.10194792571E+01  0.10191860070E+01 0.  0.
     999903    2    3    3    0    0 -0.16213971150E-01  0.12892705777E+00 -0.16406161002E-01  0.13259067992E+00  0.20640910801E-01 0.  0.
         14    1    1    2    0    0  0.97153991162E-02 -0.21313572812E-01 -0.70129496211E-02  0.24450742900E-01  0.00000000000E+00 0.  1.
     999901    1    3    3    0    0  0.64985720336E-02 -0.10761348496E+00  0.23419110623E-01  0.88688857718E+00  0.88000000000E+00 0.  1.
        -11    1    4    4    0    0 -0.57291157957E-02  0.25319517974E-01 -0.11330276531E-01  0.28329084798E-01  0.51100000000E-03 0. -1.
         11    1    4    4    0    0 -0.10484855354E-01  0.10360753979E+00 -0.50758844708E-02  0.10426159513E+00  0.51100000000E-03 0.  1.
</event>
<event>
 8    1  0.1177602E+005  0.1043930E+01  0.7957747E-01            NaN
         13   -1    0    0    0    0  0.00000000000E+00  0.00000000000E+00  0.74505805969E-08  0.10566000000E+00  0.10566000000E+00 0.  1.
     999900   -1    0    0    0    0 -0.00000000000E+00 -0.00000000000E+00 -0.74505805969E-08  0.93827000000E+00  0.93827000000E+00 0. -1.
     999902    2    1    2    0    0  0.17240451563E-01  0.13451181418E-01  0.18989291757E-02  0.10219806633E+01  0.10217449303E+01 0.  0.
     999903    2    3    3    0    0 -0.64767031253E-01  0.90663362082E-01 -0.68144027921E-01  0.13204079791E+00  0.19404901727E-01 0.  0.
         14    1    1    2    0    0 -0.17240451563E-01 -0.13451181418E-01 -0.18989291757E-02  0.21949336747E-01  0.00000000000E+00 0. -1.
     999901    1    3    3    0    0  0.82007482816E-01 -0.77212180665E-01  0.70042957096E-01  0.88993986534E+00  0.88000000000E+00 0.  1.
        -11    1    4    4    0    0 -0.62196464359E-01  0.83089909993E-01 -0.57302328033E-01  0.11855864051E+00  0.51100000000E-03 0. -1.
         11    1    4    4    0    0 -0.25705668936E-02  0.75734520897E-02 -0.10841699888E-01  0.13482157400E-01  0.51100000000E-03 0.  1.
</event>
<event>
 8    1  0.1177602E+005  0.1043930E+01  0.7957747E-01            NaN
         13   -1    0    0    0    0  0.00000000000E+00  0.00000000000E+00  0.74505805969E-08  0.10566000000E+00  0.10566000000E+00 0. -1.
     999900   -1    0    0    0    0 -0.00000000000E+00 -0.00000000000E+00 -0.74505805969E-08  0.93827000000E+00  0.93827000000E+00 0. -1.
     999902    2    1    2    0    0  0.92188895685E-02 -0.53254257767E-02  0.29589108764E-01  0.10124838008E+01  0.10119953476E+01 0.  0.
     999903    2    3    3    0    0 -0.50067955030E-01 -0.10340908435E+00  0.44674852839E-01  0.12492371064E+00  0.20244805694E-01 0.  0.
         14    1    1    2    0    0 -0.92188895685E-02  0.53254257767E-02 -0.29589108764E-01  0.31446199167E-01  0.00000000000E+00 0.  1.
     999901    1    3    3    0    0  0.59286844599E-01  0.98083658575E-01 -0.15085744074E-01  0.88756009019E+00  0.88000000000E+00 0. -1.
        -11    1    4    4    0    0 -0.33024111535E-01 -0.46564411135E-01  0.18014032533E-01  0.59863200851E-01  0.51100000000E-03 0.  1.
         11    1    4    4    0    0 -0.17043843496E-01 -0.56844673216E-01  0.26660820306E-01  0.65060509793E-01  0.51100000000E-03 0. -1.
</event>
<event>
 8    1  0.1177602E+005  0.1043930E+01  0.7957747E-01            NaN
         13   -1    0    0    0    0  0.00000000000E+00  0.00000000000E+00  0.74505805969E-08  0.10566000000E+00  0.10566000000E+00 0. -1.
     999900   -1    0    0    0    0 -0.00000000000E+00 -0.00000000000E+00 -0.74505805969E-08  0.93827000000E+00  0.93827000000E+00 0. -1.
     999902    2    1    2    0    0 -0.44190850478E-02  0.23277836402E-01 -0.60278288672E-02  0.10194816728E+01  0.10191884814E+01 0.  0.
     999903    2    3    3    0    0  0.15599235569E-01  0.13011620210E+00  0.53083305393E-02  0.13272145832E+00  0.20328426549E-01 0.  0.
         14    1    1    2    0    0  0.44190850478E-02 -0.23277836402E-01  0.60278288672E-02  0.24448327163E-01  0.00000000000E+00 0. -1.
     999901    1    3    3    0    0 -0.20018320617E-01 -0.10683836570E+00 -0.11336159407E-01  0.88676021452E+00  0.88000000000E+00 0. -1.
        -11    1    4    4    0    0  0.12175101589E-01  0.59659900110E-01  0.11280618430E-01  0.61927782561E-01  0.51100000000E-03 0. -1.
         11    1    4    4    0    0  0.34241339803E-02  0.70456301989E-01 -0.59722878904E-02  0.70793675756E-01  0.51100000000E-03 0.  1.
</event>
<event>
 8    1  0.1177602E+005  0.1043930E+01  0.7957747E-01            NaN
         13   -1    0    0    0    0  0.00000000000E+00  0.00000000000E+00  0.74505805969E-08  0.10566000000E+00  0.10566000000E+00 0. -1.
     999900   -1    0    0    0    0 -0.00000000000E+00 -0.00000000000E+00 -0.74505805969E-08  0.93827000000E+00  0.93827000000E+00 0. -1.
     999902    2    1    2    0    0 -0.15653903470E-01 -0.11413323124E-01  0.11290519838E-01  0.10215071439E+01  0.10212610149E+01 0.  0.
     999903    2    3    3    0    0  0.90520170507E-01  0.82751938974E-01 -0.35012857868E-01  0.12893555943E+00  0.18886333603E-01 0.  0.
         14    1    1    2    0    0  0.15653903470E-01  0.11413323124E-01 -0.11290519838E-01  0.22422856125E-01  0.00000000000E+00 0.  1.
     999901    1    3    3    0    0 -0.10617407398E+00 -0.94165262099E-01  0.46303377706E-01  0.89257158444E+00  0.88000000000E+00 0.  1.
        -11    1    4    4    0    0  0.48199190762E-01  0.31696850870E-01 -0.18652849883E-01  0.60630374194E-01  0.51100000000E-03 0.  1.
         11    1    4    4    0    0  0.42320979745E-01  0.51055088104E-01 -0.16360007986E-01  0.68305185236E-01  0.51100000000E-03 0. -1.
</event>
<event>
 8    1  0.1177602E+005  0.1043930E+01  0.7957747E-01            NaN
         13   -1    0    0    0    0  0.00000000000E+00  0.00000000000E+00  0.74505805969E-08  0.10566000000E+00  0.10566000000E+00 0. -1.
     999900   -1    0    0    0    0 -0.00000000000E+00 -0.00000000000E+00 -0.74505805969E-08  0.93827000000E+00  0.93827000000E+00 0. -1.
     999902    2    1    2    0    0  0.78762543201E-02  0.22414147684E-02  0.22459252671E-01  0.10200244075E+01  0.10197442398E+01 0.  0.
     999903    2    3    3    0    0  0.46128730498E-01  0.50601046520E-01  0.11232599386E+00  0.13330126182E+00  0.21535362069E-01 0.  0.
         14    1    1    2    0    0 -0.78762543201E-02 -0.22414147684E-02 -0.22459252671E-01  0.23905592501E-01  0.00000000000E+00 0.  1.
     999901    1    3    3    0    0 -0.38252476178E-01 -0.48359631752E-01 -0.89866741187E-01  0.88672314568E+00  0.88000000000E+00 0. -1.
        -11    1    4    4    0    0  0.23469787865E-01  0.16979289318E-01  0.63760615566E-01  0.70034308925E-01  0.51100000000E-03 0.  1.
         11    1    4    4    0    0  0.22658942633E-01  0.33621757203E-01  0.48565378292E-01  0.63266952892E-01  0.51100000000E-03 0. -1.
</event>
<event>
 8    1  0.1177602E+005  0.1043930E+01  0.7957747E-01            NaN
         13   -1    0    0    0    0  0.00000000000E+00  0.00000000000E+00  0.74505805969E-08  0.10566000000E+00  0.10566000000E+00 0.  1.
     999900   -1    0    0    0    0 -0.00000000000E+00 -0.00000000000E+00 -0.74505805969E-08  0.93827000000E+00  0.93827000000E+00 0. -1.
     999902    2    1    2    0    0  0.69286433579E-02  0.22417583229E-01 -0.87566267903E-03  0.10204497759E+01  0.10201796039E+01 0.  0.
     999903    2    3    3    0    0  0.12503612786E+00 -0.17439849278E-01 -0.29460272901E-01  0.13120567404E+00  0.20219782639E-01 0.  0.
         14    1    1    2    0    0 -0.69286433579E-02 -0.22417583229E-01  0.87566267903E-03  0.23480224056E-01  0.00000000000E+00 0. -1.
     999901    1    3    3    0    0 -0.11810748450E+00  0.39857432507E-01  0.28584610222E-01  0.88924410190E+00  0.88000000000E+00 0.  1.
        -11    1    4    4    0    0  0.45960586225E-01 -0.13082180657E-01 -0.18539588742E-01  0.51259110494E-01  0.51100000000E-03 0.  1.
         11    1    4    4    0    0  0.79075541632E-01 -0.43576686206E-02 -0.10920684159E-01  0.79946563551E-01  0.51100000000E-03 0. -1.
</event>
<event>
 8    1  0.1177602E+005  0.1043930E+01  0.7957747E-01            NaN
         13   -1    0    0    0    0  0.00000000000E+00  0.00000000000E+00  0.74505805969E-08  0.10566000000E+00  0.10566000000E+00 0.  1.
     999900   -1    0    0    0    0 -0.00000000000E+00 -0.00000000000E+00 -0.74505805969E-08  0.93827000000E+00  0.93827000000E+00 0. -1.
     999902    2    1    2    0    0  0.96740286206E-02  0.18445279060E-01  0.74903686008E-02  0.10217958460E+01  0.10215560828E+01 0.  0.
     999903    2    3    3    0    0  0.31092541604E-02 -0.12538356201E+00 -0.25131649321E-01  0.12949879470E+00  0.20189921928E-01 0.  0.
         14    1    1    2    0    0 -0.96740286206E-02 -0.18445279060E-01 -0.74903686008E-02  0.22134153951E-01  0.00000000000E+00 0. -1.
     999901    1    3    3    0    0  0.65647744601E-02  0.14382884107E+00  0.32622017922E-01  0.89229705135E+00  0.88000000000E+00 0.  1.
        -11    1    4    4    0    0  0.65557760831E-02 -0.11210507638E+00 -0.27381210720E-01  0.11558770770E+00  0.51100000000E-03 0. -1.
         11    1    4    4    0    0 -0.34465219227E-02 -0.13278485630E-01  0.22495613994E-02  0.13911086998E-01  0.51100000000E-03 0.  1.
</event>
<event>
 8    1  0.1177602E+005  0.1043930E+01  0.7957747E-01            NaN
         13   -1    0    0    0    0  0.00000000000E+00  0.00000000000E+00  0.74505805969E-08  0.10566000000E+00  0.10566000000E+00 0. -1.
     999900   -1    0    0    0    0 -0.00000000000E+00 -0.00000000000E+00 -0.74505805969E-08  0.93827000000E+00  0.93827000000E+00 0. -1.
     999902    2    1    2    0    0  0.16718124822E-02  0.15252049276E-01 -0.18055413226E-01  0.10202357410E+01  0.10199605626E+01 0.  0.
     999903    2    3    3    0    0 -0.88438211917E-01  0.78044066705E-01  0.53054007703E-01  0.13056209087E+00  0.17875630425E-01 0.  0.
         14    1    1    2    0    0 -0.16718124822E-02 -0.15252049276E-01  0.18055413226E-01  0.23694259027E-01  0.00000000000E+00 0. -1.
     999901    1    3    3    0    0  0.90110024399E-01 -0.62792017428E-01 -0.71109420928E-01  0.88967365011E+00  0.88000000000E+00 0. -1.
        -11    1    4    4    0    0 -0.34055535588E-01  0.20352051039E-01  0.22356493291E-01  0.45541842288E-01  0.51100000000E-03 0.  1.
         11    1    4    4    0    0 -0.54382676329E-01  0.57692015665E-01  0.30697514412E-01  0.85020248578E-01  0.51100000000E-03 0. -1.
</event>
<event>
 8    1  0.1177602E+005  0.1043930E+01  0.7957747E-01            NaN
         13   -1    0    0    0    0  0.00000000000E+00  0.00000000000E+00  0.74505805969E-08  0.10566000000E+00  0.10566000000E+00 0. -1.
     999900   -1    0    0    0    0 -0.00000000000E+00 -0.00000000000E+00 -0.74505805969E-08  0.93827000000E+00  0.93827000000E+00 0. -1.
     999902    2    1    2    0    0  0.15656845195E-01 -0.15145237497E-01 -0.84655891693E-02  0.10205594797E+01  0.10202918555E+01 0.  0.
     999903    2    3    3    0    0  0.11523661738E+00  0.35478248946E-01 -0.52235381819E-01  0.13241835172E+00  0.16367670127E-01 0.  0.
         14    1    1    2    0    0 -0.15656845195E-01  0.15145237497E-01  0.84655891693E-02  0.23370520326E-01  0.00000000000E+00 0. -1.
     999901    1    3    3    0    0 -0.99579772187E-01 -0.50623486444E-01  0.43769792649E-01  0.88814112795E+00  0.88000000000E+00 0. -1.
        -11    1    4    4    0    0  0.96989552755E-01  0.32484752396E-01 -0.38154433578E-01  0.10917075801E+00  0.51100000000E-03 0.  1.
         11    1    4    4    0    0  0.18247064628E-01  0.29934965506E-02 -0.14080948240E-01  0.23247593714E-01  0.51100000000E-03 0. -1.
</event>
<event>
 8    1  0.1177602E+005  0.1043930E+01  0.7957747E-01            NaN
         13   -1    0    0    0    0  0.00000000000E+00  0.00000000000E+00  0.74505805969E-08  0.10566000000E+00  0.10566000000E+00 0.  1.
     999900   -1    0    0    0    0 -0.00000000000E+00 -0.00000000000E+00 -0.74505805969E-08  0.93827000000E+00  0.93827000000E+00 0.  1.
     999902    2    1    2    0    0  0.14578493294E-02  0.58357443896E-02 -0.23098040222E-01  0.10200615962E+01  0.10197823098E+01 0.  0.
     999903    2    3    3    0    0  0.28829705561E-02  0.11341521819E+00 -0.65572746952E-01  0.13249217647E+00  0.19572134453E-01 0.  0.
         14    1    1    2    0    0 -0.14578493294E-02 -0.58357443896E-02  0.23098040222E-01  0.23868403787E-01  0.00000000000E+00 0.  1.
     999901    1    3    3    0    0 -0.14251212267E-02 -0.10757947380E+00  0.42474706730E-01  0.88756941974E+00  0.88000000000E+00 0. -1.
        -11    1    4    4    0    0  0.11239254510E-01  0.66804180990E-01 -0.39972454261E-01  0.78658614660E-01  0.51100000000E-03 0. -1.
         11    1    4    4    0    0 -0.83562839544E-02  0.46611037197E-01 -0.25600292691E-01  0.53833561808E-01  0.51100000000E-03 0.  1.
</event>
<event>
 8    1  0.1177602E+005  0.1043930E+01  0.7957747E-01            NaN
         13   -1    0    0    0    0  0.00000000000E+00  0.00000000000E+00  0.74505805969E-08  0.10566000000E+00  0.10566000000E+00 0. -1.
     999900   -1    0    0    0    0 -0.00000000000E+00 -0.00000000000E+00 -0.74505805969E-08  0.93827000000E+00  0.93827000000E+00 0.  1.
     999902    2    1    2    0    0 -0.12352868395E-02  0.17710292316E-01  0.23510978427E-01  0.10144690683E+01  0.10140411945E+01 0.  0.
     999903    2    3    3    0    0 -0.20535561823E-02 -0.10810780427E+00 -0.52961520958E-01  0.12223652794E+00  0.21102881860E-01 0.  0.
         14    1    1    2    0    0  0.12352868395E-02 -0.17710292316E-01 -0.23510978427E-01  0.29460931656E-01  0.00000000000E+00 0.  1.
     999901    1    3    3    0    0  0.81826934277E-03  0.12581809659E+00  0.76472499385E-01  0.89223254040E+00  0.88000000000E+00 0. -1.
        -11    1    4    4    0    0  0.41604214240E-02 -0.35256408807E-01 -0.27153342368E-01  0.44697747048E-01  0.51100000000E-03 0. -1.
         11    1    4    4    0    0 -0.62139776063E-02 -0.72851395466E-01 -0.25808178590E-01  0.77538780892E-01  0.51100000000E-03 0.  1.
</event>
<event>
 8    1  0.1177602E+005  0.1043930E+01  0.7957747E-01            NaN
         13   -1    0    0    0    0  0.00000000000E+00  0.00000000000E+00  0.74505805969E-08  0.10566000000E+00  0.10566000000E+00 0. -1.
     999900   -1    0    0    0    0 -0.00000000000E+00 -0.00000000000E+00 -0.74505805969E-08  0.93827000000E+00  0.93827000000E+00 0. -1.
     999902    2    1    2    0    0  0.14751674329E-02  0.23716499675E-01  0.78746963481E-03  0.10201546223E+01  0.10198775342E+01 0.  0.
     999903    2    3    3    0    0 -0.63659836755E-01  0.29126669749E-01 -0.10867886509E+00  0.13096694969E+00  0.20983528936E-01 0.  0.
         14    1    1    2    0    0 -0.14751674329E-02 -0.23716499675E-01 -0.78746963481E-03  0.23775377688E-01  0.00000000000E+00 0. -1.
     999901    1    3    3    0    0  0.65135004188E-01 -0.54101700739E-02  0.10946633472E+00  0.88918767263E+00  0.88000000000E+00 0.  1.
        -11    1    4    4    0    0 -0.45821385559E-01  0.21435016117E-01 -0.93499324696E-01  0.10630825053E+00  0.51100000000E-03 0. -1.
         11    1    4    4    0    0 -0.17838451197E-01  0.76916536317E-02 -0.15179540394E-01  0.24658699160E-01  0.51100000000E-03 0.  1.
</event>
<event>
 8    1  0.1177602E+005  0.1043930E+01  0.7957747E-01            NaN
         13   -1    0    0    0    0  0.00000000000E+00  0.00000000000E+00  0.74505805969E-08  0.10566000000E+00  0.10566000000E+00 0.  1.
     999900   -1    0    0    0    0 -0.00000000000E+00 -0.00000000000E+00 -0.74505805969E-08  0.93827000000E+00  0.93827000000E+00 0. -1.
     999902    2    1    2    0    0 -0.21425491233E-01 -0.37787175314E-02 -0.89627290097E-02  0.10204000002E+01  0.10201286681E+01 0.  0.
     999903    2    3    3    0    0 -0.55806280968E-01  0.61683836132E-01  0.98870504199E-01  0.13073973309E+00  0.19956567150E-01 0.  0.
         14    1    1    2    0    0  0.21425491233E-01  0.37787175314E-02  0.89627290097E-02  0.23529999831E-01  0.00000000000E+00 0.  1.
     999901    1    3    3    0    0  0.34380789735E-01 -0.65462553664E-01 -0.10783323321E+00  0.88966026708E+00  0.88000000000E+00 0. -1.
        -11    1    4    4    0    0 -0.32429395459E-01  0.48867322009E-01  0.72282637008E-01  0.93084486269E-01  0.51100000000E-03 0. -1.
         11    1    4    4    0    0 -0.23376885509E-01  0.12816514123E-01  0.26587867190E-01  0.37655246820E-01  0.51100000000E-03 0.  1.
</event>
<event>
 8    1  0.1177602E+005  0.1043930E+01  0.7957747E-01            NaN
         13   -1    0    0    0    0  0.00000000000E+00  0.00000000000E+00  0.74505805969E-08  0.10566000000E+00  0.10566000000E+00 0.  1.
     999900   -1    0    0    0    0 -0.00000000000E+00 -0.00000000000E+00 -0.74505805969E-08  0.93827000000E+00  0.93827000000E+00 0. -1.
     999902    2    1    2    0    0 -0.22950589387E-01 -0.52531609997E-02  0.63624757299E-02  0.10195413479E+01  0.10192496033E+01 0.  0.
     999903    2    3    3    0    0  0.46534486587E-02  0.12193342324E+00  0.36064241852E-01  0.12947359484E+00  0.23945102502E-01 0.  0.
         14    1    1    2    0    0  0.22950589387E-01  0.52531609997E-02 -0.63624757299E-02  0.24388652097E-01  0.00000000000E+00 0. -1.
     999901    1    3    3    0    0 -0.27604038046E-01 -0.12718658424E+00 -0.29701766123E-01  0.89006775306E+00  0.88000000000E+00 0.  1.
        -11    1    4    4    0    0  0.13507516112E-01  0.77398129590E-01  0.27636183925E-01  0.83288313937E-01  0.51100000000E-03 0.  1.
         11    1    4    4    0    0 -0.88540674535E-02  0.44535293649E-01  0.84280579275E-02  0.46185280906E-01  0.51100000000E-03 0. -1.
</event>
<event>
 8    1  0.1177602E+005  0.1043930E+01  0.7957747E-01            NaN
         13   -1    0    0    0    0  0.00000000000E+00  0.00000000000E+00  0.74505805969E-08  0.10566000000E+00  0.10566000000E+00 0. -1.
     999900   -1    0    0    0    0 -0.00000000000E+00 -0.00000000000E+00 -0.74505805969E-08  0.93827000000E+00  0.93827000000E+00 0. -1.
     999902    2    1    2    0    0  0.12170047752E-01 -0.20195384146E-01 -0.42758161141E-02  0.10199665652E+01  0.10196850239E+01 0.  0.
     999903    2    3    3    0    0 -0.53332011024E-01 -0.11349898104E+00 -0.35618187009E-01  0.13205979922E+00  0.21090595660E-01 0.  0.
         14    1    1    2    0    0 -0.12170047752E-01  0.20195384146E-01  0.42758161141E-02  0.23963434782E-01  0.00000000000E+00 0. -1.
     999901    1    3    3    0    0  0.65502058776E-01  0.93303596899E-01  0.31342370895E-01  0.88790676600E+00  0.88000000000E+00 0. -1.
        -11    1    4    4    0    0 -0.52525963764E-01 -0.98044143412E-01 -0.27507420476E-01  0.11457988580E+00  0.51100000000E-03 0.  1.
         11    1    4    4    0    0 -0.80604725963E-03 -0.15454837633E-01 -0.81107665337E-02  0.17479913421E-01  0.51100000000E-03 0. -1.
</event>
<event>
 8    1  0.1177602E+005  0.1043930E+01  0.7957747E-01            NaN
         13   -1    0    0    0    0  0.00000000000E+00  0.00000000000E+00  0.74505805969E-08  0.10566000000E+00  0.10566000000E+00 0. -1.
     999900   -1    0    0    0    0 -0.00000000000E+00 -0.00000000000E+00 -0.74505805969E-08  0.93827000000E+00  0.93827000000E+00 0.  1.
     999902    2    1    2    0    0 -0.39308843736E-02  0.12614322994E-02  0.23133853788E-01  0.10204306754E+01  0.10201600586E+01 0.  0.
     999903    2    3    3    0    0 -0.10117278239E+00  0.46966370098E-01 -0.63115452465E-01  0.12970969169E+00  0.19981790777E-01 0.  0.
         14    1    1    2    0    0  0.39308843736E-02 -0.12614322994E-02 -0.23133853788E-01  0.23499324554E-01  0.00000000000E+00 0.  1.
     999901    1    3    3    0    0  0.97241898015E-01 -0.45704937799E-01  0.86249306254E-01  0.89072098375E+00  0.88000000000E+00 0. -1.
        -11    1    4    4    0    0 -0.30935469211E-01  0.23512236643E-01 -0.16573047870E-01  0.42246367465E-01  0.51100000000E-03 0.  1.
         11    1    4    4    0    0 -0.70237313177E-01  0.23454133456E-01 -0.46542404595E-01  0.87463324228E-01  0.51100000000E-03 0. -1.
</event>
<event>
 8    1  0.1177602E+005  0.1043930E+01  0.7957747E-01            NaN
         13   -1    0    0    0    0  0.00000000000E+00  0.00000000000E+00  0.74505805969E-08  0.10566000000E+00  0.10566000000E+00 0. -1.
     999900   -1    0    0    0    0 -0.00000000000E+00 -0.00000000000E+00 -0.74505805969E-08  0.93827000000E+00  0.93827000000E+00 0. -1.
     999902    2    1    2    0    0  0.75235825209E-02  0.21556046420E-01 -0.15157093678E-02  0.10210484615E+01  0.10207920434E+01 0.  0.
     999903    2    3    3    0    0  0.58745848264E-02  0.11302537908E+00 -0.68642190116E-01  0.13376309449E+00  0.19276102358E-01 0.  0.
         14    1    1    2    0    0 -0.75235825209E-02 -0.21556046420E-01  0.15157093678E-02  0.22881538543E-01  0.00000000000E+00 0.  1.
     999901    1    3    3    0    0  0.16489976945E-02 -0.91469332658E-01  0.67126480748E-01  0.88728536696E+00  0.88000000000E+00 0. -1.
        -11    1    4    4    0    0  0.12987722283E-01  0.73019816587E-01 -0.44871089628E-01  0.86684775768E-01  0.51100000000E-03 0.  1.
         11    1    4    4    0    0 -0.71131374563E-02  0.40005562490E-01 -0.23771100488E-01  0.47078318725E-01  0.51100000000E-03 0. -1.
</event>
<event>
 8    1  0.1177602E+005  0.1043930E+01  0.7957747E-01            NaN
         13   -1    0    0    0    0  0.00000000000E+00  0.00000000000E+00  0.74505805969E-08  0.10566000000E+00  0.10566000000E+00 0.  1.
     999900   -1    0    0    0    0 -0.00000000000E+00 -0.00000000000E+00 -0.74505805969E-08  0.93827000000E+00  0.93827000000E+00 0.  1.
     999902    2    1    2    0    0  0.11449335058E-01  0.75888329227E-02  0.18745897570E-01  0.10206902424E+01  0.10204256389E+01 0.  0.
     999903    2    3    3    0    0  0.28143369092E-01 -0.69871537730E-01 -0.10173528595E+00  0.12895344524E+00  0.24593528077E-01 0.  0.
         14    1    1    2    0    0 -0.11449335058E-01 -0.75888329227E-02 -0.18745897570E-01  0.23239757617E-01  0.00000000000E+00 0. -1.
     999901    1    3    3    0    0 -0.16694034034E-01  0.77460370652E-01  0.12048118352E+00  0.89173679714E+00  0.88000000000E+00 0. -1.
        -11    1    4    4    0    0  0.68239215142E-02 -0.38427035896E-01 -0.66649375076E-01  0.77237318128E-01  0.51100000000E-03 0. -1.
         11    1    4    4    0    0  0.21319447578E-01 -0.31444501834E-01 -0.35085910876E-01  0.51716127113E-01  0.51100000000E-03 0.  1.
</event>
<event>
 8    1  0.1177602E+005  0.1043930E+01  0.7957747E-01            NaN
         13   -1    0    0    0    0  0.00000000000E+00  0.00000000000E+00  0.74505805969E-08  0.10566000000E+00  0.10566000000E+00 0. -1.
     999900   -1    0    0    0    0 -0.00000000000E+00 -0.00000000000E+00 -0.74505805969E-08  0.93827000000E+00  0.93827000000E+00 0.  1.
     999902    2    1    2    0    0  0.47049040381E-02  0.56427735511E-05  0.22845470867E-01  0.10206050843E+01  0.10203385156E+01 0.  0.
     999903    2    3    3    0    0  0.81345825861E-01  0.77911891634E-01  0.67397248246E-01  0.13272667179E+00  0.19661487497E-01 0.  0.
         14    1    1    2    0    0 -0.47049040381E-02 -0.56427735511E-05 -0.22845470867E-01  0.23324915713E-01  0.00000000000E+00 0.  1.
     999901    1    3    3    0    0 -0.76640921823E-01 -0.77906248861E-01 -0.44551777378E-01  0.88787841250E+00  0.88000000000E+00 0.  1.
        -11    1    4    4    0    0  0.16883908177E-01  0.26238375760E-01  0.12979286213E-01  0.33797066580E-01  0.51100000000E-03 0.  1.
         11    1    4    4    0    0  0.64461917684E-01  0.51673515874E-01  0.54417962033E-01  0.98929605211E-01  0.51100000000E-03 0. -1.
</event>
<event>
 8    1  0.1177602E+005  0.1043930E+01  0.7957747E-01            NaN
         13   -1    0    0    0    0  0.00000000000E+00  0.00000000000E+00  0.74505805969E-08  0.10566000000E+00  0.10566000000E+00 0. -1.
     999900   -1    0    0    0    0 -0.00000000000E+00 -0.00000000000E+00 -0.74505805969E-08  0.93827000000E+00  0.93827000000E+00 0.  1.
     999902    2    1    2    0    0  0.13432119524E-01 -0.17051947312E-01 -0.90257132232E-02  0.10204214007E+01  0.10201505677E+01 0.  0.
     999903    2    3    3    0    0 -0.85801923099E-01  0.54491326648E-01  0.75211951606E-01  0.12797430454E+00  0.19730947028E-01 0.  0.
         14    1    1    2    0    0 -0.13432119524E-01  0.17051947312E-01  0.90257132232E-02  0.23508599303E-01  0.00000000000E+00 0.  1.
     999901    1    3    3    0    0  0.99234042623E-01 -0.71543273960E-01 -0.84237664829E-01  0.89244709616E+00  0.88000000000E+00 0. -1.
        -11    1    4    4    0    0 -0.59742052785E-01  0.27293775888E-01  0.44071272155E-01  0.79098680290E-01  0.51100000000E-03 0.  1.
         11    1    4    4    0    0 -0.26059870314E-01  0.27197550761E-01  0.31140679451E-01  0.48875624250E-01  0.51100000000E-03 0. -1.
</event>
<event>
 8    1  0.1177602E+005  0.1043930E+01  0.7957747E-01            NaN
         13   -1    0    0    0    0  0.00000000000E+00  0.00000000000E+00  0.74505805969E-08  0.10566000000E+00  0.10566000000E+00 0. -1.
     999900   -1    0    0    0    0 -0.00000000000E+00 -0.00000000000E+00 -0.74505805969E-08  0.93827000000E+00  0.93827000000E+00 0.  1.
     999902    2    1    2    0    0  0.53112153190E-02  0.23311118196E-01  0.10666642933E-02  0.10199976994E+01  0.10197168978E+01 0.  0.
     999903    2    3    3    0    0  0.47441649520E-02 -0.57073299594E-01  0.11406171303E+00  0.12913864364E+00  0.19668408023E-01 0.  0.
         14    1    1    2    0    0 -0.53112153190E-02 -0.23311118196E-01 -0.10666642933E-02  0.23932300608E-01  0.00000000000E+00 0.  1.
     999901    1    3    3    0    0  0.56705036708E-03  0.80384417789E-01 -0.11299504874E+00  0.89085905575E+00  0.88000000000E+00 0.  1.
        -11    1    4    4    0    0 -0.54812822475E-02 -0.21038782114E-01  0.55632731679E-01  0.59732208757E-01  0.51100000000E-03 0. -1.
         11    1    4    4    0    0  0.10225447199E-01 -0.36034517480E-01  0.58428981355E-01  0.69406434886E-01  0.51100000000E-03 0.  1.
</event>
<event>
 8    1  0.1177602E+005  0.1043930E+01  0.7957747E-01            NaN
         13   -1    0    0    0    0  0.00000000000E+00  0.00000000000E+00  0.74505805969E-08  0.10566000000E+00  0.10566000000E+00 0. -1.
     999900   -1    0    0    0    0 -0.00000000000E+00 -0.00000000000E+00 -0.74505805969E-08  0.93827000000E+00  0.93827000000E+00 0. -1.
     999902    2    1    2    0    0  0.92323232824E-02  0.13763760777E-01  0.16632925277E-01  0.10204495591E+01  0.10201793820E+01 0.  0.
     999903    2    3    3    0    0  0.19580658602E-01  0.11691979624E+00 -0.52670588597E-01  0.13165755147E+00  0.22491754326E-01 0.  0.
         14    1    1    2    0    0 -0.92323232824E-02 -0.13763760777E-01 -0.16632925277E-01  0.23480440950E-01  0.00000000000E+00 0.  1.
     999901    1    3    3    0    0 -0.10348335320E-01 -0.10315603546E+00  0.69303513875E-01  0.88879200758E+00  0.88000000000E+00 0.  1.
        -11    1    4    4    0    0  0.15246307761E-01  0.81520439814E-01 -0.25331755786E-01  0.86717881547E-01  0.51100000000E-03 0.  1.
         11    1    4    4    0    0  0.43343508416E-02  0.35399356426E-01 -0.27338832812E-01  0.44939669926E-01  0.51100000000E-03 0. -1.
</event>
<event>
 8    1  0.1177602E+005  0.1043930E+01  0.7957747E-01            NaN
         13   -1    0    0    0    0  0.00000000000E+00  0.00000000000E+00  0.74505805969E-08  0.10566000000E+00  0.10566000000E+00 0.  1.
     999900   -1    0    0    0    0 -0.00000000000E+00 -0.00000000000E+00 -0.74505805969E-08  0.93827000000E+00  0.93827000000E+00 0.  1.
     999902    2    1    2    0    0 -0.51429640058E-02 -0.74147502409E-02  0.25687402484E-01  0.10167037030E+01  0.10163390913E+01 0.  0.
     999903    2    3    3    0    0  0.76585891878E-01 -0.10013528838E+00  0.66699858879E-02  0.12786267889E+00  0.20295347440E-01 0.  0.
         14    1    1    2    0    0  0.51429640058E-02  0.74147502409E-02 -0.25687402484E-01  0.27226296962E-01  0.00000000000E+00 0. -1.
     999901    1    3    3    0    0 -0.81728855884E-01  0.92720538137E-01  0.19017416596E-01  0.88884102415E+00  0.88000000000E+00 0.  1.
        -11    1    4    4    0    0  0.17432066796E-01 -0.18254097407E-01  0.90529881781E-02  0.26819894498E-01  0.51100000000E-03 0.  1.
         11    1    4    4    0    0  0.59153825083E-01 -0.81881190970E-01 -0.23830022902E-02  0.10104278439E+00  0.51100000000E-03 0. -1.
</event>
<event>
 8    1  0.1177602E+005  0.1043930E+01  0.7957747E-01            NaN
         13   -1    0    0    0    0  0.00000000000E+00  0.00000000000E+00  0.74505805969E-08  0.10566000000E+00  0.10566000000E+00 0. -1.
     999900   -1    0    0    0    0 -0.00000000000E+00 -0.00000000000E+00 -0.74505805969E-08  0.93827000000E+00  0.93827000000E+00 0.  1.
     999902    2    1    2    0    0  0.29339176755E-02 -0.15965483791E-01  0.32676761908E-01  0.10074433543E+01  0.10067824178E+01 0.  0.
     999903    2    3    3    0    0 -0.21291554055E-01 -0.87199381538E-01  0.81504717022E-01  0.12288396632E+00  0.20009694308E-01 0.  0.
         14    1    1    2    0    0 -0.29339176755E-02  0.15965483791E-01 -0.32676761908E-01  0.36486645700E-01  0.00000000000E+00 0.  1.
     999901    1    3    3    0    0  0.24225471731E-01  0.71233897746E-01 -0.48827955114E-01  0.88455938798E+00  0.88000000000E+00 0.  1.
        -11    1    4    4    0    0 -0.22628278035E-01 -0.51764666897E-01  0.49510121659E-01  0.75120789222E-01  0.51100000000E-03 0.  1.
         11    1    4    4    0    0  0.13367239801E-02 -0.35434714641E-01  0.31994595363E-01  0.47763177095E-01  0.51100000000E-03 0. -1.
</event>
<event>
 8    1  0.1177602E+005  0.1043930E+01  0.7957747E-01            NaN
         13   -1    0    0    0    0  0.00000000000E+00  0.00000000000E+00  0.74505805969E-08  0.10566000000E+00  0.10566000000E+00 0.  1.
     999900   -1    0    0    0    0 -0.00000000000E+00 -0.00000000000E+00 -0.74505805969E-08  0.93827000000E+00  0.93827000000E+00 0.  1.
     999902    2    1    2    0    0  0.25344658678E-01  0.27076177009E-02  0.81807661152E-03  0.10184279968E+01  0.10181086546E+01 0.  0.
     999903    2    3    3    0    0  0.81695872732E-01  0.79260084090E-02 -0.99943804762E-01  0.13087199990E+00  0.20041931441E-01 0.  0.
         14    1    1    2    0    0 -0.25344658678E-01 -0.27076177009E-02 -0.81807661152E-03  0.25502003186E-01  0.00000000000E+00 0. -1.
     999901    1    3    3    0    0 -0.56351214054E-01 -0.52183907081E-02  0.10076188137E+00  0.88755599692E+00  0.88000000000E+00 0. -1.
        -11    1    4    4    0    0  0.12427395797E-01  0.75671882519E-02 -0.11642023941E-01  0.18641361184E-01  0.51100000000E-03 0.  1.
         11    1    4    4    0    0  0.69268476935E-01  0.35882015716E-03 -0.88301780821E-01  0.11223063871E+00  0.51100000000E-03 0. -1.
</event>
<event>
 8    1  0.1177602E+005  0.1043930E+01  0.7957747E-01            NaN
         13   -1    0    0    0    0  0.00000000000E+00  0.00000000000E+00  0.74505805969E-08  0.10566000000E+00  0.10566000000E+00 0. -1.
     999900   -1    0    0    0    0 -0.00000000000E+00 -0.00000000000E+00 -0.74505805969E-08  0.93827000000E+00  0.93827000000E+00 0. -1.
     999902    2    1    2    0    0 -0.14469384260E-01  0.11408449653E-01  0.15811161194E-01  0.10196502013E+01  0.10193610864E+01 0.  0.
     999903    2    3    3    0    0 -0.56177128456E-01  0.80625543252E-01  0.87616689959E-01  0.13303496578E+00  0.19112032210E-01 0.  0.
         14    1    1    2    0    0  0.14469384260E-01 -0.11408449653E-01 -0.15811161194E-01  0.24279798654E-01  0.00000000000E+00 0. -1.
     999901    1    3    3    0    0  0.41707744195E-01 -0.69217093600E-01 -0.71805528765E-01  0.88661523556E+00  0.88000000000E+00 0. -1.
        -11    1    4    4    0    0 -0.30286999727E-01  0.36223771115E-01  0.53417829597E-01  0.71296490699E-01  0.51100000000E-03 0.  1.
         11    1    4    4    0    0 -0.25890128729E-01  0.44401772138E-01  0.34198860362E-01  0.61738475084E-01  0.51100000000E-03 0. -1.
</event>
<event>
 8    1  0.1177602E+005  0.1043930E+01  0.7957747E-01            NaN
         13   -1    0    0    0    0  0.00000000000E+00  0.00000000000E+00  0.74505805969E-08  0.10566000000E+00  0.10566000000E+00 0.  1.
     999900   -1    0    0    0    0 -0.00000000000E+00 -0.00000000000E+00 -0.74505805969E-08  0.93827000000E+00  0.93827000000E+00 0.  1.
     999902    2    1    2    0    0  0.63909181691E-02 -0.21425042891E-01  0.33762132332E-02  0.10213186066E+01  0.10210682744E+01 0.  0.
     999903    2    3    3    0    0  0.86978454629E-01 -0.13617042914E-01  0.96780038457E-01  0.13267942755E+00  0.22063073737E-01 0.  0.
         14    1    1    2    0    0 -0.63909181691E-02  0.21425042891E-01 -0.33762132332E-02  0.22611393450E-01  0.00000000000E+00 0.  1.
     999901    1    3    3    0    0 -0.80587536459E-01 -0.78079999775E-02 -0.93403825224E-01  0.88863917901E+00  0.88000000000E+00 0.  1.
        -11    1    4    4    0    0  0.41295078994E-01  0.40952519646E-02  0.49404736193E-01  0.64522428016E-01  0.51100000000E-03 0. -1.
         11    1    4    4    0    0  0.45683375634E-01 -0.17712294879E-01  0.47375302264E-01  0.68156999529E-01  0.51100000000E-03 0.  1.
</event>
<event>
 8    1  0.1177602E+005  0.1043930E+01  0.7957747E-01            NaN
         13   -1    0    0    0    0  0.00000000000E+00  0.00000000000E+00  0.74505805969E-08  0.10566000000E+00  0.10566000000E+00 0. -1.
     999900   -1    0    0    0    0 -0.00000000000E+00 -0.00000000000E+00 -0.74505805969E-08  0.93827000000E+00  0.93827000000E+00 0.  1.
     999902    2    1    2    0    0  0.71733037478E-02  0.22959594278E-01 -0.25270740123E-01  0.10090414695E+01  0.10084381377E+01 0.  0.
     999903    2    3    3    0    0  0.48174355294E-01  0.76278881920E-02  0.10599345331E+00  0.11822923565E+00  0.19094156999E-01 0.  0.
         14    1    1    2    0    0 -0.71733037478E-02 -0.22959594278E-01  0.25270740123E-01  0.34888530529E-01  0.00000000000E+00 0. -1.
     999901    1    3    3    0    0 -0.41001051546E-01  0.15331706086E-01 -0.13126419344E+00  0.89081223382E+00  0.88000000000E+00 0.  1.
        -11    1    4    4    0    0  0.31507832855E-01 -0.42339390923E-02  0.68350442204E-01  0.75383777048E-01  0.51100000000E-03 0. -1.
         11    1    4    4    0    0  0.16666522439E-01  0.11861827284E-01  0.37643011111E-01  0.42845458607E-01  0.51100000000E-03 0.  1.
</event>
<event>
 8    1  0.1177602E+005  0.1043930E+01  0.7957747E-01            NaN
         13   -1    0    0    0    0  0.00000000000E+00  0.00000000000E+00  0.74505805969E-08  0.10566000000E+00  0.10566000000E+00 0. -1.
     999900   -1    0    0    0    0 -0.00000000000E+00 -0.00000000000E+00 -0.74505805969E-08  0.93827000000E+00  0.93827000000E+00 0. -1.
     999902    2    1    2    0    0 -0.11143964301E-01  0.18995748485E-01  0.94827152708E-02  0.10199519206E+01  0.10196700310E+01 0.  0.
     999903    2    3    3    0    0  0.29411934900E-01  0.33616850322E-01 -0.11978173968E+00  0.12946449406E+00  0.20450807401E-01 0.  0.
         14    1    1    2    0    0  0.11143964301E-01 -0.18995748485E-01 -0.94827152708E-02  0.23978079359E-01  0.00000000000E+00 0. -1.
     999901    1    3    3    0    0 -0.40555899200E-01 -0.14621101836E-01  0.12926445495E+00  0.89048742658E+00  0.88000000000E+00 0.  1.
        -11    1    4    4    0    0  0.71018762406E-02  0.20118338961E-01 -0.71136662099E-01  0.74268903481E-01  0.51100000000E-03 0. -1.
         11    1    4    4    0    0  0.22310058659E-01  0.13498511360E-01 -0.48645077577E-01  0.55195590583E-01  0.51100000000E-03 0.  1.
</event>
<event>
 8    1  0.1177602E+005  0.1043930E+01  0.7957747E-01            NaN
         13   -1    0    0    0    0  0.00000000000E+00  0.00000000000E+00  0.74505805969E-08  0.10566000000E+00  0.10566000000E+00 0.  1.
     999900   -1    0    0    0    0 -0.00000000000E+00 -0.00000000000E+00 -0.74505805969E-08  0.93827000000E+00  0.93827000000E+00 0.  1.
     999902    2    1    2    0    0 -0.14717271971E-02 -0.12586063674E-01 -0.21278055021E-01  0.10191644876E+01  0.10188635444E+01 0.  0.
     999903    2    3    3    0    0 -0.11489275626E+00  0.44792756165E-01  0.30672650209E-01  0.12851554744E+00  0.19201510835E-01 0.  0.
         14    1    1    2    0    0  0.14717271971E-02  0.12586063674E-01  0.21278055021E-01  0.24765512416E-01  0.00000000000E+00 0.  1.
     999901    1    3    3    0    0  0.11342102906E+00 -0.57378819839E-01 -0.51950705231E-01  0.89064894014E+00  0.88000000000E+00 0. -1.
        -11    1    4    4    0    0 -0.36403486693E-01  0.23448349071E-01  0.13722409014E-01  0.45426914354E-01  0.51100000000E-03 0.  1.
         11    1    4    4    0    0 -0.78489269565E-01  0.21344407094E-01  0.16950241195E-01  0.83088633089E-01  0.51100000000E-03 0. -1.
</event>
<event>
 8    1  0.1177602E+005  0.1043930E+01  0.7957747E-01            NaN
         13   -1    0    0    0    0  0.00000000000E+00  0.00000000000E+00  0.74505805969E-08  0.10566000000E+00  0.10566000000E+00 0.  1.
     999900   -1    0    0    0    0 -0.00000000000E+00 -0.00000000000E+00 -0.74505805969E-08  0.93827000000E+00  0.93827000000E+00 0.  1.
     999902    2    1    2    0    0  0.38687828398E-02 -0.22711449135E-01  0.19095016236E-02  0.10208123963E+01  0.10205505989E+01 0.  0.
     999903    2    3    3    0    0  0.98636168231E-01 -0.70479272731E-01 -0.50895108294E-01  0.13286479139E+00  0.19139466441E-01 0.  0.
         14    1    1    2    0    0 -0.38687828398E-02  0.22711449135E-01 -0.19095016236E-02  0.23117603659E-01  0.00000000000E+00 0. -1.
     999901    1    3    3    0    0 -0.94767385391E-01  0.47767823597E-01  0.52804609918E-01  0.88794760495E+00  0.88000000000E+00 0. -1.
        -11    1    4    4    0    0  0.45756750142E-01 -0.23743238850E-01 -0.28021740489E-01  0.58676235697E-01  0.51100000000E-03 0. -1.
         11    1    4    4    0    0  0.52879418089E-01 -0.46736033882E-01 -0.22873367806E-01  0.74188555696E-01  0.51100000000E-03 0.  1.
</event>
<event>
 8    1  0.1177602E+005  0.1043930E+01  0.7957747E-01            NaN
         13   -1    0    0    0    0  0.00000000000E+00  0.00000000000E+00  0.74505805969E-08  0.10566000000E+00  0.10566000000E+00 0. -1.
     999900   -1    0    0    0    0 -0.00000000000E+00 -0.00000000000E+00 -0.74505805969E-08  0.93827000000E+00  0.93827000000E+00 0. -1.
     999902    2    1    2    0    0  0.17861396530E-01  0.14990723092E-01 -0.34492029340E-02  0.10203578074E+01  0.10200854899E+01 0.  0.
     999903    2    3    3    0    0 -0.77032148210E-01  0.98216547900E-01 -0.33209979567E-01  0.13085399817E+00  0.20962441520E-01 0.  0.
         14    1    1    2    0    0 -0.17861396530E-01 -0.14990723092E-01  0.34492029340E-02  0.23572192636E-01  0.00000000000E+00 0. -1.
     999901    1    3    3    0    0  0.94893544739E-01 -0.83225824808E-01  0.29760776633E-01  0.88950380920E+00  0.88000000000E+00 0. -1.
        -11    1    4    4    0    0 -0.37197110180E-01  0.35794077670E-01 -0.21320156448E-01  0.55853837773E-01  0.51100000000E-03 0.  1.
         11    1    4    4    0    0 -0.39835038029E-01  0.62422470230E-01 -0.11889823119E-01  0.75000160395E-01  0.51100000000E-03 0. -1.
</event>
<event>
 8    1  0.1177602E+005  0.1043930E+01  0.7957747E-01            NaN
         13   -1    0    0    0    0  0.00000000000E+00  0.00000000000E+00  0.74505805969E-08  0.10566000000E+00  0.10566000000E+00 0.  1.
     999900   -1    0    0    0    0 -0.00000000000E+00 -0.00000000000E+00 -0.74505805969E-08  0.93827000000E+00  0.93827000000E+00 0.  1.
     999902    2    1    2    0    0 -0.80879536777E-02  0.17329604537E-01  0.26480577041E-01  0.10112657818E+01  0.10107381117E+01 0.  0.
     999903    2    3    3    0    0 -0.75722444149E-01 -0.37568053527E-01  0.89397951857E-01  0.12472939047E+00  0.20498289101E-01 0.  0.
         14    1    1    2    0    0  0.80879536777E-02 -0.17329604537E-01 -0.26480577041E-01  0.32664218168E-01  0.00000000000E+00 0.  1.
     999901    1    3    3    0    0  0.67634490471E-01  0.54897658064E-01 -0.62917374815E-01  0.88653639137E+00  0.88000000000E+00 0.  1.
        -11    1    4    4    0    0 -0.27196795635E-01 -0.14750482471E-01  0.19288913367E-01  0.36463210581E-01  0.51100000000E-03 0. -1.
         11    1    4    4    0    0 -0.48525648513E-01 -0.22817571056E-01  0.70109038490E-01  0.88266179885E-01  0.51100000000E-03 0.  1.
</event>
<event>
 8    1  0.1177602E+005  0.1043930E+01  0.7957747E-01            NaN
         13   -1    0    0    0    0  0.00000000000E+00  0.00000000000E+00  0.74505805969E-08  0.10566000000E+00  0.10566000000E+00 0. -1.
     999900   -1    0    0    0    0 -0.00000000000E+00 -0.00000000000E+00 -0.74505805969E-08  0.93827000000E+00  0.93827000000E+00 0. -1.
     999902    2    1    2    0    0 -0.14463526644E-01  0.14843293823E-01 -0.89998049555E-02  0.10213354550E+01  0.10210854999E+01 0.  0.
     999903    2    3    3    0    0 -0.21329406442E-01  0.11075795975E+00 -0.68847775319E-01  0.13407644941E+00  0.22676174561E-01 0.  0.
         14    1    1    2    0    0  0.14463526644E-01 -0.14843293823E-01  0.89998049555E-02  0.22594545000E-01  0.00000000000E+00 0.  1.
     999901    1    3    3    0    0  0.68658797980E-02 -0.95914665926E-01  0.59847970364E-01  0.88725900559E+00  0.88000000000E+00 0.  1.
        -11    1    4    4    0    0 -0.11605764514E-01  0.26963794851E-01 -0.27092679385E-01  0.39950148936E-01  0.51100000000E-03 0. -1.
         11    1    4    4    0    0 -0.97236419282E-02  0.83794164898E-01 -0.41755095934E-01  0.94126300474E-01  0.51100000000E-03 0.  1.
</event>
<event>
 8    1  0.1177602E+005  0.1043930E+01  0.7957747E-01            NaN
         13   -1    0    0    0    0  0.00000000000E+00  0.00000000000E+00  0.74505805969E-08  0.10566000000E+00  0.10566000000E+00 0. -1.
     999900   -1    0    0    0    0 -0.00000000000E+00 -0.00000000000E+00 -0.74505805969E-08  0.93827000000E+00  0.93827000000E+00 0. -1.
     999902    2    1    2    0    0  0.15718279417E-01  0.81160300531E-02 -0.11277822022E-01  0.10229508789E+01  0.10227357318E+01 0.  0.
     999903    2    3    3    0    0  0.27825041248E-01  0.65119030548E-01  0.11040449050E+00  0.13266861979E+00  0.19927119562E-01 0.  0.
         14    1    1    2    0    0 -0.15718279417E-01 -0.81160300531E-02  0.11277822022E-01  0.20979121078E-01  0.00000000000E+00 0.  1.
     999901    1    3    3    0    0 -0.12106761830E-01 -0.57003000495E-01 -0.12168231252E+00  0.89028225913E+00  0.88000000000E+00 0. -1.
        -11    1    4    4    0    0  0.29571913865E-01  0.52124335835E-01  0.96113273873E-01  0.11326723715E+00  0.51100000000E-03 0. -1.
         11    1    4    4    0    0 -0.17468726170E-02  0.12994694713E-01  0.14291216627E-01  0.19401382639E-01  0.51100000000E-03 0.  1.
</event>
<event>
 8    1  0.1177602E+005  0.1043930E+01  0.7957747E-01            NaN
         13   -1    0    0    0    0  0.00000000000E+00  0.00000000000E+00  0.74505805969E-08  0.10566000000E+00  0.10566000000E+00 0. -1.
     999900   -1    0    0    0    0 -0.00000000000E+00 -0.00000000000E+00 -0.74505805969E-08  0.93827000000E+00  0.93827000000E+00 0.  1.
     999902    2    1    2    0    0  0.11189907966E-01 -0.14589924719E-02 -0.10826712892E-01  0.10282915726E+01  0.10281726498E+01 0.  0.
     999903    2    3    3    0    0  0.11414685495E+00 -0.92129700628E-02  0.74466869151E-01  0.13815941824E+00  0.20696060854E-01 0.  0.
         14    1    1    2    0    0 -0.11189907966E-01  0.14589924719E-02  0.10826712892E-01  0.15638427394E-01  0.00000000000E+00 0. -1.
     999901    1    3    3    0    0 -0.10295694698E+00  0.77539775909E-02 -0.85293582043E-01  0.89013215437E+00  0.88000000000E+00 0. -1.
        -11    1    4    4    0    0  0.64951673936E-01  0.16439373736E-02  0.50902990717E-01  0.82539675684E-01  0.51100000000E-03 0.  1.
         11    1    4    4    0    0  0.49195181013E-01 -0.10856907436E-01  0.23563878435E-01  0.55619742555E-01  0.51100000000E-03 0. -1.
</event>
<event>
 8    1  0.1177602E+005  0.1043930E+01  0.7957747E-01            NaN
         13   -1    0    0    0    0  0.00000000000E+00  0.00000000000E+00  0.74505805969E-08  0.10566000000E+00  0.10566000000E+00 0. -1.
     999900   -1    0    0    0    0 -0.00000000000E+00 -0.00000000000E+00 -0.74505805969E-08  0.93827000000E+00  0.93827000000E+00 0. -1.
     999902    2    1    2    0    0 -0.22183391878E-01 -0.46930506810E-02  0.56767541717E-02  0.10205558019E+01  0.10202880925E+01 0.  0.
     999903    2    3    3    0    0 -0.12029066909E+00  0.49567061264E-01 -0.19689480784E-01  0.13308036928E+00  0.19899005021E-01 0.  0.
         14    1    1    2    0    0  0.22183391878E-01  0.46930506810E-02 -0.56767541717E-02  0.23374198122E-01  0.00000000000E+00 0. -1.
     999901    1    3    3    0    0  0.98107277215E-01 -0.54260111946E-01  0.25366234956E-01  0.88747543260E+00  0.88000000000E+00 0.  1.
        -11    1    4    4    0    0 -0.80247762003E-01  0.26932449901E-01 -0.20411804626E-01  0.87074468435E-01  0.51100000000E-03 0. -1.
         11    1    4    4    0    0 -0.40042907090E-01  0.22634611363E-01  0.72232384193E-03  0.46005900844E-01  0.51100000000E-03 0.  1.
</event>
<event>
 8    1  0.1177602E+005  0.1043930E+01  0.7957747E-01            NaN
         13   -1    0    0    0    0  0.00000000000E+00  0.00000000000E+00  0.74505805969E-08  0.10566000000E+00  0.10566000000E+00 0.  1.
     999900   -1    0    0    0    0 -0.00000000000E+00 -0.00000000000E+00 -0.74505805969E-08  0.93827000000E+00  0.93827000000E+00 0.  1.
     999902    2    1    2    0    0  0.41315087438E-02  0.77069286310E-02  0.21006753995E-01  0.10211758833E+01  0.10209223451E+01 0.  0.
     999903    2    3    3    0    0  0.69864209885E-01 -0.52749528145E-01 -0.93047948411E-01  0.12933270969E+00  0.20137242885E-01 0.  0.
         14    1    1    2    0    0 -0.41315087438E-02 -0.77069286310E-02 -0.21006753995E-01  0.22754116700E-01  0.00000000000E+00 0. -1.
     999901    1    3    3    0    0 -0.65732701141E-01  0.60456456775E-01  0.11405470241E+00  0.89184317361E+00  0.88000000000E+00 0. -1.
        -11    1    4    4    0    0  0.45039878471E-01 -0.36766226286E-01 -0.74336073230E-01  0.94374037490E-01  0.51100000000E-03 0.  1.
         11    1    4    4    0    0  0.24824331415E-01 -0.15983301858E-01 -0.18711875181E-01  0.34958672204E-01  0.51100000000E-03 0. -1.
</event>
<event>
 8    1  0.1177602E+005  0.1043930E+01  0.7957747E-01            NaN
         13   -1    0    0    0    0  0.00000000000E+00  0.00000000000E+00  0.74505805969E-08  0.10566000000E+00  0.10566000000E+00 0.  1.
     999900   -1    0    0    0    0 -0.00000000000E+00 -0.00000000000E+00 -0.74505805969E-08  0.93827000000E+00  0.93827000000E+00 0. -1.
     999902    2    1    2    0    0 -0.35978536192E-02 -0.14644866423E-01  0.10154337657E-01  0.10257495920E+01  0.10255884643E+01 0.  0.
     999903    2    3    3    0    0 -0.12534564084E+00 -0.33683013865E-01  0.38826681407E-01  0.13670118043E+00  0.18265443882E-01 0.  0.
         14    1    1    2    0    0  0.35978536192E-02  0.14644866423E-01 -0.10154337657E-01  0.18180408039E-01  0.00000000000E+00 0. -1.
     999901    1    3    3    0    0  0.12174778722E+00  0.19038147443E-01 -0.28672343750E-01  0.88904841153E+00  0.88000000000E+00 0. -1.
        -11    1    4    4    0    0 -0.66165721891E-01 -0.22451100057E-01  0.29064822414E-01  0.75676810649E-01  0.51100000000E-03 0. -1.
         11    1    4    4    0    0 -0.59179918952E-01 -0.11231913808E-01  0.97618589925E-02  0.61024369780E-01  0.51100000000E-03 0.  1.
</event>
<event>
 8    1  0.1177602E+005  0.1043930E+01  0.7957747E-01            NaN
         13   -1    0    0    0    0  0.00000000000E+00  0.00000000000E+00  0.74505805969E-08  0.10566000000E+00  0.10566000000E+00 0.  1.
     999900   -1    0    0    0    0 -0.00000000000E+00 -0.00000000000E+00 -0.74505805969E-08  0.93827000000E+00  0.93827000000E+00 0.  1.
     999902    2    1    2    0    0  0.12123666669E-01 -0.20115466078E-01  0.36411270706E-02  0.10201629414E+01  0.10198860495E+01 0.  0.
     999903    2    3    3    0    0 -0.26191945954E-01  0.52689636979E-02  0.12629355036E+00  0.13046857117E+00  0.18926362318E-01 0.  0.
         14    1    1    2    0    0 -0.12123666669E-01  0.20115466078E-01 -0.36411270706E-02  0.23767058618E-01  0.00000000000E+00 0.  1.
     999901    1    3    3    0    0  0.38315612623E-01 -0.25384429776E-01 -0.12265242329E+00  0.88969437021E+00  0.88000000000E+00 0.  1.
        -11    1    4    4    0    0 -0.28318579678E-01  0.22969992891E-02  0.11829114104E+00  0.12165637399E+00  0.51100000000E-03 0.  1.
         11    1    4    4    0    0  0.21266337244E-02  0.29719644088E-02  0.80024093120E-02  0.88121971858E-02  0.51100000000E-03 0. -1.
</event>
<event>
 8    1  0.1177602E+005  0.1043930E+01  0.7957747E-01            NaN
         13   -1    0    0    0    0  0.00000000000E+00  0.00000000000E+00  0.74505805969E-08  0.10566000000E+00  0.10566000000E+00 0.  1.
     999900   -1    0    0    0    0 -0.00000000000E+00 -0.00000000000E+00 -0.74505805969E-08  0.93827000000E+00  0.93827000000E+00 0.  1.
     999902    2    1    2    0    0  0.14563312242E-01  0.13524581616E-01 -0.12587346899E-01  0.10204045739E+01  0.10201333485E+01 0.  0.
     999903    2    3    3    0    0  0.34364444269E-01 -0.18801802747E-01  0.12173170389E+00  0.12940587168E+00  0.19820420645E-01 0.  0.
         14    1    1    2    0    0 -0.14563312242E-01 -0.13524581616E-01  0.12587346899E-01  0.23525426103E-01  0.00000000000E+00 0.  1.
     999901    1    3    3    0    0 -0.19801132027E-01  0.32326384363E-01 -0.13431905079E+00  0.89099870222E+00  0.88000000000E+00 0.  1.
        -11    1    4    4    0    0  0.10194309144E-01 -0.10002259526E-01  0.20727161273E-01  0.25176287852E-01  0.51100000000E-03 0.  1.
         11    1    4    4    0    0  0.24170135125E-01 -0.87995432208E-02  0.10100454262E+00  0.10422958382E+00  0.51100000000E-03 0. -1.
</event>
<event>
 8    1  0.1177602E+005  0.1043930E+01  0.7957747E-01            NaN
         13   -1    0    0    0    0  0.00000000000E+00  0.00000000000E+00  0.74505805969E-08  0.10566000000E+00  0.10566000000E+00 0.  1.
     999900   -1    0    0    0    0 -0.00000000000E+00 -0.00000000000E+00 -0.74505805969E-08  0.93827000000E+00  0.93827000000E+00 0.  1.
     999902    2    1    2    0    0  0.11500986645E-01  0.21413713297E-01 -0.45648752733E-02  0.10191982816E+01  0.10188981692E+01 0.  0.
     999903    2    3    3    0    0  0.50848050865E-02  0.26279254820E-01 -0.12649012795E+00  0.13075548198E+00  0.19513818760E-01 0.  0.
         14    1    1    2    0    0 -0.11500986645E-01 -0.21413713297E-01  0.45648752733E-02  0.24731718445E-01  0.00000000000E+00 0.  1.
     999901    1    3    3    0    0  0.64161815584E-02 -0.48655415227E-02  0.12192525267E+00  0.88844279958E+00  0.88000000000E+00 0. -1.
        -11    1    4    4    0    0 -0.23181061127E-02  0.15069556753E-01 -0.98842097549E-01  0.10001243186E+00  0.51100000000E-03 0. -1.
         11    1    4    4    0    0  0.74029111991E-02  0.11209698067E-01 -0.27648030398E-01  0.30743050123E-01  0.51100000000E-03 0.  1.
</event>
<event>
 8    1  0.1177602E+005  0.1043930E+01  0.7957747E-01            NaN
         13   -1    0    0    0    0  0.00000000000E+00  0.00000000000E+00  0.74505805969E-08  0.10566000000E+00  0.10566000000E+00 0.  1.
     999900   -1    0    0    0    0 -0.00000000000E+00 -0.00000000000E+00 -0.74505805969E-08  0.93827000000E+00  0.93827000000E+00 0. -1.
     999902    2    1    2    0    0  0.14505050807E-01  0.16103549259E-01 -0.85763035961E-02  0.10206217658E+01  0.10203555827E+01 0.  0.
     999903    2    3    3    0    0  0.11137737755E+00  0.56893555774E-01  0.40691414359E-01  0.13299832068E+00  0.19772839525E-01 0.  0.
         14    1    1    2    0    0 -0.14505050807E-01 -0.16103549259E-01  0.85763035961E-02  0.23308234189E-01  0.00000000000E+00 0.  1.
     999901    1    3    3    0    0 -0.96872326739E-01 -0.40790006515E-01 -0.49267717955E-01  0.88762344513E+00  0.88000000000E+00 0. -1.
        -11    1    4    4    0    0  0.31501688709E-01  0.97484010702E-02  0.17740771669E-01  0.37448415392E-01  0.51100000000E-03 0.  1.
         11    1    4    4    0    0  0.79875688836E-01  0.47145154703E-01  0.22950642690E-01  0.95549905285E-01  0.51100000000E-03 0. -1.
</event>
<event>
 8    1  0.1209402E+005  0.1043930E+01  0.7957747E-01            NaN
         13   -1    0    0    0    0  0.00000000000E+00  0.00000000000E+00  0.74505805969E-08  0.10566000000E+00  0.10566000000E+00 0.  1.
     999900   -1    0    0    0    0 -0.00000000000E+00 -0.00000000000E+00 -0.74505805969E-08  0.93827000000E+00  0.93827000000E+00 0. -1.
     999902    2    1    2    0    0 -0.10126224769E-01 -0.50598359708E-02 -0.19733117044E-01  0.10211805324E+01  0.10209270990E+01 0.  0.
     999903    2    3    3    0    0 -0.18206665242E-01  0.43061633316E-01 -0.12360374177E+00  0.13372908245E+00  0.20488913855E-01 0.  0.
         14    1    1    2    0    0  0.10126224769E-01  0.50598359708E-02  0.19733117044E-01  0.22749467607E-01  0.00000000000E+00 0.  1.
     999901    1    3    3    0    0  0.80804404734E-02 -0.48121469287E-01  0.10387062472E+00  0.88745144994E+00  0.88000000000E+00 0.  1.
        -11    1    4    4    0    0 -0.72752179246E-02  0.10896471825E-01 -0.62058042425E-01  0.63428098227E-01  0.51100000000E-03 0. -1.
         11    1    4    4    0    0 -0.10931447317E-01  0.32165161491E-01 -0.61545699343E-01  0.70300984223E-01  0.51100000000E-03 0.  1.
</event>
<event>
 8    1  0.1177602E+005  0.1043930E+01  0.7957747E-01            NaN
         13   -1    0    0    0    0  0.00000000000E+00  0.00000000000E+00  0.74505805969E-08  0.10566000000E+00  0.10566000000E+00 0. -1.
     999900   -1    0    0    0    0 -0.00000000000E+00 -0.00000000000E+00 -0.74505805969E-08  0.93827000000E+00  0.93827000000E+00 0.  1.
     999902    2    1    2    0    0  0.27386011142E-01  0.67963907838E-03 -0.28719465194E-03  0.10165340515E+01  0.10161648192E+01 0.  0.
     999903    2    3    3    0    0  0.48231337199E-01 -0.44574782107E-01 -0.10871687066E+00  0.12848028907E+00  0.19355971340E-01 0.  0.
         14    1    1    2    0    0 -0.27386011142E-01 -0.67963907838E-03  0.28719465194E-03  0.27395948538E-01  0.00000000000E+00 0.  1.
     999901    1    3    3    0    0 -0.20845326058E-01  0.45254421186E-01  0.10842967601E+00  0.88805376239E+00  0.88000000000E+00 0. -1.
        -11    1    4    4    0    0  0.16572218718E-01 -0.19145784295E-01 -0.59539425558E-01  0.64702425042E-01  0.51100000000E-03 0. -1.
         11    1    4    4    0    0  0.31659118481E-01 -0.25428997813E-01 -0.49177445100E-01  0.63777864030E-01  0.51100000000E-03 0.  1.
</event>
<event>
 8    1  0.1177602E+005  0.1043930E+01  0.7957747E-01            NaN
         13   -1    0    0    0    0  0.00000000000E+00  0.00000000000E+00  0.74505805969E-08  0.10566000000E+00  0.10566000000E+00 0.  1.
     999900   -1    0    0    0    0 -0.00000000000E+00 -0.00000000000E+00 -0.74505805969E-08  0.93827000000E+00  0.93827000000E+00 0. -1.
     999902    2    1    2    0    0 -0.18742039596E-01 -0.28854785990E-02  0.15993086869E-01  0.10191233706E+01  0.10188214150E+01 0.  0.
     999903    2    3    3    0    0  0.11194568895E+00 -0.22437321331E-02 -0.55721026834E-01  0.12658619583E+00  0.19554041417E-01 0.  0.
         14    1    1    2    0    0  0.18742039596E-01  0.28854785990E-02 -0.15993086869E-01  0.24806629408E-01  0.00000000000E+00 0. -1.
     999901    1    3    3    0    0 -0.13068772854E+00 -0.64174646591E-03  0.71714113703E-01  0.89253717476E+00  0.88000000000E+00 0. -1.
        -11    1    4    4    0    0  0.62983251451E-01 -0.97081945508E-02 -0.26045712729E-01  0.68846054915E-01  0.51100000000E-03 0.  1.
         11    1    4    4    0    0  0.48962437494E-01  0.74644624177E-02 -0.29675314105E-01  0.57740140914E-01  0.51100000000E-03 0. -1.
</event>
<event>
 8    1  0.1177602E+005  0.1043930E+01  0.7957747E-01            NaN
         13   -1    0    0    0    0  0.00000000000E+00  0.00000000000E+00  0.74505805969E-08  0.10566000000E+00  0.10566000000E+00 0. -1.
     999900   -1    0    0    0    0 -0.00000000000E+00 -0.00000000000E+00 -0.74505805969E-08  0.93827000000E+00  0.93827000000E+00 0. -1.
     999902    2    1    2    0    0  0.11349298987E-01  0.22611893129E-01 -0.40042849170E-03  0.10186265488E+01  0.10183122219E+01 0.  0.
     999903    2    3    3    0    0 -0.68795743232E-01 -0.10339977007E+00  0.99555681452E-02  0.12598473168E+00  0.18672775410E-01 0.  0.
         14    1    1    2    0    0 -0.11349298987E-01 -0.22611893129E-01  0.40042849170E-03  0.25303451175E-01  0.00000000000E+00 0.  1.
     999901    1    3    3    0    0  0.80145042219E-01  0.12601166320E+00 -0.10355996637E-01  0.89264181715E+00  0.88000000000E+00 0.  1.
        -11    1    4    4    0    0 -0.33068547345E-01 -0.64490375389E-01  0.99666647943E-02  0.73158272734E-01  0.51100000000E-03 0.  1.
         11    1    4    4    0    0 -0.35727195888E-01 -0.38909394680E-01 -0.11096649071E-04  0.52826458944E-01  0.51100000000E-03 0. -1.
</event>
<event>
 8    1  0.1177602E+005  0.1043930E+01  0.7957747E-01            NaN
         13   -1    0    0    0    0  0.00000000000E+00  0.00000000000E+00  0.74505805969E-08  0.10566000000E+00  0.10566000000E+00 0.  1.
     999900   -1    0    0    0    0 -0.00000000000E+00 -0.00000000000E+00 -0.74505805969E-08  0.93827000000E+00  0.93827000000E+00 0. -1.
     999902    2    1    2    0    0 -0.43239037272E-02  0.26210395316E-02  0.22836211430E-01  0.10205407173E+01  0.10202726582E+01 0.  0.
     999903    2    3    3    0    0  0.52180267830E-01 -0.11773503025E+00  0.11397485212E-02  0.13028848260E+00  0.19735044259E-01 0.  0.
         14    1    1    2    0    0  0.43239037272E-02 -0.26210395316E-02 -0.22836211430E-01  0.23389282677E-01  0.00000000000E+00 0. -1.
     999901    1    3    3    0    0 -0.56504171557E-01  0.12035606978E+00  0.21696462908E-01  0.89025223473E+00  0.88000000000E+00 0. -1.
        -11    1    4    4    0    0  0.43546100280E-01 -0.76324873072E-01  0.32156382732E-02  0.87933785030E-01  0.51100000000E-03 0. -1.
         11    1    4    4    0    0  0.86341675497E-02 -0.41410157176E-01 -0.20758897520E-02  0.42354697566E-01  0.51100000000E-03 0.  1.
</event>
<event>
 8    1  0.1177602E+005  0.1043930E+01  0.7957747E-01            NaN
         13   -1    0    0    0    0  0.00000000000E+00  0.00000000000E+00  0.74505805969E-08  0.10566000000E+00  0.10566000000E+00 0.  1.
     999900   -1    0    0    0    0 -0.00000000000E+00 -0.00000000000E+00 -0.74505805969E-08  0.93827000000E+00  0.93827000000E+00 0.  1.
     999902    2    1    2    0    0  0.60869117120E-03  0.16962862437E-01  0.15101088640E-01  0.10212110193E+01  0.10209582723E+01 0.  0.
     999903    2    3    3    0    0 -0.36212251544E-01 -0.11789615443E+00  0.34062904224E-01  0.12997463834E+00  0.22853769434E-01 0.  0.
         14    1    1    2    0    0 -0.60869117120E-03 -0.16962862437E-01 -0.15101088640E-01  0.22718980724E-01  0.00000000000E+00 0. -1.
     999901    1    3    3    0    0  0.36820942715E-01  0.13485901686E+00 -0.18961815584E-01  0.89123638094E+00  0.88000000000E+00 0.  1.
        -11    1    4    4    0    0 -0.68753160232E-02 -0.44572872200E-01  0.21646721394E-01  0.50028517615E-01  0.51100000000E-03 0.  1.
         11    1    4    4    0    0 -0.29336935521E-01 -0.73323282226E-01  0.12416182830E-01  0.79946120726E-01  0.51100000000E-03 0. -1.
</event>
<event>
 8    1  0.1177602E+005  0.1043930E+01  0.7957747E-01            NaN
         13   -1    0    0    0    0  0.00000000000E+00  0.00000000000E+00  0.74505805969E-08  0.10566000000E+00  0.10566000000E+00 0. -1.
     999900   -1    0    0    0    0 -0.00000000000E+00 -0.00000000000E+00 -0.74505805969E-08  0.93827000000E+00  0.93827000000E+00 0.  1.
     999902    2    1    2    0    0 -0.20688724244E-01 -0.10148887972E-01  0.16915138743E-03  0.10208854377E+01  0.10206253108E+01 0.  0.
     999903    2    3    3    0    0 -0.66130502216E-01  0.10132319877E+00  0.47565812968E-01  0.13142637469E+00  0.19254907630E-01 0.  0.
         14    1    1    2    0    0  0.20688724244E-01  0.10148887972E-01 -0.16915138743E-03  0.23044562268E-01  0.00000000000E+00 0.  1.
     999901    1    3    3    0    0  0.45441777972E-01 -0.11147208674E+00 -0.47396661581E-01  0.88945906305E+00  0.88000000000E+00 0. -1.
        -11    1    4    4    0    0 -0.54364798432E-01  0.74987914395E-01  0.28742567764E-01  0.96979971832E-01  0.51100000000E-03 0.  1.
         11    1    4    4    0    0 -0.11765703783E-01  0.26335284372E-01  0.18823245205E-01  0.34446402853E-01  0.51100000000E-03 0. -1.
</event>
<event>
 8    1  0.1177602E+005  0.1043930E+01  0.7957747E-01            NaN
         13   -1    0    0    0    0  0.00000000000E+00  0.00000000000E+00  0.74505805969E-08  0.10566000000E+00  0.10566000000E+00 0.  1.
     999900   -1    0    0    0    0 -0.00000000000E+00 -0.00000000000E+00 -0.74505805969E-08  0.93827000000E+00  0.93827000000E+00 0. -1.
     999902    2    1    2    0    0 -0.15183931930E-01 -0.25022076859E-01 -0.22555462335E-01  0.10069786130E+01  0.10063004134E+01 0.  0.
     999903    2    3    3    0    0 -0.88099543013E-02  0.10889830593E+00  0.31105470780E-01  0.11520801905E+00  0.19206275284E-01 0.  0.
         14    1    1    2    0    0  0.15183931930E-01  0.25022076859E-01  0.22555462335E-01  0.36951386988E-01  0.00000000000E+00 0.  1.
     999901    1    3    3    0    0 -0.63739776284E-02 -0.13392038279E+00 -0.53660933115E-01  0.89177059397E+00  0.88000000000E+00 0. -1.
        -11    1    4    4    0    0  0.57540353290E-02  0.19714786844E-01  0.49273495144E-02  0.21126325689E-01  0.51100000000E-03 0.  1.
         11    1    4    4    0    0 -0.14563989630E-01  0.89183519089E-01  0.26178121266E-01  0.94081693358E-01  0.51100000000E-03 0. -1.
</event>
<event>
 8    1  0.1177602E+005  0.1043930E+01  0.7957747E-01            NaN
         13   -1    0    0    0    0  0.00000000000E+00  0.00000000000E+00  0.74505805969E-08  0.10566000000E+00  0.10566000000E+00 0.  1.
     999900   -1    0    0    0    0 -0.00000000000E+00 -0.00000000000E+00 -0.74505805969E-08  0.93827000000E+00  0.93827000000E+00 0.  1.
     999902    2    1    2    0    0 -0.22474933950E-01  0.35599872706E-03 -0.73123263157E-02  0.10202927517E+01  0.10200189114E+01 0.  0.
     999903    2    3    3    0    0  0.70764715562E-01  0.88944513075E-01  0.55965098766E-01  0.12869553903E+00  0.22620303077E-01 0.  0.
         14    1    1    2    0    0  0.22474933950E-01 -0.35599872706E-03  0.73123263157E-02  0.23637248302E-01  0.00000000000E+00 0.  1.
     999901    1    3    3    0    0 -0.93239649512E-01 -0.88588514348E-01 -0.63277425082E-01  0.89159721267E+00  0.88000000000E+00 0.  1.
        -11    1    4    4    0    0  0.44124764889E-01  0.48994918772E-01  0.20675833998E-01  0.69103170510E-01  0.51100000000E-03 0. -1.
         11    1    4    4    0    0  0.26639950672E-01  0.39949594302E-01  0.35289264768E-01  0.59592368518E-01  0.51100000000E-03 0.  1.
</event>
<event>
 8    1  0.1177602E+005  0.1043930E+01  0.7957747E-01            NaN
         13   -1    0    0    0    0  0.00000000000E+00  0.00000000000E+00  0.74505805969E-08  0.10566000000E+00  0.10566000000E+00 0.  1.
     999900   -1    0    0    0    0 -0.00000000000E+00 -0.00000000000E+00 -0.74505805969E-08  0.93827000000E+00  0.93827000000E+00 0.  1.
     999902    2    1    2    0    0 -0.55224129459E-02 -0.21613426443E-01  0.92169111723E-02  0.10197931257E+01  0.10195074451E+01 0.  0.
     999903    2    3    3    0    0 -0.51020774596E-01  0.16728463572E-01  0.11803842303E+00  0.13109614539E+00  0.19239778900E-01 0.  0.
         14    1    1    2    0    0  0.55224129459E-02  0.21613426443E-01 -0.92169111723E-02  0.24136874257E-01  0.00000000000E+00 0.  1.
     999901    1    3    3    0    0  0.45498361650E-01 -0.38341890015E-01 -0.10882151185E+00  0.88869698035E+00  0.88000000000E+00 0.  1.
        -11    1    4    4    0    0 -0.19791705743E-01  0.12150859364E-01  0.68723463624E-01  0.72543301366E-01  0.51100000000E-03 0. -1.
         11    1    4    4    0    0 -0.31229068853E-01  0.45776042083E-02  0.49314959402E-01  0.58552844026E-01  0.51100000000E-03 0.  1.
</event>
<event>
 8    1  0.1177602E+005  0.1043930E+01  0.7957747E-01            NaN
         13   -1    0    0    0    0  0.00000000000E+00  0.00000000000E+00  0.74505805969E-08  0.10566000000E+00  0.10566000000E+00 0. -1.
     999900   -1    0    0    0    0 -0.00000000000E+00 -0.00000000000E+00 -0.74505805969E-08  0.93827000000E+00  0.93827000000E+00 0. -1.
     999902    2    1    2    0    0 -0.43601254040E-02  0.39165718373E-02  0.25835182357E-01  0.10174383622E+01  0.10170934145E+01 0.  0.
     999903    2    3    3    0    0  0.56821761364E-01 -0.37038947658E-01 -0.10288174455E+00  0.12503227459E+00  0.21161760758E-01 0.  0.
         14    1    1    2    0    0  0.43601254040E-02 -0.39165718373E-02 -0.25835182357E-01  0.26491637849E-01  0.00000000000E+00 0.  1.
     999901    1    3    3    0    0 -0.61181886768E-01  0.40955519495E-01  0.12871692691E+00  0.89240608756E+00  0.88000000000E+00 0.  1.
        -11    1    4    4    0    0  0.25566615549E-01 -0.11740108715E-01 -0.59852243288E-01  0.66136481090E-01  0.51100000000E-03 0.  1.
         11    1    4    4    0    0  0.31255145815E-01 -0.25298838943E-01 -0.43029501265E-01  0.58895793499E-01  0.51100000000E-03 0. -1.
</event>
<event>
 8    1  0.1177602E+005  0.1043930E+01  0.7957747E-01            NaN
         13   -1    0    0    0    0  0.00000000000E+00  0.00000000000E+00  0.74505805969E-08  0.10566000000E+00  0.10566000000E+00 0.  1.
     999900   -1    0    0    0    0 -0.00000000000E+00 -0.00000000000E+00 -0.74505805969E-08  0.93827000000E+00  0.93827000000E+00 0.  1.
     999902    2    1    2    0    0  0.24289651447E-01 -0.14232694869E-02  0.99326626779E-02  0.10176493864E+01  0.10173099837E+01 0.  0.
     999903    2    3    3    0    0  0.25261185539E-01 -0.11643898455E+00 -0.44655204192E-01  0.12848719996E+00  0.17852413638E-01 0.  0.
         14    1    1    2    0    0 -0.24289651447E-01  0.14232694869E-02 -0.99326626779E-02  0.26280613602E-01  0.00000000000E+00 0. -1.
     999901    1    3    3    0    0 -0.97153409254E-03  0.11501571506E+00  0.54587866870E-01  0.88916218644E+00  0.88000000000E+00 0.  1.
        -11    1    4    4    0    0  0.93815328725E-02 -0.16036841574E-01 -0.98989014348E-02  0.21058081995E-01  0.51100000000E-03 0. -1.
         11    1    4    4    0    0  0.15879652667E-01 -0.10040214298E+00 -0.34756302758E-01  0.10742911796E+00  0.51100000000E-03 0.  1.
</event>
<event>
 8    1  0.1177602E+005  0.1043930E+01  0.7957747E-01            NaN
         13   -1    0    0    0    0  0.00000000000E+00  0.00000000000E+00  0.74505805969E-08  0.10566000000E+00  0.10566000000E+00 0.  1.
     999900   -1    0    0    0    0 -0.00000000000E+00 -0.00000000000E+00 -0.74505805969E-08  0.93827000000E+00  0.93827000000E+00 0. -1.
     999902    2    1    2    0    0 -0.80888454163E-02  0.72790983979E-02 -0.17180939986E-01  0.10235928568E+01  0.10233908037E+01 0.  0.
     999903    2    3    3    0    0  0.39759864738E-01 -0.51295131667E-01 -0.11655953057E+00  0.13477535939E+00  0.19137292214E-01 0.  0.
         14    1    1    2    0    0  0.80888454163E-02 -0.72790983979E-02  0.17180939986E-01  0.20337143173E-01  0.00000000000E+00 0.  1.
     999901    1    3    3    0    0 -0.47848710154E-01  0.58574230065E-01  0.99378590588E-01  0.88881749744E+00  0.88000000000E+00 0.  1.
        -11    1    4    4    0    0  0.30240039524E-01 -0.49428170059E-01 -0.10010844192E+00  0.11567007067E+00  0.51100000000E-03 0. -1.
         11    1    4    4    0    0  0.95198252137E-02 -0.18669616077E-02 -0.16451088656E-01  0.19105288710E-01  0.51100000000E-03 0.  1.
</event>
<event>
 8    1  0.1177602E+005  0.1043930E+01  0.7957747E-01            NaN
         13   -1    0    0    0    0  0.00000000000E+00  0.00000000000E+00  0.74505805969E-08  0.10566000000E+00  0.10566000000E+00 0.  1.
     999900   -1    0    0    0    0 -0.00000000000E+00 -0.00000000000E+00 -0.74505805969E-08  0.93827000000E+00  0.93827000000E+00 0.  1.
     999902    2    1    2    0    0  0.18180627847E-01  0.89664486533E-02  0.12267403423E-01  0.10202356628E+01  0.10199604825E+01 0.  0.
     999903    2    3    3    0    0 -0.21634236814E-02  0.11511907975E+00  0.62560191835E-01  0.13219758583E+00  0.17474014219E-01 0.  0.
         14    1    1    2    0    0 -0.18180627847E-01 -0.89664486533E-02 -0.12267403423E-01  0.23694337237E-01  0.00000000000E+00 0.  1.
     999901    1    3    3    0    0  0.20344051529E-01 -0.10615263109E+00 -0.50292788412E-01  0.88803807694E+00  0.88000000000E+00 0.  1.
        -11    1    4    4    0    0  0.80079284453E-03  0.79607938418E-01  0.34184222035E-01  0.86642295015E-01  0.51100000000E-03 0.  1.
         11    1    4    4    0    0 -0.29642165260E-02  0.35511141327E-01  0.28375969800E-01  0.45555290813E-01  0.51100000000E-03 0. -1.
</event>
<event>
 8    1  0.1177602E+005  0.1043930E+01  0.7957747E-01            NaN
         13   -1    0    0    0    0  0.00000000000E+00  0.00000000000E+00  0.74505805969E-08  0.10566000000E+00  0.10566000000E+00 0. -1.
     999900   -1    0    0    0    0 -0.00000000000E+00 -0.00000000000E+00 -0.74505805969E-08  0.93827000000E+00  0.93827000000E+00 0. -1.
     999902    2    1    2    0    0 -0.50471031122E-02  0.11914343442E-01  0.23488428208E-01  0.10171133804E+01  0.10167598032E+01 0.  0.
     999903    2    3    3    0    0  0.10359213940E+00  0.51605923245E-01  0.53425921693E-01  0.12904009507E+00  0.20062760733E-01 0.  0.
         14    1    1    2    0    0  0.50471031122E-02 -0.11914343442E-01 -0.23488428208E-01  0.26816619645E-01  0.00000000000E+00 0.  1.
     999901    1    3    3    0    0 -0.10863924251E+00 -0.39691579803E-01 -0.29937493485E-01  0.88807328528E+00  0.88000000000E+00 0.  1.
        -11    1    4    4    0    0  0.59687128300E-01  0.25845603789E-01  0.40121431757E-01  0.76423418708E-01  0.51100000000E-03 0. -1.
         11    1    4    4    0    0  0.43905011097E-01  0.25760319456E-01  0.13304489937E-01  0.52616676362E-01  0.51100000000E-03 0.  1.
</event>
<event>
 8    1  0.1177602E+005  0.1043930E+01  0.7957747E-01            NaN
         13   -1    0    0    0    0  0.00000000000E+00  0.00000000000E+00  0.74505805969E-08  0.10566000000E+00  0.10566000000E+00 0. -1.
     999900   -1    0    0    0    0 -0.00000000000E+00 -0.00000000000E+00 -0.74505805969E-08  0.93827000000E+00  0.93827000000E+00 0. -1.
     999902    2    1    2    0    0 -0.74299009727E-02 -0.21475240945E-01 -0.16276509949E-02  0.10211475802E+01  0.10208934038E+01 0.  0.
     999903    2    3    3    0    0  0.82341101357E-01 -0.84845949583E-01  0.56019660261E-01  0.13244184038E+00  0.20585106616E-01 0.  0.
         14    1    1    2    0    0  0.74299009727E-02  0.21475240945E-01  0.16276509949E-02  0.22782419755E-01  0.00000000000E+00 0. -1.
     999901    1    3    3    0    0 -0.89771002330E-01  0.63370708638E-01 -0.57647311256E-01  0.88870573986E+00  0.88000000000E+00 0.  1.
        -11    1    4    4    0    0  0.73322351399E-01 -0.71938161668E-01  0.40770456991E-01  0.11051587037E+00  0.51100000000E-03 0.  1.
         11    1    4    4    0    0  0.90187499584E-02 -0.12907787915E-01  0.15249203270E-01  0.21925970014E-01  0.51100000000E-03 0. -1.
</event>
<event>
 8    1  0.1177602E+005  0.1043930E+01  0.7957747E-01            NaN
         13   -1    0    0    0    0  0.00000000000E+00  0.00000000000E+00  0.74505805969E-08  0.10566000000E+00  0.10566000000E+00 0. -1.
     999900   -1    0    0    0    0 -0.00000000000E+00 -0.00000000000E+00 -0.74505805969E-08  0.93827000000E+00  0.93827000000E+00 0.  1.
     999902    2    1    2    0    0  0.30563708284E-03  0.19855524664E-02 -0.24231890926E-01  0.10196149764E+01  0.10193250119E+01 0.  0.
     999903    2    3    3    0    0 -0.68722021298E-01 -0.97737617414E-01  0.43543497340E-01  0.12871485214E+00  0.19902736790E-01 0.  0.
         14    1    1    2    0    0 -0.30563708284E-03 -0.19855524664E-02  0.24231890926E-01  0.24315023555E-01  0.00000000000E+00 0. -1.
     999901    1    3    3    0    0  0.69027658381E-01  0.99723169880E-01 -0.67775388266E-01  0.89090012431E+00  0.88000000000E+00 0.  1.
        -11    1    4    4    0    0 -0.88922237085E-02 -0.24063182904E-01  0.14443138407E-01  0.29444418520E-01  0.51100000000E-03 0.  1.
         11    1    4    4    0    0 -0.59829797590E-01 -0.73674434510E-01  0.29100358933E-01  0.99270433620E-01  0.51100000000E-03 0. -1.
</event>
<event>
 8    1  0.1177602E+005  0.1043930E+01  0.7957747E-01            NaN
         13   -1    0    0    0    0  0.00000000000E+00  0.00000000000E+00  0.74505805969E-08  0.10566000000E+00  0.10566000000E+00 0. -1.
     999900   -1    0    0    0    0 -0.00000000000E+00 -0.00000000000E+00 -0.74505805969E-08  0.93827000000E+00  0.93827000000E+00 0.  1.
     999902    2    1    2    0    0 -0.23603800024E-01 -0.22719467882E-02 -0.60255046910E-02  0.10194635367E+01  0.10191699048E+01 0.  0.
     999903    2    3    3    0    0  0.22296229209E-01  0.12512750736E+00 -0.63690722679E-02  0.12910543370E+00  0.21763110866E-01 0.  0.
         14    1    1    2    0    0  0.23603800024E-01  0.22719467882E-02  0.60255046910E-02  0.24466463262E-01  0.00000000000E+00 0. -1.
     999901    1    3    3    0    0 -0.45900029232E-01 -0.12739945415E+00  0.34356757687E-03  0.89035810303E+00  0.88000000000E+00 0. -1.
        -11    1    4    4    0    0  0.24016367462E-01  0.74797036804E-01 -0.51451139338E-02  0.78728114032E-01  0.51100000000E-03 0. -1.
         11    1    4    4    0    0 -0.17201382530E-02  0.50330470558E-01 -0.12239583340E-02  0.50377319671E-01  0.51100000000E-03 0.  1.
</event>
<event>
 8    1  0.1177602E+005  0.1043930E+01  0.7957747E-01            NaN
         13   -1    0    0    0    0  0.00000000000E+00  0.00000000000E+00  0.74505805969E-08  0.10566000000E+00  0.10566000000E+00 0.  1.
     999900   -1    0    0    0    0 -0.00000000000E+00 -0.00000000000E+00 -0.74505805969E-08  0.93827000000E+00  0.93827000000E+00 0.  1.
     999902    2    1    2    0    0  0.21790382405E-01 -0.67411939073E-03  0.87870511985E-02  0.10204249480E+01  0.10201541976E+01 0.  0.
     999903    2    3    3    0    0 -0.32048694895E-02 -0.12726137397E+00 -0.19559710496E-01  0.13056392818E+00  0.21415615184E-01 0.  0.
         14    1    1    2    0    0 -0.21790382405E-01  0.67411939073E-03 -0.87870511985E-02  0.23505052033E-01  0.00000000000E+00 0. -1.
     999901    1    3    3    0    0  0.24995251894E-01  0.12658725458E+00  0.28346761694E-01  0.88986101979E+00  0.88000000000E+00 0.  1.
        -11    1    4    4    0    0 -0.43078099463E-02 -0.99920503243E-01 -0.23959958506E-01  0.10284456683E+00  0.51100000000E-03 0. -1.
         11    1    4    4    0    0  0.11029404568E-02 -0.27340870727E-01  0.44002480110E-02  0.27719361344E-01  0.51100000000E-03 0.  1.
</event>
<event>
 8    1  0.1177602E+005  0.1043930E+01  0.7957747E-01            NaN
         13   -1    0    0    0    0  0.00000000000E+00  0.00000000000E+00  0.74505805969E-08  0.10566000000E+00  0.10566000000E+00 0.  1.
     999900   -1    0    0    0    0 -0.00000000000E+00 -0.00000000000E+00 -0.74505805969E-08  0.93827000000E+00  0.93827000000E+00 0.  1.
     999902    2    1    2    0    0  0.22331572030E-01 -0.83267295444E-02 -0.60855974838E-02  0.10193318694E+01  0.10190350298E+01 0.  0.
     999903    2    3    3    0    0 -0.26736350452E-01 -0.53361252319E-01  0.11119225678E+00  0.12905670720E+00  0.27012219837E-01 0.  0.
         14    1    1    2    0    0 -0.22331572030E-01  0.83267295444E-02  0.60855974838E-02  0.24598130640E-01  0.00000000000E+00 0.  1.
     999901    1    3    3    0    0  0.49067922482E-01  0.45034522775E-01 -0.11727785427E+00  0.89027516216E+00  0.88000000000E+00 0.  1.
        -11    1    4    4    0    0 -0.29989063680E-02 -0.35867716779E-01  0.59352218586E-01  0.69414937286E-01  0.51100000000E-03 0.  1.
         11    1    4    4    0    0 -0.23737444084E-01 -0.17493535541E-01  0.51840038195E-01  0.59641769914E-01  0.51100000000E-03 0. -1.
</event>
<event>
 8    1  0.1177602E+005  0.1043930E+01  0.7957747E-01            NaN
         13   -1    0    0    0    0  0.00000000000E+00  0.00000000000E+00  0.74505805969E-08  0.10566000000E+00  0.10566000000E+00 0.  1.
     999900   -1    0    0    0    0 -0.00000000000E+00 -0.00000000000E+00 -0.74505805969E-08  0.93827000000E+00  0.93827000000E+00 0. -1.
     999902    2    1    2    0    0 -0.16175718074E-01 -0.13168876533E-01  0.65422811369E-02  0.10220696568E+01  0.10218358521E+01 0.  0.
     999903    2    3    3    0    0  0.16241925849E-01 -0.17411014848E-01  0.12925145734E+00  0.13295411798E+00  0.20097628456E-01 0.  0.
         14    1    1    2    0    0  0.16175718074E-01  0.13168876533E-01 -0.65422811369E-02  0.21860343246E-01  0.00000000000E+00 0.  1.
     999901    1    3    3    0    0 -0.32417643923E-01  0.42421383147E-02 -0.12270917620E+00  0.88911553878E+00  0.88000000000E+00 0. -1.
        -11    1    4    4    0    0  0.16508806386E-01 -0.20852675107E-01  0.99348680368E-01  0.10284841350E+00  0.51100000000E-03 0. -1.
         11    1    4    4    0    0 -0.26688053683E-03  0.34416602590E-02  0.29902776968E-01  0.30105704476E-01  0.51100000000E-03 0.  1.
</event>
<event>
 8    1  0.1177602E+005  0.1043930E+01  0.7957747E-01            NaN
         13   -1    0    0    0    0  0.00000000000E+00  0.00000000000E+00  0.74505805969E-08  0.10566000000E+00  0.10566000000E+00 0.  1.
     999900   -1    0    0    0    0 -0.00000000000E+00 -0.00000000000E+00 -0.74505805969E-08  0.93827000000E+00  0.93827000000E+00 0.  1.
     999902    2    1    2    0    0 -0.68626308960E-02  0.16821820232E-01  0.13422058367E-01  0.10213419282E+01  0.10210921179E+01 0.  0.
     999903    2    3    3    0    0  0.59624906132E-01 -0.80968081709E-01  0.81426606637E-01  0.13083191918E+00  0.19383991375E-01 0.  0.
         14    1    1    2    0    0  0.68626308960E-02 -0.16821820232E-01 -0.13422058367E-01  0.22588071842E-01  0.00000000000E+00 0. -1.
     999901    1    3    3    0    0 -0.66487537028E-01  0.97789901941E-01 -0.68004548270E-01  0.89051000898E+00  0.88000000000E+00 0.  1.
        -11    1    4    4    0    0  0.20984570757E-01 -0.16471903604E-01  0.15646406307E-01  0.30931326669E-01  0.51100000000E-03 0.  1.
         11    1    4    4    0    0  0.38640335375E-01 -0.64496178105E-01  0.65780200330E-01  0.99900592513E-01  0.51100000000E-03 0. -1.
</event>
<event>
 8    1  0.1177602E+005  0.1043930E+01  0.7957747E-01            NaN
         13   -1    0    0    0    0  0.00000000000E+00  0.00000000000E+00  0.74505805969E-08  0.10566000000E+00  0.10566000000E+00 0.  1.
     999900   -1    0    0    0    0 -0.00000000000E+00 -0.00000000000E+00 -0.74505805969E-08  0.93827000000E+00  0.93827000000E+00 0.  1.
     999902    2    1    2    0    0 -0.22427327490E-02  0.41316291653E-02  0.22649786862E-01  0.10207974892E+01  0.10205353502E+01 0.  0.
     999903    2    3    3    0    0 -0.11038514587E+00 -0.30279432403E-01 -0.58088567440E-01  0.12984430049E+00  0.19584081449E-01 0.  0.
         14    1    1    2    0    0  0.22427327490E-02 -0.41316291653E-02 -0.22649786862E-01  0.23132510772E-01  0.00000000000E+00 0. -1.
     999901    1    3    3    0    0  0.10814241312E+00  0.34411061568E-01  0.80738354302E-01  0.89095318874E+00  0.88000000000E+00 0.  1.
        -11    1    4    4    0    0 -0.31743612024E-01 -0.10321763045E-01 -0.74564733045E-02  0.34206078580E-01  0.51100000000E-03 0.  1.
         11    1    4    4    0    0 -0.78641533845E-01 -0.19957669358E-01 -0.50632094136E-01  0.95638221905E-01  0.51100000000E-03 0. -1.
</event>
<event>
 8    1  0.1177602E+005  0.1043930E+01  0.7957747E-01            NaN
         13   -1    0    0    0    0  0.00000000000E+00  0.00000000000E+00  0.74505805969E-08  0.10566000000E+00  0.10566000000E+00 0.  1.
     999900   -1    0    0    0    0 -0.00000000000E+00 -0.00000000000E+00 -0.74505805969E-08  0.93827000000E+00  0.93827000000E+00 0. -1.
     999902    2    1    2    0    0 -0.21052744614E-01  0.12594831318E-01  0.12455474289E-02  0.10193658143E+01  0.10190698034E+01 0.  0.
     999903    2    3    3    0    0 -0.25730158485E-02 -0.12530095277E+00 -0.17386614162E-01  0.12824073603E+00  0.20891214620E-01 0.  0.
         14    1    1    2    0    0  0.21052744614E-01 -0.12594831318E-01 -0.12455474289E-02  0.24564185721E-01  0.00000000000E+00 0.  1.
     999901    1    3    3    0    0 -0.18479728765E-01  0.13789578409E+00  0.18632161591E-01  0.89112507825E+00  0.88000000000E+00 0.  1.
        -11    1    4    4    0    0 -0.60019965322E-04 -0.10839519953E+00 -0.21832099703E-01  0.11057316393E+00  0.51100000000E-03 0. -1.
         11    1    4    4    0    0 -0.25129958832E-02 -0.16905753242E-01  0.44454855410E-02  0.17667572094E-01  0.51100000000E-03 0.  1.
</event>
<event>
 8    1  0.1177602E+005  0.1043930E+01  0.7957747E-01            NaN
         13   -1    0    0    0    0  0.00000000000E+00  0.00000000000E+00  0.74505805969E-08  0.10566000000E+00  0.10566000000E+00 0. -1.
     999900   -1    0    0    0    0 -0.00000000000E+00 -0.00000000000E+00 -0.74505805969E-08  0.93827000000E+00  0.93827000000E+00 0. -1.
     999902    2    1    2    0    0 -0.16097194148E-01  0.15555975712E-01  0.66005636711E-02  0.10205917164E+01  0.10203248385E+01 0.  0.
     999903    2    3    3    0    0 -0.81937792691E-02  0.69419098869E-01  0.11179313116E+00  0.13265637178E+00  0.14623935627E-01 0.  0.
         14    1    1    2    0    0  0.16097194148E-01 -0.15555975712E-01 -0.66005636711E-02  0.23338283582E-01  0.00000000000E+00 0. -1.
     999901    1    3    3    0    0 -0.79034148787E-02 -0.53863123157E-01 -0.10519256749E+00  0.88793534464E+00  0.88000000000E+00 0. -1.
        -11    1    4    4    0    0 -0.68691337373E-02  0.33297530478E-01  0.66656311357E-01  0.74828039524E-01  0.51100000000E-03 0. -1.
         11    1    4    4    0    0 -0.13246455318E-02  0.36121568391E-01  0.45136819801E-01  0.57828332257E-01  0.51100000000E-03 0.  1.
</event>
<event>
 8    1  0.1177602E+005  0.1043930E+01  0.7957747E-01            NaN
         13   -1    0    0    0    0  0.00000000000E+00  0.00000000000E+00  0.74505805969E-08  0.10566000000E+00  0.10566000000E+00 0.  1.
     999900   -1    0    0    0    0 -0.00000000000E+00 -0.00000000000E+00 -0.74505805969E-08  0.93827000000E+00  0.93827000000E+00 0.  1.
     999902    2    1    2    0    0 -0.21014490843E-01  0.77435224544E-02 -0.81768045912E-02  0.10200882069E+01  0.10198095502E+01 0.  0.
     999903    2    3    3    0    0 -0.10851140275E+00 -0.18443536335E-01 -0.72116552943E-01  0.13305395554E+00  0.19689319871E-01 0.  0.
         14    1    1    2    0    0  0.21014490843E-01 -0.77435224544E-02  0.81768045912E-02  0.23841793110E-01  0.00000000000E+00 0. -1.
     999901    1    3    3    0    0  0.87496911912E-01  0.26187058789E-01  0.63939748352E-01  0.88703425135E+00  0.88000000000E+00 0. -1.
        -11    1    4    4    0    0 -0.31087618870E-01  0.34118068736E-02 -0.17878260238E-01  0.36027403227E-01  0.51100000000E-03 0. -1.
         11    1    4    4    0    0 -0.77423783884E-01 -0.21855343209E-01 -0.54238292705E-01  0.97026552316E-01  0.51100000000E-03 0.  1.
</event>
<event>
 8    1  0.1177602E+005  0.1043930E+01  0.7957747E-01            NaN
         13   -1    0    0    0    0  0.00000000000E+00  0.00000000000E+00  0.74505805969E-08  0.10566000000E+00  0.10566000000E+00 0. -1.
     999900   -1    0    0    0    0 -0.00000000000E+00 -0.00000000000E+00 -0.74505805969E-08  0.93827000000E+00  0.93827000000E+00 0.  1.
     999902    2    1    2    0    0  0.14003417999E-01  0.14192383760E-01  0.11772039919E-01  0.10207761581E+01  0.10205135298E+01 0.  0.
     999903    2    3    3    0    0 -0.10793452129E+00 -0.42957048787E-01  0.53631217571E-01  0.12954829190E+00  0.20280125990E-01 0.  0.
         14    1    1    2    0    0 -0.14003417999E-01 -0.14192383760E-01 -0.11772039919E-01  0.23153841934E-01  0.00000000000E+00 0.  1.
     999901    1    3    3    0    0  0.12193793929E+00  0.57149432547E-01 -0.41859177651E-01  0.89122786617E+00  0.88000000000E+00 0.  1.
        -11    1    4    4    0    0 -0.50537821365E-01 -0.11165066556E-01  0.29892244229E-01  0.59770707588E-01  0.51100000000E-03 0.  1.
         11    1    4    4    0    0 -0.57396699922E-01 -0.31791982231E-01  0.23738973341E-01  0.69777584312E-01  0.51100000000E-03 0. -1.
</event>
<event>
 8    1  0.1177602E+005  0.1043930E+01  0.7957747E-01            NaN
         13   -1    0    0    0    0  0.00000000000E+00  0.00000000000E+00  0.74505805969E-08  0.10566000000E+00  0.10566000000E+00 0.  1.
     999900   -1    0    0    0    0 -0.00000000000E+00 -0.00000000000E+00 -0.74505805969E-08  0.93827000000E+00  0.93827000000E+00 0. -1.
     999902    2    1    2    0    0 -0.37242468848E-02 -0.11770283895E-01  0.21394388923E-01  0.10192292009E+01  0.10189298477E+01 0.  0.
     999903    2    3    3    0    0  0.23947082817E-01  0.10069065400E+00  0.75931904893E-01  0.12996686297E+00  0.20338650695E-01 0.  0.
         14    1    1    2    0    0  0.37242468848E-02  0.11770283895E-01 -0.21394388923E-01  0.24700799081E-01  0.00000000000E+00 0. -1.
     999901    1    3    3    0    0 -0.27671329701E-01 -0.11246093790E+00 -0.54537515969E-01  0.88926233795E+00  0.88000000000E+00 0. -1.
        -11    1    4    4    0    0  0.89301307252E-02  0.50351476012E-01  0.25503587705E-01  0.57146412645E-01  0.51100000000E-03 0.  1.
         11    1    4    4    0    0  0.15016952091E-01  0.50339177989E-01  0.50428317188E-01  0.72820450329E-01  0.51100000000E-03 0. -1.
</event>
<event>
 8    1  0.1177602E+005  0.1043930E+01  0.7957747E-01            NaN
         13   -1    0    0    0    0  0.00000000000E+00  0.00000000000E+00  0.74505805969E-08  0.10566000000E+00  0.10566000000E+00 0.  1.
     999900   -1    0    0    0    0 -0.00000000000E+00 -0.00000000000E+00 -0.74505805969E-08  0.93827000000E+00  0.93827000000E+00 0. -1.
     999902    2    1    2    0    0  0.28110229832E-02  0.19428730214E-01  0.14211064751E-01  0.10196950713E+01  0.10194070368E+01 0.  0.
     999903    2    3    3    0    0  0.11771016873E+00 -0.33406893018E-01  0.39374551478E-01  0.13029829941E+00  0.21344488817E-01 0.  0.
         14    1    1    2    0    0 -0.28110229832E-02 -0.19428730214E-01 -0.14211064751E-01  0.24234928704E-01  0.00000000000E+00 0. -1.
     999901    1    3    3    0    0 -0.11489914574E+00  0.52835623232E-01 -0.25163486727E-01  0.88939677188E+00  0.88000000000E+00 0. -1.
        -11    1    4    4    0    0  0.44687729697E-01 -0.70543694475E-02  0.23784184833E-01  0.51114634724E-01  0.51100000000E-03 0. -1.
         11    1    4    4    0    0  0.73022439028E-01 -0.26352523571E-01  0.15590366645E-01  0.79183664687E-01  0.51100000000E-03 0.  1.
</event>
<event>
 8    1  0.1177602E+005  0.1043930E+01  0.7957747E-01            NaN
         13   -1    0    0    0    0  0.00000000000E+00  0.00000000000E+00  0.74505805969E-08  0.10566000000E+00  0.10566000000E+00 0.  1.
     999900   -1    0    0    0    0 -0.00000000000E+00 -0.00000000000E+00 -0.74505805969E-08  0.93827000000E+00  0.93827000000E+00 0. -1.
     999902    2    1    2    0    0 -0.19457484658E-01 -0.37436110998E-02  0.11615888064E-01  0.10209618223E+01  0.10207034365E+01 0.  0.
     999903    2    3    3    0    0 -0.30369133866E-01 -0.49292140334E-01 -0.11544467914E+00  0.13060339986E+00  0.19436427672E-01 0.  0.
         14    1    1    2    0    0  0.19457484658E-01  0.37436110998E-02 -0.11615888064E-01  0.22968177742E-01  0.00000000000E+00 0.  1.
     999901    1    3    3    0    0  0.10911649208E-01  0.45548529234E-01  0.12706056721E+00  0.89035842240E+00  0.88000000000E+00 0.  1.
        -11    1    4    4    0    0 -0.85594837949E-02 -0.25941224850E-01 -0.37803808341E-01  0.46643337741E-01  0.51100000000E-03 0. -1.
         11    1    4    4    0    0 -0.21809650072E-01 -0.23350915484E-01 -0.77640870802E-01  0.83960062114E-01  0.51100000000E-03 0.  1.
</event>
<event>
 8    1  0.1177602E+005  0.1043930E+01  0.7957747E-01            NaN
         13   -1    0    0    0    0  0.00000000000E+00  0.00000000000E+00  0.74505805969E-08  0.10566000000E+00  0.10566000000E+00 0.  1.
     999900   -1    0    0    0    0 -0.00000000000E+00 -0.00000000000E+00 -0.74505805969E-08  0.93827000000E+00  0.93827000000E+00 0. -1.
     999902    2    1    2    0    0 -0.27179331963E-02  0.12582911241E-01  0.21825627142E-01  0.10185908047E+01  0.10182755780E+01 0.  0.
     999903    2    3    3    0    0 -0.88565323247E-01 -0.61361759933E-01  0.70097263971E-01  0.13001456170E+00  0.19521213455E-01 0.  0.
         14    1    1    2    0    0  0.27179331963E-02 -0.12582911241E-01 -0.21825627142E-01  0.25339195257E-01  0.00000000000E+00 0. -1.
     999901    1    3    3    0    0  0.85847390050E-01  0.73944671174E-01 -0.48271636829E-01  0.88857624304E+00  0.88000000000E+00 0. -1.
        -11    1    4    4    0    0 -0.72230351183E-01 -0.47144378448E-01  0.46534502031E-01  0.98007841786E-01  0.51100000000E-03 0. -1.
         11    1    4    4    0    0 -0.16334972063E-01 -0.14217381485E-01  0.23562761939E-01  0.32006719916E-01  0.51100000000E-03 0.  1.
</event>
<event>
 8    1  0.1177602E+005  0.1043930E+01  0.7957747E-01            NaN
         13   -1    0    0    0    0  0.00000000000E+00  0.00000000000E+00  0.74505805969E-08  0.10566000000E+00  0.10566000000E+00 0. -1.
     999900   -1    0    0    0    0 -0.00000000000E+00 -0.00000000000E+00 -0.74505805969E-08  0.93827000000E+00  0.93827000000E+00 0.  1.
     999902    2    1    2    0    0  0.22649496350E-01 -0.32338090334E-02  0.64295060078E-02  0.10201645681E+01  0.10198877145E+01 0.  0.
     999903    2    3    3    0    0  0.87215115413E-01 -0.87722742655E-01 -0.42748303859E-01  0.13240020970E+00  0.20016046309E-01 0.  0.
         14    1    1    2    0    0 -0.22649496350E-01  0.32338090334E-02 -0.64295060078E-02  0.23765431897E-01  0.00000000000E+00 0.  1.
     999901    1    3    3    0    0 -0.64565619063E-01  0.84488933622E-01  0.49177809867E-01  0.88776435840E+00  0.88000000000E+00 0.  1.
        -11    1    4    4    0    0  0.12538560043E-01 -0.10112235864E-01 -0.12880678385E-01  0.20631185104E-01  0.51100000000E-03 0.  1.
         11    1    4    4    0    0  0.74676555370E-01 -0.77610506792E-01 -0.29867625474E-01  0.11176902459E+00  0.51100000000E-03 0. -1.
</event>
<event>
 8    1  0.1177602E+005  0.1043930E+01  0.7957747E-01            NaN
         13   -1    0    0    0    0  0.00000000000E+00  0.00000000000E+00  0.74505805969E-08  0.10566000000E+00  0.10566000000E+00 0. -1.
     999900   -1    0    0    0    0 -0.00000000000E+00 -0.00000000000E+00 -0.74505805969E-08  0.93827000000E+00  0.93827000000E+00 0.  1.
     999902    2    1    2    0    0 -0.35002924027E-03 -0.20835498356E-01  0.11006772111E-01  0.10203632958E+01  0.10200911067E+01 0.  0.
     999903    2    3    3    0    0 -0.83511517459E-01 -0.99813184625E-01 -0.11859516078E-01  0.13262674980E+00  0.22635398567E-01 0.  0.
         14    1    1    2    0    0  0.35002924027E-03  0.20835498356E-01 -0.11006772111E-01  0.23566704151E-01  0.00000000000E+00 0. -1.
     999901    1    3    3    0    0  0.83161488218E-01  0.78977686269E-01  0.22866288190E-01  0.88773654605E+00  0.88000000000E+00 0. -1.
        -11    1    4    4    0    0 -0.28633850204E-01 -0.44934553551E-01 -0.13611516154E-01  0.54995872330E-01  0.51100000000E-03 0. -1.
         11    1    4    4    0    0 -0.54877667255E-01 -0.54878631074E-01  0.17520000752E-02  0.77630877473E-01  0.51100000000E-03 0.  1.
</event>
<event>
 8    1  0.1177602E+005  0.1043930E+01  0.7957747E-01            NaN
         13   -1    0    0    0    0  0.00000000000E+00  0.00000000000E+00  0.74505805969E-08  0.10566000000E+00  0.10566000000E+00 0.  1.
     999900   -1    0    0    0    0 -0.00000000000E+00 -0.00000000000E+00 -0.74505805969E-08  0.93827000000E+00  0.93827000000E+00 0.  1.
     999902    2    1    2    0    0  0.14899522646E-01 -0.11758337485E-01  0.13909861510E-01  0.10203983506E+01  0.10201269800E+01 0.  0.
     999903    2    3    3    0    0  0.10408020613E+00  0.71374197301E-02 -0.76419464428E-01  0.13108983774E+00  0.21470420296E-01 0.  0.
         14    1    1    2    0    0 -0.14899522646E-01  0.11758337485E-01 -0.13909861510E-01  0.23531649384E-01  0.00000000000E+00 0. -1.
     999901    1    3    3    0    0 -0.89180683481E-01 -0.18895757215E-01  0.90329325938E-01  0.88930851287E+00  0.88000000000E+00 0. -1.
        -11    1    4    4    0    0  0.78315227427E-01  0.14584955634E-01 -0.55977013372E-01  0.97363663268E-01  0.51100000000E-03 0.  1.
         11    1    4    4    0    0  0.25764978700E-01 -0.74475359040E-02 -0.20442451056E-01  0.33726174474E-01  0.51100000000E-03 0. -1.
</event>
<event>
 8    1  0.1177602E+005  0.1043930E+01  0.7957747E-01            NaN
         13   -1    0    0    0    0  0.00000000000E+00  0.00000000000E+00  0.74505805969E-08  0.10566000000E+00  0.10566000000E+00 0. -1.
     999900   -1    0    0    0    0 -0.00000000000E+00 -0.00000000000E+00 -0.74505805969E-08  0.93827000000E+00  0.93827000000E+00 0.  1.
     999902    2    1    2    0    0  0.26012721199E-01 -0.11168171456E-02 -0.22952347888E-02  0.10177923443E+01  0.10174566718E+01 0.  0.
     999903    2    3    3    0    0  0.76387459025E-01  0.56438626507E-01 -0.87148779356E-01  0.13040834208E+00  0.19775325086E-01 0.  0.
         14    1    1    2    0    0 -0.26012721199E-01  0.11168171456E-02  0.22952347888E-02  0.26137655737E-01  0.00000000000E+00 0.  1.
     999901    1    3    3    0    0 -0.50374737826E-01 -0.57555443653E-01  0.84853544567E-01  0.88738400218E+00  0.88000000000E+00 0. -1.
        -11    1    4    4    0    0  0.62084530834E-01  0.36053601733E-01 -0.60012568075E-01  0.93574145012E-01  0.51100000000E-03 0. -1.
         11    1    4    4    0    0  0.14302928192E-01  0.20385024775E-01 -0.27136211281E-01  0.36834197067E-01  0.51100000000E-03 0.  1.
</event>
<event>
 8    1  0.1177602E+005  0.1043930E+01  0.7957747E-01            NaN
         13   -1    0    0    0    0  0.00000000000E+00  0.00000000000E+00  0.74505805969E-08  0.10566000000E+00  0.10566000000E+00 0.  1.
     999900   -1    0    0    0    0 -0.00000000000E+00 -0.00000000000E+00 -0.74505805969E-08  0.93827000000E+00  0.93827000000E+00 0.  1.
     999902    2    1    2    0    0  0.11191789138E-01  0.44831852015E-02  0.20571845523E-01  0.10200855893E+01  0.10198068707E+01 0.  0.
     999903    2    3    3    0    0  0.45236655758E-02 -0.11075833831E+00  0.67468365883E-01  0.13130870152E+00  0.20052970976E-01 0.  0.
         14    1    1    2    0    0 -0.11191789138E-01 -0.44831852015E-02 -0.20571845523E-01  0.23844410706E-01  0.00000000000E+00 0. -1.
     999901    1    3    3    0    0  0.66681235626E-02  0.11524152351E+00 -0.46896520360E-01  0.88877688777E+00  0.88000000000E+00 0.  1.
        -11    1    4    4    0    0 -0.49647069218E-02 -0.28322073930E-01  0.24924679543E-01  0.38056391813E-01  0.51100000000E-03 0.  1.
         11    1    4    4    0    0  0.94883724976E-02 -0.82436264382E-01  0.42543686340E-01  0.93252309711E-01  0.51100000000E-03 0. -1.
</event>
<event>
 8    1  0.1177602E+005  0.1043930E+01  0.7957747E-01            NaN
         13   -1    0    0    0    0  0.00000000000E+00  0.00000000000E+00  0.74505805969E-08  0.10566000000E+00  0.10566000000E+00 0.  1.
     999900   -1    0    0    0    0 -0.00000000000E+00 -0.00000000000E+00 -0.74505805969E-08  0.93827000000E+00  0.93827000000E+00 0.  1.
     999902    2    1    2    0    0 -0.92442927509E-02  0.21556858395E-01  0.90841470811E-03  0.10204570302E+01  0.10201870271E+01 0.  0.
     999903    2    3    3    0    0  0.35062280090E-01  0.12427327265E+00 -0.24945379397E-01  0.13299877610E+00  0.19829087503E-01 0.  0.
         14    1    1    2    0    0  0.92442927509E-02 -0.21556858395E-01 -0.90841470811E-03  0.23472969765E-01  0.00000000000E+00 0. -1.
     999901    1    3    3    0    0 -0.44306572841E-01 -0.10271641426E+00  0.25853794105E-01  0.88745825413E+00  0.88000000000E+00 0.  1.
        -11    1    4    4    0    0  0.29614252481E-01  0.10589478836E+00 -0.13805966418E-01  0.11082227205E+00  0.51100000000E-03 0.  1.
         11    1    4    4    0    0  0.54480276093E-02  0.18378484291E-01 -0.11139412979E-01  0.22176504057E-01  0.51100000000E-03 0. -1.
</event>
<event>
 8    1  0.1177602E+005  0.1043930E+01  0.7957747E-01            NaN
         13   -1    0    0    0    0  0.00000000000E+00  0.00000000000E+00  0.74505805969E-08  0.10566000000E+00  0.10566000000E+00 0.  1.
     999900   -1    0    0    0    0 -0.00000000000E+00 -0.00000000000E+00 -0.74505805969E-08  0.93827000000E+00  0.93827000000E+00 0. -1.
     999902    2    1    2    0    0  0.19450953632E-01  0.10666978963E-01  0.59045975991E-02  0.10209737740E+01  0.10207156602E+01 0.  0.
     999903    2    3    3    0    0  0.65525634064E-01 -0.85294559406E-01 -0.72427318242E-01  0.13110446787E+00  0.19336351387E-01 0.  0.
         14    1    1    2    0    0 -0.19450953632E-01 -0.10666978963E-01 -0.59045975991E-02  0.22956225957E-01  0.00000000000E+00 0.  1.
     999901    1    3    3    0    0 -0.46074680432E-01  0.95961538368E-01  0.78331915841E-01  0.88986930617E+00  0.88000000000E+00 0.  1.
        -11    1    4    4    0    0  0.15877447329E-01 -0.34816770016E-01 -0.29320434296E-01  0.48210473928E-01  0.51100000000E-03 0. -1.
         11    1    4    4    0    0  0.49648186735E-01 -0.50477789389E-01 -0.43106883946E-01  0.82893993946E-01  0.51100000000E-03 0.  1.
</event>
<event>
 8    1  0.1177602E+005  0.1043930E+01  0.7957747E-01            NaN
         13   -1    0    0    0    0  0.00000000000E+00  0.00000000000E+00  0.74505805969E-08  0.10566000000E+00  0.10566000000E+00 0. -1.
     999900   -1    0    0    0    0 -0.00000000000E+00 -0.00000000000E+00 -0.74505805969E-08  0.93827000000E+00  0.93827000000E+00 0. -1.
     999902    2    1    2    0    0 -0.10237527514E-01 -0.21328980030E-01  0.58956058300E-02  0.10195478236E+01  0.10192562357E+01 0.  0.
     999903    2    3    3    0    0 -0.25581735617E-01  0.10921625839E+00  0.59316785055E-01  0.12818295643E+00  0.18159654097E-01 0.  0.
         14    1    1    2    0    0  0.10237527514E-01  0.21328980030E-01 -0.58956058300E-02  0.24382176417E-01  0.00000000000E+00 0.  1.
     999901    1    3    3    0    0  0.15344208103E-01 -0.13054523842E+00 -0.53421179225E-01  0.89136486715E+00  0.88000000000E+00 0. -1.
        -11    1    4    4    0    0 -0.20526883946E-02  0.45788960860E-01  0.27116541426E-01  0.53257960965E-01  0.51100000000E-03 0. -1.
         11    1    4    4    0    0 -0.23529047222E-01  0.63427297531E-01  0.32200243629E-01  0.74924995469E-01  0.51100000000E-03 0.  1.
</event>
<event>
 8    1  0.1177602E+005  0.1043930E+01  0.7957747E-01            NaN
         13   -1    0    0    0    0  0.00000000000E+00  0.00000000000E+00  0.74505805969E-08  0.10566000000E+00  0.10566000000E+00 0.  1.
     999900   -1    0    0    0    0 -0.00000000000E+00 -0.00000000000E+00 -0.74505805969E-08  0.93827000000E+00  0.93827000000E+00 0. -1.
     999902    2    1    2    0    0  0.45584997890E-02 -0.52943803956E-02  0.24101177954E-01  0.10188366311E+01  0.10185275665E+01 0.  0.
     999903    2    3    3    0    0 -0.10914333713E+00 -0.66022445079E-01  0.11840295917E-02  0.12915061837E+00  0.20180411383E-01 0.  0.
         14    1    1    2    0    0 -0.45584997890E-02  0.52943803956E-02 -0.24101177954E-01  0.25093368903E-01  0.00000000000E+00 0. -1.
     999901    1    3    3    0    0  0.11370183692E+00  0.60728064683E-01  0.22917148363E-01  0.88968601273E+00  0.88000000000E+00 0.  1.
        -11    1    4    4    0    0 -0.81564947220E-01 -0.55179085268E-01 -0.59805413633E-02  0.98659009026E-01  0.51100000000E-03 0.  1.
         11    1    4    4    0    0 -0.27578389914E-01 -0.10843359811E-01  0.71645709550E-02  0.30491609341E-01  0.51100000000E-03 0. -1.
</event>
<event>
 8    1  0.1177602E+005  0.1043930E+01  0.7957747E-01            NaN
         13   -1    0    0    0    0  0.00000000000E+00  0.00000000000E+00  0.74505805969E-08  0.10566000000E+00  0.10566000000E+00 0.  1.
     999900   -1    0    0    0    0 -0.00000000000E+00 -0.00000000000E+00 -0.74505805969E-08  0.93827000000E+00  0.93827000000E+00 0.  1.
     999902    2    1    2    0    0  0.48094497758E-02 -0.18772085106E-01  0.13904590307E-01  0.10200792219E+01  0.10198003526E+01 0.  0.
     999903    2    3    3    0    0 -0.18695218755E-01  0.12479510834E+00 -0.68378520935E-02  0.12789411921E+00  0.19667720692E-01 0.  0.
         14    1    1    2    0    0 -0.48094497758E-02  0.18772085106E-01 -0.13904590307E-01  0.23850778142E-01  0.00000000000E+00 0.  1.
     999901    1    3    3    0    0  0.23504668530E-01 -0.14356719344E+00  0.20742442401E-01  0.89218510265E+00  0.88000000000E+00 0. -1.
        -11    1    4    4    0    0 -0.12971707256E-01  0.11700963828E+00 -0.39415641621E-02  0.11779353840E+00  0.51100000000E-03 0. -1.
         11    1    4    4    0    0 -0.57235114983E-02  0.77854700608E-02 -0.28962879313E-02  0.10100580811E-01  0.51100000000E-03 0.  1.
</event>
<event>
 8    1  0.1177602E+005  0.1043930E+01  0.7957747E-01            NaN
         13   -1    0    0    0    0  0.00000000000E+00  0.00000000000E+00  0.74505805969E-08  0.10566000000E+00  0.10566000000E+00 0.  1.
     999900   -1    0    0    0    0 -0.00000000000E+00 -0.00000000000E+00 -0.74505805969E-08  0.93827000000E+00  0.93827000000E+00 0.  1.
     999902    2    1    2    0    0 -0.17343872106E-01 -0.66664883894E-02  0.16509436568E-01  0.10190741463E+01  0.10187709763E+01 0.  0.
     999903    2    3    3    0    0 -0.35398732277E-01  0.84108726781E-01 -0.87884533075E-01  0.12808356355E+00  0.18824450315E-01 0.  0.
         14    1    1    2    0    0  0.17343872106E-01  0.66664883894E-02 -0.16509436568E-01  0.24855853695E-01  0.00000000000E+00 0. -1.
     999901    1    3    3    0    0  0.18054860171E-01 -0.90775215171E-01  0.10439396964E+00  0.89099058276E+00  0.88000000000E+00 0. -1.
        -11    1    4    4    0    0 -0.10873478925E-01  0.49907190258E-01 -0.48907201745E-01  0.70718708182E-01  0.51100000000E-03 0. -1.
         11    1    4    4    0    0 -0.24525253352E-01  0.34201536523E-01 -0.38977331330E-01  0.57364855366E-01  0.51100000000E-03 0.  1.
</event>
<event>
 8    1  0.1177602E+005  0.1043930E+01  0.7957747E-01            NaN
         13   -1    0    0    0    0  0.00000000000E+00  0.00000000000E+00  0.74505805969E-08  0.10566000000E+00  0.10566000000E+00 0.  1.
     999900   -1    0    0    0    0 -0.00000000000E+00 -0.00000000000E+00 -0.74505805969E-08  0.93827000000E+00  0.93827000000E+00 0.  1.
     999902    2    1    2    0    0 -0.20626409078E-01 -0.12851810125E-01  0.70783683334E-02  0.10186175313E+01  0.10183029775E+01 0.  0.
     999903    2    3    3    0    0 -0.73355080892E-01 -0.91424871745E-01  0.57722627624E-01  0.13209687170E+00  0.19447537304E-01 0.  0.
         14    1    1    2    0    0  0.20626409078E-01  0.12851810125E-01 -0.70783683334E-02  0.25312468730E-01  0.00000000000E+00 0. -1.
     999901    1    3    3    0    0  0.52728671813E-01  0.78573061620E-01 -0.50644259290E-01  0.88652065957E+00  0.88000000000E+00 0.  1.
        -11    1    4    4    0    0 -0.12951424822E-01 -0.28241086330E-01  0.19553722363E-01  0.36713860343E-01  0.51100000000E-03 0.  1.
         11    1    4    4    0    0 -0.60403656070E-01 -0.63183785415E-01  0.38168905261E-01  0.95383011358E-01  0.51100000000E-03 0. -1.
</event>
<event>
 8    1  0.1177602E+005  0.1043930E+01  0.7957747E-01            NaN
         13   -1    0    0    0    0  0.00000000000E+00  0.00000000000E+00  0.74505805969E-08  0.10566000000E+00  0.10566000000E+00 0. -1.
     999900   -1    0    0    0    0 -0.00000000000E+00 -0.00000000000E+00 -0.74505805969E-08  0.93827000000E+00  0.93827000000E+00 0. -1.
     999902    2    1    2    0    0 -0.25544485028E-02 -0.17378992812E-01  0.78789968491E-02  0.10246781640E+01  0.10244972946E+01 0.  0.
     999903    2    3    3    0    0  0.13125725007E-01 -0.10590518874E+00 -0.81091964923E-01  0.13563452769E+00  0.20799631424E-01 0.  0.
         14    1    1    2    0    0  0.25544485028E-02  0.17378992812E-01 -0.78789968491E-02  0.19251836007E-01  0.00000000000E+00 0. -1.
     999901    1    3    3    0    0 -0.15680173509E-01  0.88526195932E-01  0.88970961772E-01  0.88904363630E+00  0.88000000000E+00 0.  1.
        -11    1    4    4    0    0  0.68442259066E-02 -0.61727255903E-01 -0.34196096425E-01  0.70899447679E-01  0.51100000000E-03 0.  1.
         11    1    4    4    0    0  0.62814991000E-02 -0.44177932841E-01 -0.46895868498E-01  0.64735080013E-01  0.51100000000E-03 0. -1.
</event>
<event>
 8    1  0.1177602E+005  0.1043930E+01  0.7957747E-01            NaN
         13   -1    0    0    0    0  0.00000000000E+00  0.00000000000E+00  0.74505805969E-08  0.10566000000E+00  0.10566000000E+00 0.  1.
     999900   -1    0    0    0    0 -0.00000000000E+00 -0.00000000000E+00 -0.74505805969E-08  0.93827000000E+00  0.93827000000E+00 0.  1.
     999902    2    1    2    0    0 -0.11153569586E-01  0.27911066071E-02 -0.21282754630E-01  0.10197401667E+01  0.10194532160E+01 0.  0.
     999903    2    3    3    0    0 -0.12614771633E+00  0.25514853003E-01 -0.20969369356E-01  0.13196760537E+00  0.20284978564E-01 0.  0.
         14    1    1    2    0    0  0.11153569586E-01 -0.27911066071E-02  0.21282754630E-01  0.24189833303E-01  0.00000000000E+00 0.  1.
     999901    1    3    3    0    0  0.11499414675E+00 -0.22723746396E-01 -0.31338527363E-03  0.88777256133E+00  0.88000000000E+00 0. -1.
        -11    1    4    4    0    0 -0.10842736208E+00  0.14648994740E-01 -0.15869256346E-01  0.11055849272E+00  0.51100000000E-03 0.  1.
         11    1    4    4    0    0 -0.17720354256E-01  0.10865858263E-01 -0.51001130101E-02  0.21409112650E-01  0.51100000000E-03 0. -1.
</event>
<event>
 8    1  0.1177602E+005  0.1043930E+01  0.7957747E-01            NaN
         13   -1    0    0    0    0  0.00000000000E+00  0.00000000000E+00  0.74505805969E-08  0.10566000000E+00  0.10566000000E+00 0. -1.
     999900   -1    0    0    0    0 -0.00000000000E+00 -0.00000000000E+00 -0.74505805969E-08  0.93827000000E+00  0.93827000000E+00 0. -1.
     999902    2    1    2    0    0 -0.11012052602E-01  0.68401872280E-03 -0.20721518590E-01  0.10204541716E+01  0.10201841020E+01 0.  0.
     999903    2    3    3    0    0  0.10501398640E+00 -0.19710934565E-01 -0.73156453999E-01  0.13105694976E+00  0.20189082168E-01 0.  0.
         14    1    1    2    0    0  0.11012052602E-01 -0.68401872280E-03  0.20721518590E-01  0.23475828352E-01  0.00000000000E+00 0.  1.
     999901    1    3    3    0    0 -0.11602603900E+00  0.20394953288E-01  0.52434935409E-01  0.88939722189E+00  0.88000000000E+00 0.  1.
        -11    1    4    4    0    0  0.50901912758E-01  0.35943493538E-03 -0.31266859610E-01  0.59741204765E-01  0.51100000000E-03 0. -1.
         11    1    4    4    0    0  0.54112073640E-01 -0.20070369501E-01 -0.41889594389E-01  0.71315744998E-01  0.51100000000E-03 0.  1.
</event>
<event>
 8    1  0.1177602E+005  0.1043930E+01  0.7957747E-01            NaN
         13   -1    0    0    0    0  0.00000000000E+00  0.00000000000E+00  0.74505805969E-08  0.10566000000E+00  0.10566000000E+00 0. -1.
     999900   -1    0    0    0    0 -0.00000000000E+00 -0.00000000000E+00 -0.74505805969E-08  0.93827000000E+00  0.93827000000E+00 0.  1.
     999902    2    1    2    0    0  0.10246368438E-01  0.71529505587E-02 -0.20088333382E-01  0.10202721492E+01  0.10199978257E+01 0.  0.
     999903    2    3    3    0    0  0.44927524383E-01 -0.21108024380E-02  0.11882958402E+00  0.12865183341E+00  0.20196194369E-01 0.  0.
         14    1    1    2    0    0 -0.10246368438E-01 -0.71529505587E-02  0.20088333382E-01  0.23657850831E-01  0.00000000000E+00 0. -1.
     999901    1    3    3    0    0 -0.34681155945E-01  0.92637529967E-02 -0.13891791740E+00  0.89162031576E+00  0.88000000000E+00 0.  1.
        -11    1    4    4    0    0  0.33230675964E-01  0.74509329944E-02  0.86451427181E-01  0.92918806548E-01  0.51100000000E-03 0. -1.
         11    1    4    4    0    0  0.11696848419E-01 -0.95617354324E-02  0.32378156840E-01  0.35733026863E-01  0.51100000000E-03 0.  1.
</event>
<event>
 8    1  0.1177602E+005  0.1043930E+01  0.7957747E-01            NaN
         13   -1    0    0    0    0  0.00000000000E+00  0.00000000000E+00  0.74505805969E-08  0.10566000000E+00  0.10566000000E+00 0.  1.
     999900   -1    0    0    0    0 -0.00000000000E+00 -0.00000000000E+00 -0.74505805969E-08  0.93827000000E+00  0.93827000000E+00 0.  1.
     999902    2    1    2    0    0 -0.21845586588E-01 -0.94083446252E-02 -0.27511302883E-02  0.10199859962E+01  0.10197049167E+01 0.  0.
     999903    2    3    3    0    0 -0.78221656787E-01  0.26288699318E-01  0.10035011668E+00  0.13145777074E+00  0.20031881323E-01 0.  0.
         14    1    1    2    0    0  0.21845586588E-01  0.94083446252E-02  0.27511302883E-02  0.23944003838E-01  0.00000000000E+00 0. -1.
     999901    1    3    3    0    0  0.56376070199E-01 -0.35697043943E-01 -0.10310124697E+00  0.88852822542E+00  0.88000000000E+00 0.  1.
        -11    1    4    4    0    0 -0.42392723191E-01  0.76198166990E-02  0.39686353273E-01  0.58570234276E-01  0.51100000000E-03 0. -1.
         11    1    4    4    0    0 -0.35828933596E-01  0.18668882619E-01  0.60663763405E-01  0.72887536468E-01  0.51100000000E-03 0.  1.
</event>
<event>
 8    1  0.1177602E+005  0.1043930E+01  0.7957747E-01            NaN
         13   -1    0    0    0    0  0.00000000000E+00  0.00000000000E+00  0.74505805969E-08  0.10566000000E+00  0.10566000000E+00 0.  1.
     999900   -1    0    0    0    0 -0.00000000000E+00 -0.00000000000E+00 -0.74505805969E-08  0.93827000000E+00  0.93827000000E+00 0. -1.
     999902    2    1    2    0    0  0.90931846882E-02  0.22108363243E-01 -0.18992997450E-02  0.10199493188E+01  0.10196673672E+01 0.  0.
     999903    2    3    3    0    0 -0.12110948279E+00 -0.29167915065E-01 -0.25002432639E-01  0.12859319123E+00  0.19819513208E-01 0.  0.
         14    1    1    2    0    0 -0.90931846882E-02 -0.22108363243E-01  0.18992997450E-02  0.23980681237E-01  0.00000000000E+00 0. -1.
     999901    1    3    3    0    0  0.13020266747E+00  0.51276278308E-01  0.23103132894E-01  0.89135612753E+00  0.88000000000E+00 0.  1.
        -11    1    4    4    0    0 -0.29114014006E-01 -0.15854987290E-01 -0.53664122434E-02  0.33586692824E-01  0.51100000000E-03 0.  1.
         11    1    4    4    0    0 -0.91995468780E-01 -0.13312927775E-01 -0.19636020395E-01  0.95006498409E-01  0.51100000000E-03 0. -1.
</event>
<event>
 8    1  0.1177602E+005  0.1043930E+01  0.7957747E-01            NaN
         13   -1    0    0    0    0  0.00000000000E+00  0.00000000000E+00  0.74505805969E-08  0.10566000000E+00  0.10566000000E+00 0.  1.
     999900   -1    0    0    0    0 -0.00000000000E+00 -0.00000000000E+00 -0.74505805969E-08  0.93827000000E+00  0.93827000000E+00 0.  1.
     999902    2    1    2    0    0 -0.18108224172E-01  0.13642481858E-01  0.71550658371E-02  0.10201556428E+01  0.10198785788E+01 0.  0.
     999903    2    3    3    0    0 -0.11013041968E+00 -0.11329097475E-01  0.70464046360E-01  0.13274384928E+00  0.19967220740E-01 0.  0.
         14    1    1    2    0    0  0.18108224172E-01 -0.13642481858E-01 -0.71550658371E-02  0.23774357216E-01  0.00000000000E+00 0.  1.
     999901    1    3    3    0    0  0.92022195504E-01  0.24971579333E-01 -0.63308980523E-01  0.88741179351E+00  0.88000000000E+00 0.  1.
        -11    1    4    4    0    0 -0.85181150642E-01 -0.74787509565E-02  0.63625552306E-01  0.10658438989E+00  0.51100000000E-03 0. -1.
         11    1    4    4    0    0 -0.24949269033E-01 -0.38503465185E-02  0.68384940539E-02  0.26159459389E-01  0.51100000000E-03 0.  1.
</event>
<event>
 8    1  0.1177602E+005  0.1043930E+01  0.7957747E-01            NaN
         13   -1    0    0    0    0  0.00000000000E+00  0.00000000000E+00  0.74505805969E-08  0.10566000000E+00  0.10566000000E+00 0.  1.
     999900   -1    0    0    0    0 -0.00000000000E+00 -0.00000000000E+00 -0.74505805969E-08  0.93827000000E+00  0.93827000000E+00 0.  1.
     999902    2    1    2    0    0  0.13240522044E-01  0.25718036050E-02 -0.19745093375E-01  0.10200177791E+01  0.10197374541E+01 0.  0.
     999903    2    3    3    0    0 -0.47413313364E-04  0.12913647977E+00 -0.60227605859E-02  0.13075769962E+00  0.19623193113E-01 0.  0.
         14    1    1    2    0    0 -0.13240522044E-01 -0.25718036050E-02  0.19745093375E-01  0.23912220937E-01  0.00000000000E+00 0.  1.
     999901    1    3    3    0    0  0.13287935357E-01 -0.12656467617E+00 -0.13722332789E-01  0.88926007945E+00  0.88000000000E+00 0. -1.
        -11    1    4    4    0    0 -0.44402905948E-02  0.42462753741E-01 -0.10099443488E-01  0.43875522967E-01  0.51100000000E-03 0. -1.
         11    1    4    4    0    0  0.43928772815E-02  0.86673726031E-01  0.40766829020E-02  0.86882176650E-01  0.51100000000E-03 0.  1.
</event>
<event>
 8    1  0.1177602E+005  0.1043930E+01  0.7957747E-01            NaN
         13   -1    0    0    0    0  0.00000000000E+00  0.00000000000E+00  0.74505805969E-08  0.10566000000E+00  0.10566000000E+00 0. -1.
     999900   -1    0    0    0    0 -0.00000000000E+00 -0.00000000000E+00 -0.74505805969E-08  0.93827000000E+00  0.93827000000E+00 0.  1.
     999902    2    1    2    0    0  0.12267835882E-01 -0.18322422663E-01 -0.13491657007E-01  0.10180797432E+01  0.10177515059E+01 0.  0.
     999903    2    3    3    0    0  0.56070849119E-01  0.10003654991E-01 -0.11572518503E+00  0.13062677828E+00  0.20664547388E-01 0.  0.
         14    1    1    2    0    0 -0.12267835882E-01  0.18322422663E-01  0.13491657007E-01  0.25850256831E-01  0.00000000000E+00 0. -1.
     999901    1    3    3    0    0 -0.43803013237E-01 -0.28326077654E-01  0.10223352802E+00  0.88745296489E+00  0.88000000000E+00 0. -1.
        -11    1    4    4    0    0  0.22294471491E-01  0.64441124641E-02 -0.69426329123E-01  0.73204141557E-01  0.51100000000E-03 0. -1.
         11    1    4    4    0    0  0.33776377627E-01  0.35595425270E-02 -0.46298855906E-01  0.57422636720E-01  0.51100000000E-03 0.  1.
</event>
<event>
 8    1  0.1177602E+005  0.1043930E+01  0.7957747E-01            NaN
         13   -1    0    0    0    0  0.00000000000E+00  0.00000000000E+00  0.74505805969E-08  0.10566000000E+00  0.10566000000E+00 0. -1.
     999900   -1    0    0    0    0 -0.00000000000E+00 -0.00000000000E+00 -0.74505805969E-08  0.93827000000E+00  0.93827000000E+00 0.  1.
     999902    2    1    2    0    0  0.21837501234E-01 -0.93907665982E-02 -0.29961554207E-02  0.10199708701E+01  0.10196894311E+01 0.  0.
     999903    2    3    3    0    0 -0.59107845048E-01 -0.10990442159E+00  0.31171401250E-01  0.12990201556E+00  0.18170254772E-01 0.  0.
         14    1    1    2    0    0 -0.21837501234E-01  0.93907665982E-02  0.29961554207E-02  0.23959129883E-01  0.00000000000E+00 0. -1.
     999901    1    3    3    0    0  0.80945346281E-01  0.10051365500E+00 -0.34167556671E-01  0.89006885456E+00  0.88000000000E+00 0.  1.
        -11    1    4    4    0    0 -0.21484420546E-01 -0.41554635726E-01  0.27471257179E-02  0.46863374795E-01  0.51100000000E-03 0.  1.
         11    1    4    4    0    0 -0.37623424502E-01 -0.68349785868E-01  0.28424275532E-01  0.83038640764E-01  0.51100000000E-03 0. -1.
</event>
<event>
 8    1  0.1177602E+005  0.1043930E+01  0.7957747E-01            NaN
         13   -1    0    0    0    0  0.00000000000E+00  0.00000000000E+00  0.74505805969E-08  0.10566000000E+00  0.10566000000E+00 0. -1.
     999900   -1    0    0    0    0 -0.00000000000E+00 -0.00000000000E+00 -0.74505805969E-08  0.93827000000E+00  0.93827000000E+00 0.  1.
     999902    2    1    2    0    0  0.22318805068E-02 -0.12015000269E-01  0.23093145881E-01  0.10178027172E+01  0.10174673145E+01 0.  0.
     999903    2    3    3    0    0 -0.13961289668E-01  0.33667065991E-02 -0.12303319205E+00  0.12547333722E+00  0.20003491798E-01 0.  0.
         14    1    1    2    0    0 -0.22318805068E-02  0.12015000269E-01 -0.23093145881E-01  0.26127282843E-01  0.00000000000E+00 0.  1.
     999901    1    3    3    0    0  0.16193170175E-01 -0.15381706868E-01  0.14612633793E+00  0.89232937994E+00  0.88000000000E+00 0. -1.
        -11    1    4    4    0    0 -0.10940374400E-01  0.21694930796E-02 -0.24941518774E-01  0.27326525062E-01  0.51100000000E-03 0.  1.
         11    1    4    4    0    0 -0.30209152685E-02  0.11972135195E-02 -0.98091673275E-01  0.98146812155E-01  0.51100000000E-03 0. -1.
</event>
<event>
 8    1  0.1177602E+005  0.1043930E+01  0.7957747E-01            NaN
         13   -1    0    0    0    0  0.00000000000E+00  0.00000000000E+00  0.74505805969E-08  0.10566000000E+00  0.10566000000E+00 0. -1.
     999900   -1    0    0    0    0 -0.00000000000E+00 -0.00000000000E+00 -0.74505805969E-08  0.93827000000E+00  0.93827000000E+00 0.  1.
     999902    2    1    2    0    0 -0.18655988281E-01  0.26397358059E-02 -0.14798848052E-01  0.10199712854E+01  0.10196898562E+01 0.  0.
     999903    2    3    3    0    0  0.41265512975E-01 -0.11760603000E+00  0.25963425912E-01  0.12884211768E+00  0.19803306525E-01 0.  0.
         14    1    1    2    0    0  0.18655988281E-01 -0.26397358059E-02  0.14798848052E-01  0.23958714647E-01  0.00000000000E+00 0. -1.
     999901    1    3    3    0    0 -0.59921501256E-01  0.12024576580E+00 -0.40762273964E-01  0.89112916768E+00  0.88000000000E+00 0. -1.
        -11    1    4    4    0    0  0.15088449828E-01 -0.20861721436E-01  0.22434680480E-02  0.25848926658E-01  0.51100000000E-03 0. -1.
         11    1    4    4    0    0  0.26177063147E-01 -0.96744308561E-01  0.23719957864E-01  0.10299319102E+00  0.51100000000E-03 0.  1.
</event>
<event>
 8    1  0.1177602E+005  0.1043930E+01  0.7957747E-01            NaN
         13   -1    0    0    0    0  0.00000000000E+00  0.00000000000E+00  0.74505805969E-08  0.10566000000E+00  0.10566000000E+00 0.  1.
     999900   -1    0    0    0    0 -0.00000000000E+00 -0.00000000000E+00 -0.74505805969E-08  0.93827000000E+00  0.93827000000E+00 0.  1.
     999902    2    1    2    0    0 -0.23089909555E-01  0.55703880561E-02  0.56366712542E-02  0.10195180110E+01  0.10192257009E+01 0.  0.
     999903    2    3    3    0    0  0.15216376643E-01 -0.62875148594E-01  0.11057936066E+00  0.12981854984E+00  0.20981859982E-01 0.  0.
         14    1    1    2    0    0  0.23089909555E-01 -0.55703880561E-02 -0.56366712542E-02  0.24411989046E-01  0.00000000000E+00 0. -1.
     999901    1    3    3    0    0 -0.38306286198E-01  0.68445536650E-01 -0.10494268941E+00  0.88969946112E+00  0.88000000000E+00 0. -1.
        -11    1    4    4    0    0  0.10936247151E-01 -0.15071050944E-01  0.43638913114E-01  0.47448434506E-01  0.51100000000E-03 0. -1.
         11    1    4    4    0    0  0.42801294922E-02 -0.47804097650E-01  0.66940447550E-01  0.82370115332E-01  0.51100000000E-03 0.  1.
</event>
<event>
 8    1  0.1177602E+005  0.1043930E+01  0.7957747E-01            NaN
         13   -1    0    0    0    0  0.00000000000E+00  0.00000000000E+00  0.74505805969E-08  0.10566000000E+00  0.10566000000E+00 0.  1.
     999900   -1    0    0    0    0 -0.00000000000E+00 -0.00000000000E+00 -0.74505805969E-08  0.93827000000E+00  0.93827000000E+00 0. -1.
     999902    2    1    2    0    0 -0.41123967252E-02 -0.18685277604E-01  0.13412592491E-01  0.10205644475E+01  0.10202969384E+01 0.  0.
     999903    2    3    3    0    0  0.10788872174E+00 -0.70765848215E-01 -0.14930315811E-01  0.13148629750E+00  0.20443838871E-01 0.  0.
         14    1    1    2    0    0  0.41123967252E-02  0.18685277604E-01 -0.13412592491E-01  0.23365552493E-01  0.00000000000E+00 0. -1.
     999901    1    3    3    0    0 -0.11200111846E+00  0.52080570611E-01  0.28342908302E-01  0.88907815001E+00  0.88000000000E+00 0.  1.
        -11    1    4    4    0    0  0.85456919182E-01 -0.62803328342E-01 -0.17687446846E-01  0.10751860297E+00  0.51100000000E-03 0.  1.
         11    1    4    4    0    0  0.22431802556E-01 -0.79625198735E-02  0.27571310355E-02  0.23967694532E-01  0.51100000000E-03 0. -1.
</event>
<event>
 8    1  0.1177602E+005  0.1043930E+01  0.7957747E-01            NaN
         13   -1    0    0    0    0  0.00000000000E+00  0.00000000000E+00  0.74505805969E-08  0.10566000000E+00  0.10566000000E+00 0. -1.
     999900   -1    0    0    0    0 -0.00000000000E+00 -0.00000000000E+00 -0.74505805969E-08  0.93827000000E+00  0.93827000000E+00 0. -1.
     999902    2    1    2    0    0  0.22400932561E-02 -0.17404812964E-01  0.16470731511E-01  0.10198627914E+01  0.10195787771E+01 0.  0.
     999903    2    3    3    0    0 -0.25861479607E-01 -0.97767223963E-01  0.84295156883E-01  0.13315654459E+00  0.19943562479E-01 0.  0.
         14    1    1    2    0    0 -0.22400932561E-02  0.17404812964E-01 -0.16470731511E-01  0.24067208576E-01  0.00000000000E+00 0.  1.
     999901    1    3    3    0    0  0.28101572863E-01  0.80362410998E-01 -0.67824425372E-01  0.88670624683E+00  0.88000000000E+00 0. -1.
        -11    1    4    4    0    0 -0.16639678165E-01 -0.33459903885E-01  0.38607063317E-01  0.53732769484E-01  0.51100000000E-03 0. -1.
         11    1    4    4    0    0 -0.92218014420E-02 -0.64307320077E-01  0.45688093565E-01  0.79423775105E-01  0.51100000000E-03 0.  1.
</event>
<event>
 8    1  0.1177602E+005  0.1043930E+01  0.7957747E-01            NaN
         13   -1    0    0    0    0  0.00000000000E+00  0.00000000000E+00  0.74505805969E-08  0.10566000000E+00  0.10566000000E+00 0.  1.
     999900   -1    0    0    0    0 -0.00000000000E+00 -0.00000000000E+00 -0.74505805969E-08  0.93827000000E+00  0.93827000000E+00 0. -1.
     999902    2    1    2    0    0 -0.98504683315E-02 -0.17473631514E-02  0.21275851744E-01  0.10204194306E+01  0.10201485517E+01 0.  0.
     999903    2    3    3    0    0  0.14316751933E-01  0.60303375457E-01  0.11574224332E+00  0.13286196893E+00  0.20360977938E-01 0.  0.
         14    1    1    2    0    0  0.98504683315E-02  0.17473631514E-02 -0.21275851744E-01  0.23510569363E-01  0.00000000000E+00 0. -1.
     999901    1    3    3    0    0 -0.24167220264E-01 -0.62050738608E-01 -0.94466391571E-01  0.88755746171E+00  0.88000000000E+00 0. -1.
        -11    1    4    4    0    0  0.15727690712E-01  0.45920999031E-01  0.72366842362E-01  0.87139654587E-01  0.51100000000E-03 0.  1.
         11    1    4    4    0    0 -0.14109387789E-02  0.14382376426E-01  0.43375400953E-01  0.45722314341E-01  0.51100000000E-03 0. -1.
</event>
<event>
 8    1  0.1177602E+005  0.1043930E+01  0.7957747E-01            NaN
         13   -1    0    0    0    0  0.00000000000E+00  0.00000000000E+00  0.74505805969E-08  0.10566000000E+00  0.10566000000E+00 0. -1.
     999900   -1    0    0    0    0 -0.00000000000E+00 -0.00000000000E+00 -0.74505805969E-08  0.93827000000E+00  0.93827000000E+00 0.  1.
     999902    2    1    2    0    0  0.35418092404E-02 -0.15376780464E-01  0.10591008702E-01  0.10249258095E+01  0.10247496064E+01 0.  0.
     999903    2    3    3    0    0 -0.61203275078E-01  0.68321014311E-01 -0.93665195187E-01  0.13247603344E+00  0.19055937905E-01 0.  0.
         14    1    1    2    0    0 -0.35418092404E-02  0.15376780464E-01 -0.10591008702E-01  0.19004190471E-01  0.00000000000E+00 0.  1.
     999901    1    3    3    0    0  0.64745084318E-01 -0.83697794775E-01  0.10425620389E+00  0.89244977609E+00  0.88000000000E+00 0. -1.
        -11    1    4    4    0    0 -0.47954039826E-01  0.42047182821E-01 -0.57719779487E-01  0.86019704626E-01  0.51100000000E-03 0. -1.
         11    1    4    4    0    0 -0.13249235251E-01  0.26273831490E-01 -0.35945415700E-01  0.46456328813E-01  0.51100000000E-03 0.  1.
</event>
<event>
 8    1  0.1177602E+005  0.1043930E+01  0.7957747E-01            NaN
         13   -1    0    0    0    0  0.00000000000E+00  0.00000000000E+00  0.74505805969E-08  0.10566000000E+00  0.10566000000E+00 0.  1.
     999900   -1    0    0    0    0 -0.00000000000E+00 -0.00000000000E+00 -0.74505805969E-08  0.93827000000E+00  0.93827000000E+00 0. -1.
     999902    2    1    2    0    0  0.19002025181E-01 -0.13916610111E-01 -0.34942837817E-02  0.10201190988E+01  0.10198411723E+01 0.  0.
     999903    2    3    3    0    0 -0.85554095722E-01  0.66503933061E-01  0.64325620097E-01  0.12770720646E+00  0.20713975325E-01 0.  0.
         14    1    1    2    0    0 -0.19002025181E-01  0.13916610111E-01  0.34942837817E-02  0.23810901224E-01  0.00000000000E+00 0.  1.
     999901    1    3    3    0    0  0.10455612090E+00 -0.80420543172E-01 -0.67819903879E-01  0.89241189231E+00  0.88000000000E+00 0. -1.
        -11    1    4    4    0    0 -0.15948218560E-01  0.94353951229E-02  0.20351456436E-01  0.27528444497E-01  0.51100000000E-03 0. -1.
         11    1    4    4    0    0 -0.69605877162E-01  0.57068537938E-01  0.43974163661E-01  0.10017876196E+00  0.51100000000E-03 0.  1.
</event>
<event>
 8    1  0.1177602E+005  0.1043930E+01  0.7957747E-01            NaN
         13   -1    0    0    0    0  0.00000000000E+00  0.00000000000E+00  0.74505805969E-08  0.10566000000E+00  0.10566000000E+00 0. -1.
     999900   -1    0    0    0    0 -0.00000000000E+00 -0.00000000000E+00 -0.74505805969E-08  0.93827000000E+00  0.93827000000E+00 0. -1.
     999902    2    1    2    0    0 -0.13349448720E-02  0.22316294733E-01 -0.48529724350E-02  0.10210531464E+01  0.10207968345E+01 0.  0.
     999903    2    3    3    0    0  0.12668640650E+00  0.21675573742E-02 -0.28190540955E-01  0.13125537157E+00  0.19471057224E-01 0.  0.
         14    1    1    2    0    0  0.13349448720E-02 -0.22316294733E-01  0.48529724350E-02  0.22876853584E-01  0.00000000000E+00 0.  1.
     999901    1    3    3    0    0 -0.12802135137E+00  0.20148737359E-01  0.23337568520E-01  0.88979777485E+00  0.88000000000E+00 0. -1.
        -11    1    4    4    0    0  0.59279194676E-01  0.93465666573E-02 -0.18337339942E-01  0.62752692268E-01  0.51100000000E-03 0.  1.
         11    1    4    4    0    0  0.67407211821E-01 -0.71790092831E-02 -0.98532010127E-02  0.68502679298E-01  0.51100000000E-03 0. -1.
</event>
<event>
 8    1  0.1177602E+005  0.1043930E+01  0.7957747E-01            NaN
         13   -1    0    0    0    0  0.00000000000E+00  0.00000000000E+00  0.74505805969E-08  0.10566000000E+00  0.10566000000E+00 0. -1.
     999900   -1    0    0    0    0 -0.00000000000E+00 -0.00000000000E+00 -0.74505805969E-08  0.93827000000E+00  0.93827000000E+00 0.  1.
     999902    2    1    2    0    0  0.64161521169E-02  0.22349361404E-01 -0.40732501328E-02  0.10203238074E+01  0.10200506946E+01 0.  0.
     999903    2    3    3    0    0  0.11109183364E+00 -0.41797538857E-01  0.49629440413E-01  0.13018010995E+00  0.19883408024E-01 0.  0.
         14    1    1    2    0    0 -0.64161521169E-02 -0.22349361404E-01  0.40732501328E-02  0.23606192615E-01  0.00000000000E+00 0. -1.
     999901    1    3    3    0    0 -0.10467568152E+00  0.64146900260E-01 -0.53702690546E-01  0.89014369744E+00  0.88000000000E+00 0. -1.
        -11    1    4    4    0    0  0.82041167035E-01 -0.29595706636E-01  0.45574278387E-01  0.98406986090E-01  0.51100000000E-03 0.  1.
         11    1    4    4    0    0  0.29050666603E-01 -0.12201832221E-01  0.40551620264E-02  0.31773123858E-01  0.51100000000E-03 0. -1.
</event>
<event>
 8    1  0.1177602E+005  0.1043930E+01  0.7957747E-01            NaN
         13   -1    0    0    0    0  0.00000000000E+00  0.00000000000E+00  0.74505805969E-08  0.10566000000E+00  0.10566000000E+00 0. -1.
     999900   -1    0    0    0    0 -0.00000000000E+00 -0.00000000000E+00 -0.74505805969E-08  0.93827000000E+00  0.93827000000E+00 0.  1.
     999902    2    1    2    0    0 -0.15922502877E-01 -0.52183988964E-02 -0.16828793101E-01  0.10201820304E+01  0.10199055883E+01 0.  0.
     999903    2    3    3    0    0 -0.27151267501E-01 -0.23068266509E-01 -0.12449447435E+00  0.13336942228E+00  0.31924793000E-01 0.  0.
         14    1    1    2    0    0  0.15922502877E-01  0.52183988964E-02  0.16828793101E-01  0.23747969642E-01  0.00000000000E+00 0. -1.
     999901    1    3    3    0    0  0.11228764625E-01  0.17849867612E-01  0.10766568125E+00  0.88681260808E+00  0.88000000000E+00 0. -1.
        -11    1    4    4    0    0 -0.28831579612E-01 -0.58214301314E-02 -0.63949518721E-01  0.70391413520E-01  0.51100000000E-03 0. -1.
         11    1    4    4    0    0  0.16803121108E-02 -0.17246836377E-01 -0.60544955631E-01  0.62978008759E-01  0.51100000000E-03 0.  1.
</event>
<event>
 8    1  0.1184511E+005  0.1043930E+01  0.7957747E-01            NaN
         13   -1    0    0    0    0  0.00000000000E+00  0.00000000000E+00  0.74505805969E-08  0.10566000000E+00  0.10566000000E+00 0.  1.
     999900   -1    0    0    0    0 -0.00000000000E+00 -0.00000000000E+00 -0.74505805969E-08  0.93827000000E+00  0.93827000000E+00 0. -1.
     999902    2    1    2    0    0  0.19932631443E-01 -0.80754250609E-02 -0.85087697240E-02  0.10208016311E+01  0.10205395870E+01 0.  0.
     999903    2    3    3    0    0 -0.21198893237E-01  0.58159962884E-01 -0.11374416237E+00  0.13110875329E+00  0.20488932603E-01 0.  0.
         14    1    1    2    0    0 -0.19932631443E-01  0.80754250609E-02  0.85087697240E-02  0.23128368909E-01  0.00000000000E+00 0.  1.
     999901    1    3    3    0    0  0.41131524680E-01 -0.66235387945E-01  0.10523539265E+00  0.88969287780E+00  0.88000000000E+00 0.  1.
        -11    1    4    4    0    0  0.13842440248E-02  0.25037940011E-01 -0.45807956714E-01  0.52224942229E-01  0.51100000000E-03 0. -1.
         11    1    4    4    0    0 -0.22583137262E-01  0.33122022873E-01 -0.67936205658E-01  0.78883811064E-01  0.51100000000E-03 0.  1.
</event>
<event>
 7    1  0.1177602E+005  0.1043930E+01  0.7957747E-01            NaN
         13   -1    0    0    0    0  0.00000000000E+00  0.00000000000E+00  0.74505805969E-08  0.10566000000E+00  0.10566000000E+00 0. -1.
     999900   -1    0    0    0    0 -0.00000000000E+00 -0.00000000000E+00 -0.74505805969E-08  0.93827000000E+00  0.93827000000E+00 0.  1.
     999903    2    1    2    0    0 -0.28559351661E-01  0.39068296727E-01  0.43386640512E-01  0.67742027890E-01  0.19094852481E-01 0.  0.
         14    1    1    2    0    0 -0.75639986491E-01  0.39841641962E-01 -0.72989743702E-02  0.85802325245E-01  0.00000000000E+00 0. -1.
     999901    1    1    2    0    0  0.10419933815E+00 -0.78909938690E-01 -0.36087666142E-01  0.89038564686E+00  0.88000000000E+00 0.  1.
        -11    1    3    3    0    0 -0.15074179152E-01  0.12095008831E-01  0.27605069457E-01  0.33701944995E-01  0.51100000000E-03 0. -1.
         11    1    3    3    0    0 -0.13485172509E-01  0.26973287897E-01  0.15781571055E-01  0.34040082896E-01  0.51100000000E-03 0.  1.
</event>
<event>
 8    1  0.1177602E+005  0.1043930E+01  0.7957747E-01            NaN
         13   -1    0    0    0    0  0.00000000000E+00  0.00000000000E+00  0.74505805969E-08  0.10566000000E+00  0.10566000000E+00 0. -1.
     999900   -1    0    0    0    0 -0.00000000000E+00 -0.00000000000E+00 -0.74505805969E-08  0.93827000000E+00  0.93827000000E+00 0. -1.
     999902    2    1    2    0    0  0.10101609567E-01  0.17279686952E-01  0.14087999805E-01  0.10194534431E+01  0.10191595660E+01 0.  0.
     999903    2    3    3    0    0 -0.90780347592E-01  0.41839337326E-01 -0.78078375790E-01  0.12856905867E+00  0.21027801240E-01 0.  0.
         14    1    1    2    0    0 -0.10101609567E-01 -0.17279686952E-01 -0.14087999805E-01  0.24476556856E-01  0.00000000000E+00 0. -1.
     999901    1    3    3    0    0  0.10088195716E+00 -0.24559650373E-01  0.92166375595E-01  0.89088438447E+00  0.88000000000E+00 0.  1.
        -11    1    4    4    0    0 -0.65971127038E-01  0.37054267267E-01 -0.49500279249E-01  0.90419837935E-01  0.51100000000E-03 0.  1.
         11    1    4    4    0    0 -0.24809220553E-01  0.47850700587E-02 -0.28578096541E-01  0.38149220737E-01  0.51100000000E-03 0. -1.
</event>
<event>
 8    1  0.1177602E+005  0.1043930E+01  0.7957747E-01            NaN
         13   -1    0    0    0    0  0.00000000000E+00  0.00000000000E+00  0.74505805969E-08  0.10566000000E+00  0.10566000000E+00 0. -1.
     999900   -1    0    0    0    0 -0.00000000000E+00 -0.00000000000E+00 -0.74505805969E-08  0.93827000000E+00  0.93827000000E+00 0.  1.
     999902    2    1    2    0    0  0.22758138173E-02  0.22686079266E-01  0.20472594223E-02  0.10210383248E+01  0.10207816769E+01 0.  0.
     999903    2    3    3    0    0 -0.47996961226E-01  0.10404265148E+00 -0.65412423507E-01  0.13329002009E+00  0.18943671534E-01 0.  0.
         14    1    1    2    0    0 -0.22758138173E-02 -0.22686079266E-01 -0.20472594223E-02  0.22891675171E-01  0.00000000000E+00 0. -1.
     999901    1    3    3    0    0  0.50272775043E-01 -0.81356572216E-01  0.67459682929E-01  0.88774830474E+00  0.88000000000E+00 0. -1.
        -11    1    4    4    0    0 -0.32808401129E-01  0.57784331636E-01 -0.29065791525E-01  0.72529314937E-01  0.51100000000E-03 0.  1.
         11    1    4    4    0    0 -0.15188560097E-01  0.46258319846E-01 -0.36346631981E-01  0.60760705149E-01  0.51100000000E-03 0. -1.
</event>
<event>
 8    1  0.1177602E+005  0.1043930E+01  0.7957747E-01            NaN
         13   -1    0    0    0    0  0.00000000000E+00  0.00000000000E+00  0.74505805969E-08  0.10566000000E+00  0.10566000000E+00 0. -1.
     999900   -1    0    0    0    0 -0.00000000000E+00 -0.00000000000E+00 -0.74505805969E-08  0.93827000000E+00  0.93827000000E+00 0.  1.
     999902    2    1    2    0    0  0.95486041273E-02  0.16498741850E-01  0.15222499421E-01  0.10195351478E+01  0.10192432530E+01 0.  0.
     999903    2    3    3    0    0  0.41048128807E-01 -0.19299103995E-01  0.12217683421E+00  0.13177789748E+00  0.19514895674E-01 0.  0.
         14    1    1    2    0    0 -0.95486041273E-02 -0.16498741850E-01 -0.15222499421E-01  0.24394852163E-01  0.00000000000E+00 0.  1.
     999901    1    3    3    0    0 -0.31499524680E-01  0.35797845845E-01 -0.10695433479E+00  0.88775725035E+00  0.88000000000E+00 0.  1.
        -11    1    4    4    0    0  0.29624254590E-01 -0.19398757457E-01  0.10742957214E+00  0.11311623377E+00  0.51100000000E-03 0.  1.
         11    1    4    4    0    0  0.11423874217E-01  0.99653462476E-04  0.14747262076E-01  0.18661663717E-01  0.51100000000E-03 0. -1.
</event>
<event>
 8    1  0.1177602E+005  0.1043930E+01  0.7957747E-01            NaN
         13   -1    0    0    0    0  0.00000000000E+00  0.00000000000E+00  0.74505805969E-08  0.10566000000E+00  0.10566000000E+00 0. -1.
     999900   -1    0    0    0    0 -0.00000000000E+00 -0.00000000000E+00 -0.74505805969E-08  0.93827000000E+00  0.93827000000E+00 0.  1.
     999902    2    1    2    0    0 -0.10658947959E-01 -0.20890877033E-01 -0.24428451020E-02  0.10203501483E+01  0.10200776518E+01 0.  0.
     999903    2    3    3    0    0 -0.10238571726E+00  0.73014445817E-01 -0.27600776324E-01  0.13025749503E+00  0.19780489445E-01 0.  0.
         14    1    1    2    0    0  0.10658947959E-01  0.20890877033E-01  0.24428451020E-02  0.23579851717E-01  0.00000000000E+00 0.  1.
     999901    1    3    3    0    0  0.91726769297E-01 -0.93905322850E-01  0.25157931222E-01  0.89009265325E+00  0.88000000000E+00 0. -1.
        -11    1    4    4    0    0 -0.81568425154E-01  0.50943552504E-01 -0.14712917398E-01  0.97290208054E-01  0.51100000000E-03 0. -1.
         11    1    4    4    0    0 -0.20817292102E-01  0.22070893313E-01 -0.12887858925E-01  0.32967286979E-01  0.51100000000E-03 0.  1.
</event>
<event>
 8    1  0.1177602E+005  0.1043930E+01  0.7957747E-01            NaN
         13   -1    0    0    0    0  0.00000000000E+00  0.00000000000E+00  0.74505805969E-08  0.10566000000E+00  0.10566000000E+00 0.  1.
     999900   -1    0    0    0    0 -0.00000000000E+00 -0.00000000000E+00 -0.74505805969E-08  0.93827000000E+00  0.93827000000E+00 0.  1.
     999902    2    1    2    0    0 -0.18583689134E-01 -0.80905141965E-03 -0.13691994880E-01  0.10208328402E+01  0.10205715109E+01 0.  0.
     999903    2    3    3    0    0 -0.34427015620E-01  0.78539548433E-01 -0.99531369269E-01  0.13296144780E+00  0.20459058116E-01 0.  0.
         14    1    1    2    0    0  0.18583689134E-01  0.80905141965E-03  0.13691994880E-01  0.23097159778E-01  0.00000000000E+00 0.  1.
     999901    1    3    3    0    0  0.15843326486E-01 -0.79348599853E-01  0.85839374389E-01  0.88787139243E+00  0.88000000000E+00 0. -1.
        -11    1    4    4    0    0 -0.25001806664E-01  0.72536932112E-01 -0.89990382340E-01  0.11825915141E+00  0.51100000000E-03 0.  1.
         11    1    4    4    0    0 -0.94252089555E-02  0.60026163210E-02 -0.95409869290E-02  0.14702296390E-01  0.51100000000E-03 0. -1.
</event>
<event>
 8    1  0.1177602E+005  0.1043930E+01  0.7957747E-01            NaN
         13   -1    0    0    0    0  0.00000000000E+00  0.00000000000E+00  0.74505805969E-08  0.10566000000E+00  0.10566000000E+00 0. -1.
     999900   -1    0    0    0    0 -0.00000000000E+00 -0.00000000000E+00 -0.74505805969E-08  0.93827000000E+00  0.93827000000E+00 0. -1.
     999902    2    1    2    0    0  0.26537272920E-03 -0.18003713591E-01  0.15290420344E-01  0.10203079535E+01  0.10200344695E+01 0.  0.
     999903    2    3    3    0    0  0.10195088175E+00 -0.15668624078E-01  0.79994187959E-01  0.13208952715E+00  0.20225849971E-01 0.  0.
         14    1    1    2    0    0 -0.26537272920E-03  0.18003713591E-01 -0.15290420344E-01  0.23622046483E-01  0.00000000000E+00 0.  1.
     999901    1    3    3    0    0 -0.10168550902E+00 -0.23350895125E-02 -0.64703767615E-01  0.88821842636E+00  0.88000000000E+00 0. -1.
        -11    1    4    4    0    0  0.31746769006E-01 -0.11842767180E-01  0.18103974494E-01  0.38420352553E-01  0.51100000000E-03 0.  1.
         11    1    4    4    0    0  0.70204112741E-01 -0.38258568982E-02  0.61890213464E-01  0.93669174601E-01  0.51100000000E-03 0. -1.
</event>
<event>
 8    1  0.1177602E+005  0.1043930E+01  0.7957747E-01            NaN
         13   -1    0    0    0    0  0.00000000000E+00  0.00000000000E+00  0.74505805969E-08  0.10566000000E+00  0.10566000000E+00 0.  1.
     999900   -1    0    0    0    0 -0.00000000000E+00 -0.00000000000E+00 -0.74505805969E-08  0.93827000000E+00  0.93827000000E+00 0.  1.
     999902    2    1    2    0    0  0.19034920360E-01 -0.56630951610E-02  0.15408667066E-01  0.10187938535E+01  0.10184837211E+01 0.  0.
     999903    2    3    3    0    0 -0.11633177545E+00 -0.43035810927E-01  0.22108651104E-01  0.12763407434E+00  0.20408367802E-01 0.  0.
         14    1    1    2    0    0 -0.19034920360E-01  0.56630951610E-02 -0.15408667066E-01  0.25136146496E-01  0.00000000000E+00 0. -1.
     999901    1    3    3    0    0  0.13536669581E+00  0.37372715766E-01 -0.66999840386E-02  0.89115977917E+00  0.88000000000E+00 0.  1.
        -11    1    4    4    0    0 -0.78882114077E-01 -0.22564481138E-01  0.22020770701E-01  0.84951275409E-01  0.51100000000E-03 0.  1.
         11    1    4    4    0    0 -0.37449661374E-01 -0.20471329789E-01  0.87880403445E-04  0.42682798928E-01  0.51100000000E-03 0. -1.
</event>
<event>
 8    1  0.1177602E+005  0.1043930E+01  0.7957747E-01            NaN
         13   -1    0    0    0    0  0.00000000000E+00  0.00000000000E+00  0.74505805969E-08  0.10566000000E+00  0.10566000000E+00 0. -1.
     999900   -1    0    0    0    0 -0.00000000000E+00 -0.00000000000E+00 -0.74505805969E-08  0.93827000000E+00  0.93827000000E+00 0. -1.
     999902    2    1    2    0    0 -0.20619705110E-01  0.99843353401E-02  0.50239931364E-02  0.10204757957E+01  0.10202062291E+01 0.  0.
     999903    2    3    3    0    0  0.94731008924E-01 -0.75637566432E-01  0.36861198556E-01  0.12825917128E+00  0.19916363906E-01 0.  0.
         14    1    1    2    0    0  0.20619705110E-01 -0.99843353401E-02 -0.50239931364E-02  0.23454204272E-01  0.00000000000E+00 0.  1.
     999901    1    3    3    0    0 -0.11535071403E+00  0.85621901772E-01 -0.31837205419E-01  0.89221662445E+00  0.88000000000E+00 0. -1.
        -11    1    4    4    0    0  0.39396826477E-01 -0.26676489765E-01  0.23889155814E-01  0.53241881345E-01  0.51100000000E-03 0. -1.
         11    1    4    4    0    0  0.55334182447E-01 -0.48961076666E-01  0.12972042741E-01  0.75017289936E-01  0.51100000000E-03 0.  1.
</event>
<event>
 8    1  0.1177602E+005  0.1043930E+01  0.7957747E-01            NaN
         13   -1    0    0    0    0  0.00000000000E+00  0.00000000000E+00  0.74505805969E-08  0.10566000000E+00  0.10566000000E+00 0. -1.
     999900   -1    0    0    0    0 -0.00000000000E+00 -0.00000000000E+00 -0.74505805969E-08  0.93827000000E+00  0.93827000000E+00 0.  1.
     999902    2    1    2    0    0 -0.15758689009E-01 -0.70681825876E-02 -0.18152244556E-01  0.10188740732E+01  0.10185659417E+01 0.  0.
     999903    2    3    3    0    0  0.58758232819E-01 -0.47780325678E-01  0.99973734734E-01  0.12693013035E+00  0.19519756892E-01 0.  0.
         14    1    1    2    0    0  0.15758689009E-01  0.70681825876E-02  0.18152244556E-01  0.25055926779E-01  0.00000000000E+00 0. -1.
     999901    1    3    3    0    0 -0.74516921827E-01  0.40712143091E-01 -0.11812597929E+00  0.89194394287E+00  0.88000000000E+00 0.  1.
        -11    1    4    4    0    0  0.35934205590E-01 -0.34761983180E-01  0.51426752782E-01  0.71726108417E-01  0.51100000000E-03 0.  1.
         11    1    4    4    0    0  0.22824027229E-01 -0.13018342498E-01  0.48546981952E-01  0.55204021937E-01  0.51100000000E-03 0. -1.
</event>
<event>
 8    1  0.1177602E+005  0.1043930E+01  0.7957747E-01            NaN
         13   -1    0    0    0    0  0.00000000000E+00  0.00000000000E+00  0.74505805969E-08  0.10566000000E+00  0.10566000000E+00 0. -1.
     999900   -1    0    0    0    0 -0.00000000000E+00 -0.00000000000E+00 -0.74505805969E-08  0.93827000000E+00  0.93827000000E+00 0. -1.
     999902    2    1    2    0    0 -0.14638453030E-01 -0.15983163991E-01  0.32876839172E-02  0.10220084420E+01  0.10217733119E+01 0.  0.
     999903    2    3    3    0    0 -0.38604032491E-01 -0.66196444066E-01  0.10810604844E+00  0.13404300800E+00  0.20208160533E-01 0.  0.
         14    1    1    2    0    0  0.14638453030E-01  0.15983163991E-01 -0.32876839172E-02  0.21921557970E-01  0.00000000000E+00 0.  1.
     999901    1    3    3    0    0  0.23965579461E-01  0.50213280076E-01 -0.10481836452E+00  0.88796543403E+00  0.88000000000E+00 0. -1.
        -11    1    4    4    0    0 -0.20886581398E-01 -0.34266847337E-01  0.73436589720E-01  0.83687872117E-01  0.51100000000E-03 0. -1.
         11    1    4    4    0    0 -0.17717451094E-01 -0.31929596730E-01  0.34669458721E-01  0.50355135881E-01  0.51100000000E-03 0.  1.
</event>
<event>
 8    1  0.1177602E+005  0.1043930E+01  0.7957747E-01            NaN
         13   -1    0    0    0    0  0.00000000000E+00  0.00000000000E+00  0.74505805969E-08  0.10566000000E+00  0.10566000000E+00 0.  1.
     999900   -1    0    0    0    0 -0.00000000000E+00 -0.00000000000E+00 -0.74505805969E-08  0.93827000000E+00  0.93827000000E+00 0. -1.
     999902    2    1    2    0    0  0.15752087650E-01  0.16418974328E-02  0.16705400392E-01  0.10209105627E+01  0.10206510092E+01 0.  0.
     999903    2    3    3    0    0 -0.11678315507E+00 -0.44081479328E-01 -0.24560463228E-01  0.12885726312E+00  0.20481596062E-01 0.  0.
         14    1    1    2    0    0 -0.15752087650E-01 -0.16418974328E-02 -0.16705400392E-01  0.23019437325E-01  0.00000000000E+00 0. -1.
     999901    1    3    3    0    0  0.13253524272E+00  0.45723376761E-01  0.41265863620E-01  0.89205329955E+00  0.88000000000E+00 0. -1.
        -11    1    4    4    0    0 -0.62602440492E-01 -0.34326298490E-01 -0.12199526232E-01  0.72432381466E-01  0.51100000000E-03 0.  1.
         11    1    4    4    0    0 -0.54180714577E-01 -0.97551808384E-02 -0.12360936996E-01  0.56424881655E-01  0.51100000000E-03 0. -1.
</event>
<event>
 8    1  0.1177602E+005  0.1043930E+01  0.7957747E-01            NaN
         13   -1    0    0    0    0  0.00000000000E+00  0.00000000000E+00  0.74505805969E-08  0.10566000000E+00  0.10566000000E+00 0. -1.
     999900   -1    0    0    0    0 -0.00000000000E+00 -0.00000000000E+00 -0.74505805969E-08  0.93827000000E+00  0.93827000000E+00 0. -1.
     999902    2    1    2    0    0 -0.15999149217E-01  0.16293275603E-01 -0.46217757207E-02  0.10206318366E+01  0.10203658861E+01 0.  0.
     999903    2    3    3    0    0  0.74445935932E-01  0.74110306826E-01 -0.76092620392E-01  0.13123248641E+00  0.19933480824E-01 0.  0.
         14    1    1    2    0    0  0.15999149217E-01 -0.16293275603E-01  0.46217757207E-02  0.23298163369E-01  0.00000000000E+00 0. -1.
     999901    1    3    3    0    0 -0.90445085150E-01 -0.57817031223E-01  0.71470844672E-01  0.88939935022E+00  0.88000000000E+00 0. -1.
        -11    1    4    4    0    0  0.35895902568E-01  0.26259954650E-01 -0.40867250429E-01  0.60402767470E-01  0.51100000000E-03 0. -1.
         11    1    4    4    0    0  0.38550033364E-01  0.47850352176E-01 -0.35225369963E-01  0.70829718945E-01  0.51100000000E-03 0.  1.
</event>
<event>
 8    1  0.1177602E+005  0.1043930E+01  0.7957747E-01            NaN
         13   -1    0    0    0    0  0.00000000000E+00  0.00000000000E+00  0.74505805969E-08  0.10566000000E+00  0.10566000000E+00 0. -1.
     999900   -1    0    0    0    0 -0.00000000000E+00 -0.00000000000E+00 -0.74505805969E-08  0.93827000000E+00  0.93827000000E+00 0.  1.
     999902    2    1    2    0    0 -0.47374931781E-02 -0.23226445684E-01  0.10724608501E-02  0.10202010769E+01  0.10199250833E+01 0.  0.
     999903    2    3    3    0    0  0.51490689716E-01 -0.31616433727E-01  0.11427762230E+00  0.13112998352E+00  0.22018347133E-01 0.  0.
         14    1    1    2    0    0  0.47374931781E-02  0.23226445684E-01 -0.10724608501E-02  0.23728923132E-01  0.00000000000E+00 0.  1.
     999901    1    3    3    0    0 -0.56228182894E-01  0.83899880436E-02 -0.11320516145E+00  0.88907109335E+00  0.88000000000E+00 0.  1.
        -11    1    4    4    0    0  0.25290995936E-01 -0.19573904251E-01  0.38516665756E-01  0.50065625584E-01  0.51100000000E-03 0. -1.
         11    1    4    4    0    0  0.26199693780E-01 -0.12042529476E-01  0.75760956542E-01  0.81064357935E-01  0.51100000000E-03 0.  1.
</event>
<event>
 8    1  0.1177602E+005  0.1043930E+01  0.7957747E-01            NaN
         13   -1    0    0    0    0  0.00000000000E+00  0.00000000000E+00  0.74505805969E-08  0.10566000000E+00  0.10566000000E+00 0.  1.
     999900   -1    0    0    0    0 -0.00000000000E+00 -0.00000000000E+00 -0.74505805969E-08  0.93827000000E+00  0.93827000000E+00 0. -1.
     999902    2    1    2    0    0 -0.21265219946E-01 -0.94686694557E-02 -0.16646639150E-02  0.10205925540E+01  0.10203256955E+01 0.  0.
     999903    2    3    3    0    0  0.72311643881E-01 -0.96425068674E-01 -0.45460747707E-01  0.13029140170E+00  0.19555103283E-01 0.  0.
         14    1    1    2    0    0  0.21265219946E-01  0.94686694557E-02  0.16646639150E-02  0.23337446016E-01  0.00000000000E+00 0.  1.
     999901    1    3    3    0    0 -0.93576863827E-01  0.86956399219E-01  0.43796083792E-01  0.89030115229E+00  0.88000000000E+00 0.  1.
        -11    1    4    4    0    0  0.49754149545E-01 -0.79662127153E-01 -0.33117109734E-01  0.99591836903E-01  0.51100000000E-03 0. -1.
         11    1    4    4    0    0  0.22557494335E-01 -0.16762941522E-01 -0.12343637972E-01  0.30699564794E-01  0.51100000000E-03 0.  1.
</event>
<event>
 8    1  0.1177602E+005  0.1043930E+01  0.7957747E-01            NaN
         13   -1    0    0    0    0  0.00000000000E+00  0.00000000000E+00  0.74505805969E-08  0.10566000000E+00  0.10566000000E+00 0. -1.
     999900   -1    0    0    0    0 -0.00000000000E+00 -0.00000000000E+00 -0.74505805969E-08  0.93827000000E+00  0.93827000000E+00 0.  1.
     999902    2    1    2    0    0 -0.87638108476E-02  0.22196240195E-01 -0.14363578872E-03  0.10200658409E+01  0.10197866550E+01 0.  0.
     999903    2    3    3    0    0 -0.14185090494E-01  0.70609750043E-01 -0.10896335456E+00  0.13202587027E+00  0.19257834462E-01 0.  0.
         14    1    1    2    0    0  0.87638108476E-02 -0.22196240195E-01  0.14363578872E-03  0.23864159122E-01  0.00000000000E+00 0.  1.
     999901    1    3    3    0    0  0.54212796463E-02 -0.48413509848E-01  0.10881971878E+00  0.88803997061E+00  0.88000000000E+00 0. -1.
        -11    1    4    4    0    0 -0.14238914063E-01  0.23985485849E-01 -0.42468606453E-01  0.50812339645E-01  0.51100000000E-03 0. -1.
         11    1    4    4    0    0  0.53823569508E-04  0.46624264194E-01 -0.66494748112E-01  0.81213530622E-01  0.51100000000E-03 0.  1.
</event>
<event>
 8    1  0.1177602E+005  0.1043930E+01  0.7957747E-01            NaN
         13   -1    0    0    0    0  0.00000000000E+00  0.00000000000E+00  0.74505805969E-08  0.10566000000E+00  0.10566000000E+00 0.  1.
     999900   -1    0    0    0    0 -0.00000000000E+00 -0.00000000000E+00 -0.74505805969E-08  0.93827000000E+00  0.93827000000E+00 0.  1.
     999902    2    1    2    0    0 -0.21962069913E-01 -0.64260165351E-02  0.50558768449E-02  0.10204952375E+01  0.10202261228E+01 0.  0.
     999903    2    3    3    0    0 -0.11727283213E+00 -0.41911285741E-01  0.44665558414E-01  0.13375273112E+00  0.19629262476E-01 0.  0.
         14    1    1    2    0    0  0.21962069913E-01  0.64260165351E-02 -0.50558768449E-02  0.23434762513E-01  0.00000000000E+00 0.  1.
     999901    1    3    3    0    0  0.95310762217E-01  0.35485269206E-01 -0.39609681569E-01  0.88674250637E+00  0.88000000000E+00 0.  1.
        -11    1    4    4    0    0 -0.10482462152E+00 -0.41231105365E-01  0.34954786718E-01  0.11794194997E+00  0.51100000000E-03 0.  1.
         11    1    4    4    0    0 -0.12448210608E-01 -0.68018037612E-03  0.97107716962E-02  0.15810781151E-01  0.51100000000E-03 0. -1.
</event>
<event>
 8    1  0.1177602E+005  0.1043930E+01  0.7957747E-01            NaN
         13   -1    0    0    0    0  0.00000000000E+00  0.00000000000E+00  0.74505805969E-08  0.10566000000E+00  0.10566000000E+00 0. -1.
     999900   -1    0    0    0    0 -0.00000000000E+00 -0.00000000000E+00 -0.74505805969E-08  0.93827000000E+00  0.93827000000E+00 0.  1.
     999902    2    1    2    0    0 -0.11456531394E-01  0.18942448243E-03 -0.20866397815E-01  0.10201246529E+01  0.10198468576E+01 0.  0.
     999903    2    3    3    0    0  0.31083084694E-01  0.87008238508E-01 -0.92071570701E-01  0.13197077993E+00  0.20062923568E-01 0.  0.
         14    1    1    2    0    0  0.11456531394E-01 -0.18942448243E-03  0.20866397815E-01  0.23805347109E-01  0.00000000000E+00 0. -1.
     999901    1    3    3    0    0 -0.42539616088E-01 -0.86818814025E-01  0.71205172886E-01  0.88815387296E+00  0.88000000000E+00 0. -1.
        -11    1    4    4    0    0  0.32572860619E-01  0.69714710190E-01 -0.78558174517E-01  0.10996717679E+00  0.51100000000E-03 0.  1.
         11    1    4    4    0    0 -0.14897759250E-02  0.17293528317E-01 -0.13513396185E-01  0.22003603146E-01  0.51100000000E-03 0. -1.
</event>
<event>
 8    1  0.1177602E+005  0.1043930E+01  0.7957747E-01            NaN
         13   -1    0    0    0    0  0.00000000000E+00  0.00000000000E+00  0.74505805969E-08  0.10566000000E+00  0.10566000000E+00 0. -1.
     999900   -1    0    0    0    0 -0.00000000000E+00 -0.00000000000E+00 -0.74505805969E-08  0.93827000000E+00  0.93827000000E+00 0.  1.
     999902    2    1    2    0    0 -0.50610251910E-02  0.17197384024E-01  0.15547202315E-01  0.10202007039E+01  0.10199247015E+01 0.  0.
     999903    2    3    3    0    0 -0.87021349847E-01  0.83630346656E-01 -0.48699979136E-01  0.13157337276E+00  0.19316165250E-01 0.  0.
         14    1    1    2    0    0  0.50610251910E-02 -0.17197384024E-01 -0.15547202315E-01  0.23729296093E-01  0.00000000000E+00 0.  1.
     999901    1    3    3    0    0  0.81960324656E-01 -0.66432962632E-01  0.64247181451E-01  0.88862733115E+00  0.88000000000E+00 0. -1.
        -11    1    4    4    0    0 -0.78475690477E-01  0.72816570404E-01 -0.49092950113E-01  0.11777548893E+00  0.51100000000E-03 0.  1.
         11    1    4    4    0    0 -0.85456593703E-02  0.10813776251E-01  0.39297097672E-03  0.13797883826E-01  0.51100000000E-03 0. -1.
</event>
<event>
 8    1  0.1177602E+005  0.1043930E+01  0.7957747E-01            NaN
         13   -1    0    0    0    0  0.00000000000E+00  0.00000000000E+00  0.74505805969E-08  0.10566000000E+00  0.10566000000E+00 0.  1.
     999900   -1    0    0    0    0 -0.00000000000E+00 -0.00000000000E+00 -0.74505805969E-08  0.93827000000E+00  0.93827000000E+00 0.  1.
     999902    2    1    2    0    0  0.60510113827E-02 -0.11876112635E-01  0.19696489219E-01  0.10201474754E+01  0.10198702187E+01 0.  0.
     999903    2    3    3    0    0  0.59169211148E-01  0.41663944130E-01 -0.10425089468E+00  0.12826685847E+00  0.18634863893E-01 0.  0.
         14    1    1    2    0    0 -0.60510113827E-02  0.11876112635E-01 -0.19696489219E-01  0.23782524627E-01  0.00000000000E+00 0. -1.
     999901    1    3    3    0    0 -0.53118199766E-01 -0.53540056765E-01  0.12394738390E+00  0.89188061690E+00  0.88000000000E+00 0. -1.
        -11    1    4    4    0    0  0.11236774502E-01  0.13237350158E-01 -0.37369089616E-01  0.41209252846E-01  0.51100000000E-03 0. -1.
         11    1    4    4    0    0  0.47932436646E-01  0.28426593972E-01 -0.66881805066E-01  0.87057605627E-01  0.51100000000E-03 0.  1.
</event>
<event>
 8    1  0.1177602E+005  0.1043930E+01  0.7957747E-01            NaN
         13   -1    0    0    0    0  0.00000000000E+00  0.00000000000E+00  0.74505805969E-08  0.10566000000E+00  0.10566000000E+00 0. -1.
     999900   -1    0    0    0    0 -0.00000000000E+00 -0.00000000000E+00 -0.74505805969E-08  0.93827000000E+00  0.93827000000E+00 0. -1.
     999902    2    1    2    0    0  0.15078278800E-01  0.89677666159E-02 -0.15769643571E-01  0.10203406594E+01  0.10200679410E+01 0.  0.
     999903    2    3    3    0    0 -0.75728280980E-01  0.75568845545E-01  0.69422522673E-01  0.12908354715E+00  0.19941226995E-01 0.  0.
         14    1    1    2    0    0 -0.15078278800E-01 -0.89677666159E-02  0.15769643571E-01  0.23589340559E-01  0.00000000000E+00 0. -1.
     999901    1    3    3    0    0  0.90806559781E-01 -0.66601078929E-01 -0.85192166244E-01  0.89125711229E+00  0.88000000000E+00 0. -1.
        -11    1    4    4    0    0 -0.24372800955E-02  0.70758720861E-02  0.99613039190E-02  0.12469843496E-01  0.51100000000E-03 0.  1.
         11    1    4    4    0    0 -0.73291000885E-01  0.68492973459E-01  0.59461218754E-01  0.11661370366E+00  0.51100000000E-03 0. -1.
</event>
<event>
 8    1  0.1177602E+005  0.1043930E+01  0.7957747E-01            NaN
         13   -1    0    0    0    0  0.00000000000E+00  0.00000000000E+00  0.74505805969E-08  0.10566000000E+00  0.10566000000E+00 0.  1.
     999900   -1    0    0    0    0 -0.00000000000E+00 -0.00000000000E+00 -0.74505805969E-08  0.93827000000E+00  0.93827000000E+00 0.  1.
     999902    2    1    2    0    0 -0.29097953397E-02  0.16563893783E-01  0.17754176399E-01  0.10194751382E+01  0.10191817881E+01 0.  0.
     999903    2    3    3    0    0  0.10676485134E+00 -0.59309588871E-01 -0.32452613126E-01  0.12801227570E+00  0.20435503890E-01 0.  0.
         14    1    1    2    0    0  0.29097953397E-02 -0.16563893783E-01 -0.17754176399E-01  0.24454861802E-01  0.00000000000E+00 0. -1.
     999901    1    3    3    0    0 -0.10967464667E+00  0.75873482654E-01  0.50206789525E-01  0.89146286249E+00  0.88000000000E+00 0.  1.
        -11    1    4    4    0    0  0.71788695984E-01 -0.39368889769E-01 -0.31528339452E-01  0.87737242162E-01  0.51100000000E-03 0. -1.
         11    1    4    4    0    0  0.34976155351E-01 -0.19940699102E-01 -0.92427367405E-03  0.40275033540E-01  0.51100000000E-03 0.  1.
</event>
<event>
 8    1  0.1177602E+005  0.1043930E+01  0.7957747E-01            NaN
         13   -1    0    0    0    0  0.00000000000E+00  0.00000000000E+00  0.74505805969E-08  0.10566000000E+00  0.10566000000E+00 0.  1.
     999900   -1    0    0    0    0 -0.00000000000E+00 -0.00000000000E+00 -0.74505805969E-08  0.93827000000E+00  0.93827000000E+00 0. -1.
     999902    2    1    2    0    0 -0.21778765302E-01  0.37029009128E-02  0.51996724326E-02  0.10212350075E+01  0.10209827999E+01 0.  0.
     999903    2    3    3    0    0 -0.59899183331E-01  0.39025864226E-01 -0.10957311328E+00  0.13226162745E+00  0.19389190297E-01 0.  0.
         14    1    1    2    0    0  0.21778765302E-01 -0.37029009128E-02 -0.51996724326E-02  0.22694992546E-01  0.00000000000E+00 0.  1.
     999901    1    3    3    0    0  0.38120418028E-01 -0.35322963314E-01  0.11477278571E+00  0.88897338000E+00  0.88000000000E+00 0.  1.
        -11    1    4    4    0    0 -0.48837546232E-01  0.35255875353E-01 -0.10157049981E+00  0.11808856939E+00  0.51100000000E-03 0. -1.
         11    1    4    4    0    0 -0.11061637099E-01  0.37699888731E-02 -0.80026134717E-02  0.14173058061E-01  0.51100000000E-03 0.  1.
</event>
<event>
 8    1  0.1177602E+005  0.1043930E+01  0.7957747E-01            NaN
         13   -1    0    0    0    0  0.00000000000E+00  0.00000000000E+00  0.74505805969E-08  0.10566000000E+00  0.10566000000E+00 0.  1.
     999900   -1    0    0    0    0 -0.00000000000E+00 -0.00000000000E+00 -0.74505805969E-08  0.93827000000E+00  0.93827000000E+00 0.  1.
     999902    2    1    2    0    0 -0.15053106600E-01 -0.15448979101E-01  0.13060729249E-01  0.10187139412E+01  0.10184018089E+01 0.  0.
     999903    2    3    3    0    0  0.12552876481E+00  0.30748983544E-03  0.78992110094E-02  0.12740133040E+00  0.20276491522E-01 0.  0.
         14    1    1    2    0    0  0.15053106600E-01  0.15448979101E-01 -0.13060729249E-01  0.25216058814E-01  0.00000000000E+00 0. -1.
     999901    1    3    3    0    0 -0.14058187141E+00 -0.15756468937E-01  0.51615182400E-02  0.89131261079E+00  0.88000000000E+00 0. -1.
        -11    1    4    4    0    0  0.12047383042E+00 -0.36884286976E-02  0.60719482653E-02  0.12068420775E+00  0.51100000000E-03 0. -1.
         11    1    4    4    0    0  0.50549343844E-02  0.39959185331E-02  0.18272627440E-02  0.67171226496E-02  0.51100000000E-03 0.  1.
</event>
<event>
 8    1  0.1177602E+005  0.1043930E+01  0.7957747E-01            NaN
         13   -1    0    0    0    0  0.00000000000E+00  0.00000000000E+00  0.74505805969E-08  0.10566000000E+00  0.10566000000E+00 0. -1.
     999900   -1    0    0    0    0 -0.00000000000E+00 -0.00000000000E+00 -0.74505805969E-08  0.93827000000E+00  0.93827000000E+00 0. -1.
     999902    2    1    2    0    0 -0.21075811017E-02  0.22329570340E-01  0.51712915827E-02  0.10209127485E+01  0.10206532448E+01 0.  0.
     999903    2    3    3    0    0 -0.26497399817E-01  0.12662419310E+00 -0.27787549504E-01  0.13380592473E+00  0.19901736349E-01 0.  0.
         14    1    1    2    0    0  0.21075811017E-02 -0.22329570340E-01 -0.51712915827E-02  0.23017251493E-01  0.00000000000E+00 0. -1.
     999901    1    3    3    0    0  0.24389818716E-01 -0.10429462276E+00  0.32958841087E-01  0.88710682378E+00  0.88000000000E+00 0.  1.
        -11    1    4    4    0    0 -0.12828898082E-01  0.89431163944E-01 -0.26509423722E-01  0.94156913593E-01  0.51100000000E-03 0. -1.
         11    1    4    4    0    0 -0.13668501735E-01  0.37193029153E-01 -0.12781257829E-02  0.39649011132E-01  0.51100000000E-03 0.  1.
</event>
<event>
 8    1  0.1177602E+005  0.1043930E+01  0.7957747E-01            NaN
         13   -1    0    0    0    0  0.00000000000E+00  0.00000000000E+00  0.74505805969E-08  0.10566000000E+00  0.10566000000E+00 0.  1.
     999900   -1    0    0    0    0 -0.00000000000E+00 -0.00000000000E+00 -0.74505805969E-08  0.93827000000E+00  0.93827000000E+00 0. -1.
     999902    2    1    2    0    0  0.17698005887E-01  0.70326367497E-02 -0.13925140283E-01  0.10203379055E+01  0.10200651226E+01 0.  0.
     999903    2    3    3    0    0 -0.15186554441E-01 -0.18621723521E-01 -0.12820989227E+00  0.13196830613E+00  0.20011429811E-01 0.  0.
         14    1    1    2    0    0 -0.17698005887E-01 -0.70326367497E-02  0.13925140283E-01  0.23592094522E-01  0.00000000000E+00 0. -1.
     999901    1    3    3    0    0  0.32884560327E-01  0.25654360270E-01  0.11428475199E+00  0.88836959935E+00  0.88000000000E+00 0.  1.
        -11    1    4    4    0    0 -0.71767567715E-02 -0.18911055683E-01 -0.60724888054E-01  0.64007085662E-01  0.51100000000E-03 0.  1.
         11    1    4    4    0    0 -0.80097976690E-02  0.28933216231E-03 -0.67485004220E-01  0.67961220467E-01  0.51100000000E-03 0. -1.
</event>
<event>
 8    1  0.1177602E+005  0.1043930E+01  0.7957747E-01            NaN
         13   -1    0    0    0    0  0.00000000000E+00  0.00000000000E+00  0.74505805969E-08  0.10566000000E+00  0.10566000000E+00 0. -1.
     999900   -1    0    0    0    0 -0.00000000000E+00 -0.00000000000E+00 -0.74505805969E-08  0.93827000000E+00  0.93827000000E+00 0. -1.
     999902    2    1    2    0    0 -0.25630897325E-02  0.23494338730E-01  0.28221202962E-02  0.10201283668E+01  0.10198506591E+01 0.  0.
     999903    2    3    3    0    0 -0.58266034754E-01  0.11533358199E+00  0.25510137610E-01  0.13330707090E+00  0.20572848364E-01 0.  0.
         14    1    1    2    0    0  0.25630897325E-02 -0.23494338730E-01 -0.28221202962E-02  0.23801633228E-01  0.00000000000E+00 0. -1.
     999901    1    3    3    0    0  0.55702945021E-01 -0.91839243260E-01 -0.22688017314E-01  0.88682129587E+00  0.88000000000E+00 0.  1.
        -11    1    4    4    0    0 -0.23783240846E-01  0.62900434381E-01  0.20712504180E-01  0.70366015525E-01  0.51100000000E-03 0.  1.
         11    1    4    4    0    0 -0.34482793908E-01  0.52433147609E-01  0.47976334300E-02  0.62941055373E-01  0.51100000000E-03 0. -1.
</event>
<event>
 8    1  0.1177602E+005  0.1043930E+01  0.7957747E-01            NaN
         13   -1    0    0    0    0  0.00000000000E+00  0.00000000000E+00  0.74505805969E-08  0.10566000000E+00  0.10566000000E+00 0. -1.
     999900   -1    0    0    0    0 -0.00000000000E+00 -0.00000000000E+00 -0.74505805969E-08  0.93827000000E+00  0.93827000000E+00 0.  1.
     999902    2    1    2    0    0  0.30880293008E-03  0.24341661153E-01 -0.24364556205E-02  0.10194647564E+01  0.10191711542E+01 0.  0.
     999903    2    3    3    0    0 -0.61398409116E-01  0.95789100675E-01 -0.64742650649E-01  0.13222489113E+00  0.18614364675E-01 0.  0.
         14    1    1    2    0    0 -0.30880293008E-03 -0.24341661153E-01  0.24364556205E-02  0.24465243569E-01  0.00000000000E+00 0.  1.
     999901    1    3    3    0    0  0.61707212046E-01 -0.71447439522E-01  0.62306195029E-01  0.88723986530E+00  0.88000000000E+00 0. -1.
        -11    1    4    4    0    0 -0.11279730203E-01  0.20902626526E-01 -0.55076136766E-02  0.24387436079E-01  0.51100000000E-03 0. -1.
         11    1    4    4    0    0 -0.50118678913E-01  0.74886474149E-01 -0.59235036973E-01  0.10783745505E+00  0.51100000000E-03 0.  1.
</event>
<event>
 8    1  0.1177602E+005  0.1043930E+01  0.7957747E-01            NaN
         13   -1    0    0    0    0  0.00000000000E+00  0.00000000000E+00  0.74505805969E-08  0.10566000000E+00  0.10566000000E+00 0. -1.
     999900   -1    0    0    0    0 -0.00000000000E+00 -0.00000000000E+00 -0.74505805969E-08  0.93827000000E+00  0.93827000000E+00 0.  1.
     999902    2    1    2    0    0 -0.13032281935E-01  0.22900863587E-02 -0.19746087438E-01  0.10201604220E+01  0.10198834707E+01 0.  0.
     999903    2    3    3    0    0  0.52755274746E-01 -0.10649458207E+00 -0.50074516297E-01  0.13050772558E+00  0.20014850234E-01 0.  0.
         14    1    1    2    0    0  0.13032281935E-01 -0.22900863587E-02  0.19746087438E-01  0.23769577974E-01  0.00000000000E+00 0. -1.
     999901    1    3    3    0    0 -0.65787556680E-01  0.10878466843E+00  0.30328428859E-01  0.88965269645E+00  0.88000000000E+00 0.  1.
        -11    1    4    4    0    0  0.45811940155E-01 -0.78004903730E-01 -0.43827826148E-01  0.10052183013E+00  0.51100000000E-03 0. -1.
         11    1    4    4    0    0  0.69433345907E-02 -0.28489678339E-01 -0.62466901483E-02  0.29985895450E-01  0.51100000000E-03 0.  1.
</event>
<event>
 8    1  0.1177602E+005  0.1043930E+01  0.7957747E-01            NaN
         13   -1    0    0    0    0  0.00000000000E+00  0.00000000000E+00  0.74505805969E-08  0.10566000000E+00  0.10566000000E+00 0.  1.
     999900   -1    0    0    0    0 -0.00000000000E+00 -0.00000000000E+00 -0.74505805969E-08  0.93827000000E+00  0.93827000000E+00 0.  1.
     999902    2    1    2    0    0  0.14573692915E-01 -0.74485576784E-02  0.16230920611E-01  0.10208797002E+01  0.10206194423E+01 0.  0.
     999903    2    3    3    0    0 -0.80367509071E-01 -0.23049622886E-01 -0.95715965397E-01  0.12858528111E+00  0.19555225802E-01 0.  0.
         14    1    1    2    0    0 -0.14573692915E-01  0.74485576784E-02 -0.16230920611E-01  0.23050299793E-01  0.00000000000E+00 0.  1.
     999901    1    3    3    0    0  0.94941201985E-01  0.15601065208E-01  0.11194688601E+00  0.89229441910E+00  0.88000000000E+00 0. -1.
        -11    1    4    4    0    0 -0.20604315782E-01  0.17985322293E-02 -0.29085524483E-01  0.35693156241E-01  0.51100000000E-03 0.  1.
         11    1    4    4    0    0 -0.59763193289E-01 -0.24848155116E-01 -0.66630440913E-01  0.92892124866E-01  0.51100000000E-03 0. -1.
</event>
<event>
 8    1  0.1177602E+005  0.1043930E+01  0.7957747E-01            NaN
         13   -1    0    0    0    0  0.00000000000E+00  0.00000000000E+00  0.74505805969E-08  0.10566000000E+00  0.10566000000E+00 0.  1.
     999900   -1    0    0    0    0 -0.00000000000E+00 -0.00000000000E+00 -0.74505805969E-08  0.93827000000E+00  0.93827000000E+00 0.  1.
     999902    2    1    2    0    0 -0.22442867339E-01  0.73203529673E-02 -0.20832541477E-03  0.10203225168E+01  0.10200493739E+01 0.  0.
     999903    2    3    3    0    0  0.70087471915E-01  0.89221721053E-01 -0.59380862807E-01  0.12972098587E+00  0.20704542491E-01 0.  0.
         14    1    1    2    0    0  0.22442867339E-01 -0.73203529673E-02  0.20832541477E-03  0.23607483166E-01  0.00000000000E+00 0.  1.
     999901    1    3    3    0    0 -0.92530339254E-01 -0.81901368086E-01  0.59172537393E-01  0.89060153097E+00  0.88000000000E+00 0.  1.
        -11    1    4    4    0    0  0.35575376639E-01  0.55412481283E-01 -0.25071430827E-01  0.70462672882E-01  0.51100000000E-03 0. -1.
         11    1    4    4    0    0  0.34512095276E-01  0.33809239770E-01 -0.34309431980E-01  0.59258312986E-01  0.51100000000E-03 0.  1.
</event>
<event>
 8    1  0.1177602E+005  0.1043930E+01  0.7957747E-01            NaN
         13   -1    0    0    0    0  0.00000000000E+00  0.00000000000E+00  0.74505805969E-08  0.10566000000E+00  0.10566000000E+00 0.  1.
     999900   -1    0    0    0    0 -0.00000000000E+00 -0.00000000000E+00 -0.74505805969E-08  0.93827000000E+00  0.93827000000E+00 0.  1.
     999902    2    1    2    0    0  0.13682423354E-01  0.12250673362E-01  0.15035805988E-01  0.10201947273E+01  0.10199185843E+01 0.  0.
     999903    2    3    3    0    0 -0.29142766152E-01  0.10951479652E+00  0.65467000164E-01  0.13236725994E+00  0.19808380006E-01 0.  0.
         14    1    1    2    0    0 -0.13682423354E-01 -0.12250673362E-01 -0.15035805988E-01  0.23735272663E-01  0.00000000000E+00 0. -1.
     999901    1    3    3    0    0  0.42825189507E-01 -0.97264123160E-01 -0.50431194176E-01  0.88782746739E+00  0.88000000000E+00 0. -1.
        -11    1    4    4    0    0 -0.62205890092E-02  0.37945199450E-01  0.32304269912E-01  0.50223110860E-01  0.51100000000E-03 0. -1.
         11    1    4    4    0    0 -0.22922177143E-01  0.71569597072E-01  0.33162730252E-01  0.82144149085E-01  0.51100000000E-03 0.  1.
</event>
<event>
 8    1  0.1177602E+005  0.1043930E+01  0.7957747E-01            NaN
         13   -1    0    0    0    0  0.00000000000E+00  0.00000000000E+00  0.74505805969E-08  0.10566000000E+00  0.10566000000E+00 0.  1.
     999900   -1    0    0    0    0 -0.00000000000E+00 -0.00000000000E+00 -0.74505805969E-08  0.93827000000E+00  0.93827000000E+00 0.  1.
     999902    2    1    2    0    0  0.12526324488E-01 -0.23788941200E-02 -0.19159368536E-01  0.10209158881E+01  0.10206564561E+01 0.  0.
     999903    2    3    3    0    0  0.46378820362E-02 -0.84558293221E-01 -0.10085921309E+00  0.13328390033E+00  0.20503714788E-01 0.  0.
         14    1    1    2    0    0 -0.12526324488E-01  0.23788941200E-02  0.19159368536E-01  0.23014111869E-01  0.00000000000E+00 0.  1.
     999901    1    3    3    0    0  0.78884424523E-02  0.82179399101E-01  0.81699844556E-01  0.88763198780E+00  0.88000000000E+00 0. -1.
        -11    1    4    4    0    0 -0.45499473944E-02 -0.60887794901E-01 -0.63349716060E-01  0.87985642209E-01  0.51100000000E-03 0. -1.
         11    1    4    4    0    0  0.91878294306E-02 -0.23670498321E-01 -0.37509497033E-01  0.45298258124E-01  0.51100000000E-03 0.  1.
</event>
<event>
 8    1  0.1177602E+005  0.1043930E+01  0.7957747E-01            NaN
         13   -1    0    0    0    0  0.00000000000E+00  0.00000000000E+00  0.74505805969E-08  0.10566000000E+00  0.10566000000E+00 0.  1.
     999900   -1    0    0    0    0 -0.00000000000E+00 -0.00000000000E+00 -0.74505805969E-08  0.93827000000E+00  0.93827000000E+00 0.  1.
     999902    2    1    2    0    0  0.99348347676E-02 -0.12936409316E-01  0.17089847445E-01  0.10203055526E+01  0.10200320123E+01 0.  0.
     999903    2    3    3    0    0 -0.62247303515E-02  0.35141017046E-01 -0.12128382816E+00  0.12805007096E+00  0.20332617970E-01 0.  0.
         14    1    1    2    0    0 -0.99348347676E-02  0.12936409316E-01 -0.17089847445E-01  0.23624447370E-01  0.00000000000E+00 0. -1.
     999901    1    3    3    0    0  0.16159565119E-01 -0.48077426362E-01  0.13837367560E+00  0.89225548167E+00  0.88000000000E+00 0. -1.
        -11    1    4    4    0    0  0.39223189612E-02  0.28817605458E-01 -0.87675387347E-01  0.92374637417E-01  0.51100000000E-03 0. -1.
         11    1    4    4    0    0 -0.10147049313E-01  0.63234115889E-02 -0.33608440809E-01  0.35675433543E-01  0.51100000000E-03 0.  1.
</event>
<event>
 8    1  0.1177602E+005  0.1043930E+01  0.7957747E-01            NaN
         13   -1    0    0    0    0  0.00000000000E+00  0.00000000000E+00  0.74505805969E-08  0.10566000000E+00  0.10566000000E+00 0. -1.
     999900   -1    0    0    0    0 -0.00000000000E+00 -0.00000000000E+00 -0.74505805969E-08  0.93827000000E+00  0.93827000000E+00 0. -1.
     999902    2    1    2    0    0  0.71389760240E-02 -0.13414236906E-01 -0.17481202939E-01  0.10207675479E+01  0.10205047220E+01 0.  0.
     999903    2    3    3    0    0  0.57893152171E-01 -0.40014813245E-01 -0.11204824244E+00  0.13384787736E+00  0.20190178101E-01 0.  0.
         14    1    1    2    0    0 -0.71389760240E-02  0.13414236906E-01  0.17481202939E-01  0.23162452086E-01  0.00000000000E+00 0. -1.
     999901    1    3    3    0    0 -0.50754176147E-01  0.26600576339E-01  0.94567039503E-01  0.88691967056E+00  0.88000000000E+00 0.  1.
        -11    1    4    4    0    0  0.25149080744E-01 -0.24835281812E-01 -0.40835577249E-01  0.54009934042E-01  0.51100000000E-03 0.  1.
         11    1    4    4    0    0  0.32744071427E-01 -0.15179531432E-01 -0.71212665193E-01  0.79837943316E-01  0.51100000000E-03 0. -1.
</event>
<event>
 8    1  0.1177602E+005  0.1043930E+01  0.7957747E-01            NaN
         13   -1    0    0    0    0  0.00000000000E+00  0.00000000000E+00  0.74505805969E-08  0.10566000000E+00  0.10566000000E+00 0.  1.
     999900   -1    0    0    0    0 -0.00000000000E+00 -0.00000000000E+00 -0.74505805969E-08  0.93827000000E+00  0.93827000000E+00 0. -1.
     999902    2    1    2    0    0 -0.16460378436E-01 -0.88481579104E-02 -0.11680309452E-01  0.10218922237E+01  0.10216545665E+01 0.  0.
     999903    2    3    3    0    0  0.10377110112E+00 -0.71120274382E-01  0.32478527423E-01  0.13044204108E+00  0.11564449066E-01 0.  0.
         14    1    1    2    0    0  0.16460378436E-01  0.88481579104E-02  0.11680309452E-01  0.22037776330E-01  0.00000000000E+00 0.  1.
     999901    1    3    3    0    0 -0.12023147955E+00  0.62272116472E-01 -0.44158836875E-01  0.89145018259E+00  0.88000000000E+00 0.  1.
        -11    1    4    4    0    0  0.51126529161E-01 -0.41248451478E-01  0.19612503520E-01  0.68558501652E-01  0.51100000000E-03 0. -1.
         11    1    4    4    0    0  0.52644571957E-01 -0.29871822904E-01  0.12866023903E-01  0.61883539429E-01  0.51100000000E-03 0.  1.
</event>
<event>
 8    1  0.1177602E+005  0.1043930E+01  0.7957747E-01            NaN
         13   -1    0    0    0    0  0.00000000000E+00  0.00000000000E+00  0.74505805969E-08  0.10566000000E+00  0.10566000000E+00 0.  1.
     999900   -1    0    0    0    0 -0.00000000000E+00 -0.00000000000E+00 -0.74505805969E-08  0.93827000000E+00  0.93827000000E+00 0. -1.
     999902    2    1    2    0    0  0.52817686984E-02  0.99426147420E-02 -0.21064514486E-01  0.10200455607E+01  0.10197658945E+01 0.  0.
     999903    2    3    3    0    0 -0.50394925408E-01 -0.81556251439E-02  0.11523101545E+00  0.12763090821E+00  0.20132041193E-01 0.  0.
         14    1    1    2    0    0 -0.52817686984E-02 -0.99426147420E-02  0.21064514486E-01  0.23884439266E-01  0.00000000000E+00 0.  1.
     999901    1    3    3    0    0  0.55676694106E-01  0.18098239886E-01 -0.13629552993E+00  0.89241465252E+00  0.88000000000E+00 0. -1.
        -11    1    4    4    0    0 -0.38543570635E-01 -0.92526756200E-02  0.66096900054E-01  0.77073212993E-01  0.51100000000E-03 0.  1.
         11    1    4    4    0    0 -0.11851354773E-01  0.10970504760E-02  0.49134115392E-01  0.50557695221E-01  0.51100000000E-03 0. -1.
</event>
<event>
 8    1  0.1177602E+005  0.1043930E+01  0.7957747E-01            NaN
         13   -1    0    0    0    0  0.00000000000E+00  0.00000000000E+00  0.74505805969E-08  0.10566000000E+00  0.10566000000E+00 0. -1.
     999900   -1    0    0    0    0 -0.00000000000E+00 -0.00000000000E+00 -0.74505805969E-08  0.93827000000E+00  0.93827000000E+00 0. -1.
     999902    2    1    2    0    0 -0.10770257456E-01 -0.20240952350E-01  0.22885667200E-02  0.10208880353E+01  0.10206279678E+01 0.  0.
     999903    2    3    3    0    0 -0.12847468625E+00 -0.12616667950E-01  0.24013239259E-01  0.13275267197E+00  0.19537424049E-01 0.  0.
         14    1    1    2    0    0  0.10770257456E-01  0.20240952350E-01 -0.22885667200E-02  0.23041964659E-01  0.00000000000E+00 0.  1.
     999901    1    3    3    0    0  0.11770442879E+00 -0.76242843999E-02 -0.21724672539E-01  0.88813536337E+00  0.88000000000E+00 0. -1.
        -11    1    4    4    0    0 -0.63126819051E-01 -0.15359449036E-01  0.15497243436E-01  0.66793215474E-01  0.51100000000E-03 0. -1.
         11    1    4    4    0    0 -0.65347867200E-01  0.27427810860E-02  0.85159958222E-02  0.65959456498E-01  0.51100000000E-03 0.  1.
</event>
<event>
 8    1  0.1177602E+005  0.1043930E+01  0.7957747E-01            NaN
         13   -1    0    0    0    0  0.00000000000E+00  0.00000000000E+00  0.74505805969E-08  0.10566000000E+00  0.10566000000E+00 0. -1.
     999900   -1    0    0    0    0 -0.00000000000E+00 -0.00000000000E+00 -0.74505805969E-08  0.93827000000E+00  0.93827000000E+00 0.  1.
     999902    2    1    2    0    0  0.17741712173E-01 -0.50506454153E-02 -0.14444148257E-01  0.10205011548E+01  0.10202321775E+01 0.  0.
     999903    2    3    3    0    0  0.31880660301E-01 -0.12341877775E+00 -0.29739247491E-01  0.13233176514E+00  0.19460267810E-01 0.  0.
         14    1    1    2    0    0 -0.17741712173E-01  0.50506454153E-02  0.14444148257E-01  0.23428845230E-01  0.00000000000E+00 0.  1.
     999901    1    3    3    0    0 -0.14138948127E-01  0.11836813233E+00  0.15295099233E-01  0.88816938962E+00  0.88000000000E+00 0. -1.
        -11    1    4    4    0    0  0.22785015285E-01 -0.54247696645E-01 -0.88448337790E-02  0.59501779119E-01  0.51100000000E-03 0. -1.
         11    1    4    4    0    0  0.90956450159E-02 -0.69171081103E-01 -0.20894413712E-01  0.72829986026E-01  0.51100000000E-03 0.  1.
</event>
<event>
 8    1  0.1177602E+005  0.1043930E+01  0.7957747E-01            NaN
         13   -1    0    0    0    0  0.00000000000E+00  0.00000000000E+00  0.74505805969E-08  0.10566000000E+00  0.10566000000E+00 0.  1.
     999900   -1    0    0    0    0 -0.00000000000E+00 -0.00000000000E+00 -0.74505805969E-08  0.93827000000E+00  0.93827000000E+00 0.  1.
     999902    2    1    2    0    0 -0.12720194316E-01 -0.14115978042E-01  0.13598717252E-01  0.10205635863E+01  0.10202960572E+01 0.  0.
     999903    2    3    3    0    0 -0.34797650834E-01 -0.77508302061E-01  0.10129307286E+00  0.13366094177E+00  0.19660807537E-01 0.  0.
         14    1    1    2    0    0  0.12720194316E-01  0.14115978042E-01 -0.13598717252E-01  0.23366413726E-01  0.00000000000E+00 0. -1.
     999901    1    3    3    0    0  0.22077456518E-01  0.63392324019E-01 -0.87694355604E-01  0.88690264451E+00  0.88000000000E+00 0.  1.
        -11    1    4    4    0    0 -0.12702379284E-01 -0.25490558846E-01  0.48912936079E-01  0.56602610069E-01  0.51100000000E-03 0. -1.
         11    1    4    4    0    0 -0.22095271550E-01 -0.52017743215E-01  0.52380136778E-01  0.77058331697E-01  0.51100000000E-03 0.  1.
</event>
<event>
 8    1  0.1177602E+005  0.1043930E+01  0.7957747E-01            NaN
         13   -1    0    0    0    0  0.00000000000E+00  0.00000000000E+00  0.74505805969E-08  0.10566000000E+00  0.10566000000E+00 0. -1.
     999900   -1    0    0    0    0 -0.00000000000E+00 -0.00000000000E+00 -0.74505805969E-08  0.93827000000E+00  0.93827000000E+00 0. -1.
     999902    2    1    2    0    0  0.13904963886E-01  0.10997608289E-01  0.15950621527E-01  0.10200821964E+01  0.10198033976E+01 0.  0.
     999903    2    3    3    0    0  0.68006887551E-01 -0.65553253041E-01 -0.85862460968E-01  0.12926630282E+00  0.20377661852E-01 0.  0.
         14    1    1    2    0    0 -0.13904963886E-01 -0.10997608289E-01 -0.15950621527E-01  0.23847803585E-01  0.00000000000E+00 0.  1.
     999901    1    3    3    0    0 -0.54101923665E-01  0.76550861330E-01  0.10181308249E+00  0.89081589360E+00  0.88000000000E+00 0. -1.
        -11    1    4    4    0    0  0.19103433187E-01 -0.24394334207E-01 -0.39977678002E-01  0.50581622753E-01  0.51100000000E-03 0.  1.
         11    1    4    4    0    0  0.48903454363E-01 -0.41158918834E-01 -0.45884782966E-01  0.78684680066E-01  0.51100000000E-03 0. -1.
</event>
<event>
 8    1  0.1177602E+005  0.1043930E+01  0.7957747E-01            NaN
         13   -1    0    0    0    0  0.00000000000E+00  0.00000000000E+00  0.74505805969E-08  0.10566000000E+00  0.10566000000E+00 0.  1.
     999900   -1    0    0    0    0 -0.00000000000E+00 -0.00000000000E+00 -0.74505805969E-08  0.93827000000E+00  0.93827000000E+00 0. -1.
     999902    2    1    2    0    0 -0.16964354614E-01 -0.12348749141E-01 -0.12745750557E-01  0.10193793363E+01  0.10190836551E+01 0.  0.
     999903    2    3    3    0    0  0.70362204394E-01  0.10313147590E+00  0.91660614839E-02  0.12727971302E+00  0.23003641780E-01 0.  0.
         14    1    1    2    0    0  0.16964354614E-01  0.12348749141E-01  0.12745750557E-01  0.24550663740E-01  0.00000000000E+00 0.  1.
     999901    1    3    3    0    0 -0.87326559007E-01 -0.11548022504E+00 -0.21911812041E-01  0.89209962324E+00  0.88000000000E+00 0.  1.
        -11    1    4    4    0    0  0.35056446936E-01  0.63496713165E-01  0.14372181153E-01  0.73943273978E-01  0.51100000000E-03 0.  1.
         11    1    4    4    0    0  0.35305757458E-01  0.39634762731E-01 -0.52061196691E-02  0.53336439039E-01  0.51100000000E-03 0. -1.
</event>
<event>
 8    1  0.1177602E+005  0.1043930E+01  0.7957747E-01            NaN
         13   -1    0    0    0    0  0.00000000000E+00  0.00000000000E+00  0.74505805969E-08  0.10566000000E+00  0.10566000000E+00 0.  1.
     999900   -1    0    0    0    0 -0.00000000000E+00 -0.00000000000E+00 -0.74505805969E-08  0.93827000000E+00  0.93827000000E+00 0. -1.
     999902    2    1    2    0    0  0.56781465500E-02  0.23030295922E-01  0.60241248648E-02  0.10194570362E+01  0.10191632463E+01 0.  0.
     999903    2    3    3    0    0 -0.51746212596E-01 -0.69361127177E-01  0.92975225139E-01  0.12850573226E+00  0.19511387789E-01 0.  0.
         14    1    1    2    0    0 -0.56781465500E-02 -0.23030295922E-01 -0.60241248648E-02  0.24472963836E-01  0.00000000000E+00 0.  1.
     999901    1    3    3    0    0  0.57424359146E-01  0.92391423099E-01 -0.86951100274E-01  0.89095130390E+00  0.88000000000E+00 0. -1.
        -11    1    4    4    0    0 -0.29065608199E-01 -0.23475087699E-01  0.35491070095E-01  0.51534129467E-01  0.51100000000E-03 0. -1.
         11    1    4    4    0    0 -0.22680604397E-01 -0.45886039478E-01  0.57484155044E-01  0.76971602795E-01  0.51100000000E-03 0.  1.
</event>
<event>
 8    1  0.1177602E+005  0.1043930E+01  0.7957747E-01            NaN
         13   -1    0    0    0    0  0.00000000000E+00  0.00000000000E+00  0.74505805969E-08  0.10566000000E+00  0.10566000000E+00 0.  1.
     999900   -1    0    0    0    0 -0.00000000000E+00 -0.00000000000E+00 -0.74505805969E-08  0.93827000000E+00  0.93827000000E+00 0. -1.
     999902    2    1    2    0    0  0.16406226766E-01 -0.15628450236E-01  0.28402360991E-03  0.10212696072E+01  0.10210181767E+01 0.  0.
     999903    2    3    3    0    0 -0.11430045628E+00 -0.40561071798E-01  0.42994504259E-01  0.13024207799E+00  0.20116576020E-01 0.  0.
         14    1    1    2    0    0 -0.16406226766E-01  0.15628450236E-01 -0.28402360991E-03  0.22660392823E-01  0.00000000000E+00 0.  1.
     999901    1    3    3    0    0  0.13070668305E+00  0.24932621562E-01 -0.42710480649E-01  0.89102752919E+00  0.88000000000E+00 0.  1.
        -11    1    4    4    0    0 -0.28165902590E-01 -0.40142546694E-02  0.16931149680E-01  0.33111285988E-01  0.51100000000E-03 0. -1.
         11    1    4    4    0    0 -0.86134553693E-01 -0.36546817128E-01  0.26063354579E-01  0.97130792002E-01  0.51100000000E-03 0.  1.
</event>
<event>
 8    1  0.1177602E+005  0.1043930E+01  0.7957747E-01            NaN
         13   -1    0    0    0    0  0.00000000000E+00  0.00000000000E+00  0.74505805969E-08  0.10566000000E+00  0.10566000000E+00 0.  1.
     999900   -1    0    0    0    0 -0.00000000000E+00 -0.00000000000E+00 -0.74505805969E-08  0.93827000000E+00  0.93827000000E+00 0.  1.
     999902    2    1    2    0    0  0.17406054755E-02 -0.78325968499E-02  0.23087012163E-01  0.10194884491E+01  0.10191954221E+01 0.  0.
     999903    2    3    3    0    0  0.41994228587E-01  0.24354131831E-01 -0.11569843765E+00  0.12712207771E+00  0.20426825351E-01 0.  0.
         14    1    1    2    0    0 -0.17406054755E-02  0.78325968499E-02 -0.23087012163E-01  0.24441550921E-01  0.00000000000E+00 0. -1.
     999901    1    3    3    0    0 -0.40253623111E-01 -0.32186728681E-01  0.13878544981E+00  0.89236637137E+00  0.88000000000E+00 0. -1.
        -11    1    4    4    0    0 -0.86491629695E-03  0.21515826525E-02 -0.17927945297E-01  0.18084516352E-01  0.51100000000E-03 0. -1.
         11    1    4    4    0    0  0.42859144883E-01  0.22202549179E-01 -0.97770492353E-01  0.10903756135E+00  0.51100000000E-03 0.  1.
</event>
<event>
 8    1  0.1177602E+005  0.1043930E+01  0.7957747E-01            NaN
         13   -1    0    0    0    0  0.00000000000E+00  0.00000000000E+00  0.74505805969E-08  0.10566000000E+00  0.10566000000E+00 0. -1.
     999900   -1    0    0    0    0 -0.00000000000E+00 -0.00000000000E+00 -0.74505805969E-08  0.93827000000E+00  0.93827000000E+00 0.  1.
     999902    2    1    2    0    0  0.88781056786E-02  0.33246022371E-02  0.21907576173E-01  0.10200591887E+01  0.10197798452E+01 0.  0.
     999903    2    3    3    0    0  0.72743109536E-01  0.28075352067E-01  0.10616915759E+00  0.13338486714E+00  0.20972538683E-01 0.  0.
         14    1    1    2    0    0 -0.88781056786E-02 -0.33246022371E-02 -0.21907576173E-01  0.23870811344E-01  0.00000000000E+00 0.  1.
     999901    1    3    3    0    0 -0.63865003857E-01 -0.24750749830E-01 -0.84261581421E-01  0.88667432152E+00  0.88000000000E+00 0.  1.
        -11    1    4    4    0    0  0.37672525760E-01  0.14827101595E-01  0.72271136944E-01  0.82839848473E-01  0.51100000000E-03 0. -1.
         11    1    4    4    0    0  0.35070583776E-01  0.13248250472E-01  0.33898020649E-01  0.50545018665E-01  0.51100000000E-03 0.  1.
</event>
<event>
 8    1  0.1177602E+005  0.1043930E+01  0.7957747E-01            NaN
         13   -1    0    0    0    0  0.00000000000E+00  0.00000000000E+00  0.74505805969E-08  0.10566000000E+00  0.10566000000E+00 0.  1.
     999900   -1    0    0    0    0 -0.00000000000E+00 -0.00000000000E+00 -0.74505805969E-08  0.93827000000E+00  0.93827000000E+00 0.  1.
     999902    2    1    2    0    0  0.19799854409E-01 -0.65764699803E-02 -0.11771015397E-01  0.10199750215E+01  0.10196936812E+01 0.  0.
     999903    2    3    3    0    0 -0.33221314633E-01  0.94253334699E-01 -0.80308551187E-01  0.12998890492E+00  0.21454723483E-01 0.  0.
         14    1    1    2    0    0 -0.19799854409E-01  0.65764699803E-02  0.11771015397E-01  0.23954978512E-01  0.00000000000E+00 0.  1.
     999901    1    3    3    0    0  0.53021169042E-01 -0.10082980468E+00  0.68537535790E-01  0.88998611657E+00  0.88000000000E+00 0.  1.
        -11    1    4    4    0    0 -0.14911677833E-01  0.71258357683E-01 -0.58089560700E-01  0.93138444580E-01  0.51100000000E-03 0.  1.
         11    1    4    4    0    0 -0.18309636801E-01  0.22994977017E-01 -0.22218990487E-01  0.36850460337E-01  0.51100000000E-03 0. -1.
</event>
<event>
 8    1  0.1177602E+005  0.1043930E+01  0.7957747E-01            NaN
         13   -1    0    0    0    0  0.00000000000E+00  0.00000000000E+00  0.74505805969E-08  0.10566000000E+00  0.10566000000E+00 0. -1.
     999900   -1    0    0    0    0 -0.00000000000E+00 -0.00000000000E+00 -0.74505805969E-08  0.93827000000E+00  0.93827000000E+00 0. -1.
     999902    2    1    2    0    0 -0.27584163233E-02  0.11289195630E-01 -0.20524455832E-01  0.10203438158E+01  0.10200711712E+01 0.  0.
     999903    2    3    3    0    0 -0.29445524175E-01 -0.97184056284E-01 -0.80848129964E-01  0.13123325249E+00  0.19338219938E-01 0.  0.
         14    1    1    2    0    0  0.27584163233E-02 -0.11289195630E-01  0.20524455832E-01  0.23586184214E-01  0.00000000000E+00 0. -1.
     999901    1    3    3    0    0  0.26687107852E-01  0.10847325191E+00  0.60323674132E-01  0.88911056330E+00  0.88000000000E+00 0.  1.
        -11    1    4    4    0    0 -0.18507559810E-01 -0.30889964505E-01 -0.24707552601E-01  0.43674293970E-01  0.51100000000E-03 0. -1.
         11    1    4    4    0    0 -0.10937964365E-01 -0.66294091778E-01 -0.56140577363E-01  0.87558958519E-01  0.51100000000E-03 0.  1.
</event>
<event>
 8    1  0.1177602E+005  0.1043930E+01  0.7957747E-01            NaN
         13   -1    0    0    0    0  0.00000000000E+00  0.00000000000E+00  0.74505805969E-08  0.10566000000E+00  0.10566000000E+00 0.  1.
     999900   -1    0    0    0    0 -0.00000000000E+00 -0.00000000000E+00 -0.74505805969E-08  0.93827000000E+00  0.93827000000E+00 0. -1.
     999902    2    1    2    0    0  0.17285754450E-01 -0.10677317074E-01 -0.11373274296E-01  0.10206458042E+01  0.10203801761E+01 0.  0.
     999903    2    3    3    0    0  0.78734768346E-01  0.10267739929E+00 -0.10606797610E-01  0.13124945805E+00  0.19289997695E-01 0.  0.
         14    1    1    2    0    0 -0.17285754450E-01  0.10677317074E-01  0.11373274296E-01  0.23284195821E-01  0.00000000000E+00 0.  1.
     999901    1    3    3    0    0 -0.61449013895E-01 -0.11335471636E+00 -0.76647668579E-03  0.88939634613E+00  0.88000000000E+00 0. -1.
        -11    1    4    4    0    0  0.57100263762E-01  0.76072912150E-01 -0.16237415577E-01  0.96495817890E-01  0.51100000000E-03 0.  1.
         11    1    4    4    0    0  0.21634504584E-01  0.26604487136E-01  0.56306179665E-02  0.34753640155E-01  0.51100000000E-03 0. -1.
</event>
<event>
 8    1  0.1177602E+005  0.1043930E+01  0.7957747E-01            NaN
         13   -1    0    0    0    0  0.00000000000E+00  0.00000000000E+00  0.74505805969E-08  0.10566000000E+00  0.10566000000E+00 0. -1.
     999900   -1    0    0    0    0 -0.00000000000E+00 -0.00000000000E+00 -0.74505805969E-08  0.93827000000E+00  0.93827000000E+00 0. -1.
     999902    2    1    2    0    0 -0.15875660959E-02 -0.13840400830E-01 -0.18740245381E-01  0.10205789003E+01  0.10203117258E+01 0.  0.
     999903    2    3    3    0    0 -0.11239552521E+00  0.11979861294E-01 -0.65556559164E-01  0.13202003505E+00  0.18850889702E-01 0.  0.
         14    1    1    2    0    0  0.15875660959E-02  0.13840400830E-01  0.18740245381E-01  0.23351099721E-01  0.00000000000E+00 0.  1.
     999901    1    3    3    0    0  0.11080795911E+00 -0.25820262124E-01  0.46816313783E-01  0.88855886523E+00  0.88000000000E+00 0.  1.
        -11    1    4    4    0    0 -0.44017844372E-01  0.12994630535E-01 -0.31101351574E-01  0.55443540982E-01  0.51100000000E-03 0.  1.
         11    1    4    4    0    0 -0.68377680834E-01 -0.10147692410E-02 -0.34455207590E-01  0.76576494069E-01  0.51100000000E-03 0. -1.
</event>
<event>
 8    1  0.1177602E+005  0.1043930E+01  0.7957747E-01            NaN
         13   -1    0    0    0    0  0.00000000000E+00  0.00000000000E+00  0.74505805969E-08  0.10566000000E+00  0.10566000000E+00 0. -1.
     999900   -1    0    0    0    0 -0.00000000000E+00 -0.00000000000E+00 -0.74505805969E-08  0.93827000000E+00  0.93827000000E+00 0. -1.
     999902    2    1    2    0    0  0.59571864312E-02 -0.23193946343E-01 -0.19639548481E-02  0.10199028417E+01  0.10196197831E+01 0.  0.
     999903    2    3    3    0    0  0.11363998112E+00 -0.64696415708E-01  0.37145123449E-02  0.13234986626E+00  0.20075307763E-01 0.  0.
         14    1    1    2    0    0 -0.59571864312E-02  0.23193946343E-01  0.19639548481E-02  0.24027158296E-01  0.00000000000E+00 0.  1.
     999901    1    3    3    0    0 -0.10768279469E+00  0.41502469365E-01 -0.56784671930E-02  0.88755297545E+00  0.88000000000E+00 0. -1.
        -11    1    4    4    0    0  0.28873181173E-01 -0.26917543229E-01  0.20023328302E-02  0.39528283321E-01  0.51100000000E-03 0. -1.
         11    1    4    4    0    0  0.84766799947E-01 -0.37778872480E-01  0.17121795147E-02  0.92821582936E-01  0.51100000000E-03 0.  1.
</event>
<event>
 8    1  0.1177602E+005  0.1043930E+01  0.7957747E-01            NaN
         13   -1    0    0    0    0  0.00000000000E+00  0.00000000000E+00  0.74505805969E-08  0.10566000000E+00  0.10566000000E+00 0. -1.
     999900   -1    0    0    0    0 -0.00000000000E+00 -0.00000000000E+00 -0.74505805969E-08  0.93827000000E+00  0.93827000000E+00 0. -1.
     999902    2    1    2    0    0 -0.17602228854E-01 -0.89641671265E-02  0.13308043621E-01  0.10201119653E+01  0.10198338703E+01 0.  0.
     999903    2    3    3    0    0  0.33984921466E-01 -0.12490530972E+00  0.41741074525E-02  0.13096236515E+00  0.19426956223E-01 0.  0.
         14    1    1    2    0    0  0.17602228854E-01  0.89641671265E-02 -0.13308043621E-01  0.23818034720E-01  0.00000000000E+00 0.  1.
     999901    1    3    3    0    0 -0.51587150319E-01  0.11594114260E+00  0.91339361685E-02  0.88914960013E+00  0.88000000000E+00 0.  1.
        -11    1    4    4    0    0  0.35273654735E-01 -0.10194273401E+00  0.42524475414E-02  0.10795784440E+00  0.51100000000E-03 0. -1.
         11    1    4    4    0    0 -0.12887332690E-02 -0.22962575711E-01 -0.78340088961E-04  0.23004520749E-01  0.51100000000E-03 0.  1.
</event>
<event>
 8    1  0.1467294E+005  0.1043930E+01  0.7957747E-01            NaN
         13   -1    0    0    0    0  0.00000000000E+00  0.00000000000E+00  0.74505805969E-08  0.10566000000E+00  0.10566000000E+00 0. -1.
     999900   -1    0    0    0    0 -0.00000000000E+00 -0.00000000000E+00 -0.74505805969E-08  0.93827000000E+00  0.93827000000E+00 0.  1.
     999902    2    1    2    0    0  0.85152365744E-02  0.32176308181E-02  0.22845698599E-01  0.10193375551E+01  0.10190408544E+01 0.  0.
     999903    2    3    3    0    0  0.78048899383E-01 -0.71637818617E-01  0.75859659882E-01  0.13184178121E+00  0.20098744326E-01 0.  0.
         14    1    1    2    0    0 -0.85152365744E-02 -0.32176308181E-02 -0.22845698599E-01  0.24592444907E-01  0.00000000000E+00 0.  1.
     999901    1    3    3    0    0 -0.69533662809E-01  0.74855449436E-01 -0.53013961282E-01  0.88749577389E+00  0.88000000000E+00 0.  1.
        -11    1    4    4    0    0  0.27760120790E-01 -0.35172389367E-01  0.40281945562E-01  0.60254605959E-01  0.51100000000E-03 0. -1.
         11    1    4    4    0    0  0.50288778593E-01 -0.36465429251E-01  0.35577714320E-01  0.71587175249E-01  0.51100000000E-03 0.  1.
</event>
<event>
 8    1  0.1177602E+005  0.1043930E+01  0.7957747E-01            NaN
         13   -1    0    0    0    0  0.00000000000E+00  0.00000000000E+00  0.74505805969E-08  0.10566000000E+00  0.10566000000E+00 0. -1.
     999900   -1    0    0    0    0 -0.00000000000E+00 -0.00000000000E+00 -0.74505805969E-08  0.93827000000E+00  0.93827000000E+00 0.  1.
     999902    2    1    2    0    0  0.21019368568E-01 -0.45419430464E-02 -0.84431546800E-02  0.10208274036E+01  0.10205659498E+01 0.  0.
     999903    2    3    3    0    0  0.84192314989E-01 -0.84346553883E-01 -0.57149675752E-01  0.13362284864E+00  0.19654342626E-01 0.  0.
         14    1    1    2    0    0 -0.21019368568E-01  0.45419430464E-02  0.84431546800E-02  0.23102596446E-01  0.00000000000E+00 0. -1.
     999901    1    3    3    0    0 -0.63172946422E-01  0.79804610837E-01  0.48706521072E-01  0.88720455492E+00  0.88000000000E+00 0. -1.
        -11    1    4    4    0    0  0.14485600725E-01 -0.16121941322E-01 -0.19205733509E-01  0.28963268824E-01  0.51100000000E-03 0.  1.
         11    1    4    4    0    0  0.69706714264E-01 -0.68224612561E-01 -0.37943942242E-01  0.10465957981E+00  0.51100000000E-03 0. -1.
</event>
<event>
 8    1  0.1177602E+005  0.1043930E+01  0.7957747E-01            NaN
         13   -1    0    0    0    0  0.00000000000E+00  0.00000000000E+00  0.74505805969E-08  0.10566000000E+00  0.10566000000E+00 0. -1.
     999900   -1    0    0    0    0 -0.00000000000E+00 -0.00000000000E+00 -0.74505805969E-08  0.93827000000E+00  0.93827000000E+00 0.  1.
     999902    2    1    2    0    0 -0.11872241894E-02  0.25520544369E-01 -0.13104989922E-01  0.10152167897E+01  0.10148106629E+01 0.  0.
     999903    2    3    3    0    0 -0.90517214055E-01 -0.26466382423E-02 -0.86927415780E-01  0.12717231566E+00  0.20397341075E-01 0.  0.
         14    1    1    2    0    0  0.11872241894E-02 -0.25520544369E-01  0.13104989922E-01  0.28713210323E-01  0.00000000000E+00 0. -1.
     999901    1    3    3    0    0  0.89329989865E-01  0.28167182611E-01  0.73822425858E-01  0.88804447401E+00  0.88000000000E+00 0.  1.
        -11    1    4    4    0    0 -0.33376662800E-01  0.53764135729E-02 -0.42722940022E-01  0.54483191608E-01  0.51100000000E-03 0. -1.
         11    1    4    4    0    0 -0.57140551254E-01 -0.80230518152E-02 -0.44204475758E-01  0.72689124057E-01  0.51100000000E-03 0.  1.
</event>
<event>
 8    1  0.1177602E+005  0.1043930E+01  0.7957747E-01            NaN
         13   -1    0    0    0    0  0.00000000000E+00  0.00000000000E+00  0.74505805969E-08  0.10566000000E+00  0.10566000000E+00 0.  1.
     999900   -1    0    0    0    0 -0.00000000000E+00 -0.00000000000E+00 -0.74505805969E-08  0.93827000000E+00  0.93827000000E+00 0. -1.
     999902    2    1    2    0    0  0.20093866583E-01 -0.83106958601E-02 -0.88500253624E-02  0.10204533288E+01  0.10201832395E+01 0.  0.
     999903    2    3    3    0    0 -0.13850279241E-01  0.11756129320E+00 -0.49749064912E-01  0.12990928495E+00  0.19722194702E-01 0.  0.
         14    1    1    2    0    0 -0.20093866583E-01  0.83106958601E-02  0.88500253624E-02  0.23476671162E-01  0.00000000000E+00 0.  1.
     999901    1    3    3    0    0  0.33944145823E-01 -0.12587198906E+00  0.40899039549E-01  0.89054404389E+00  0.88000000000E+00 0. -1.
        -11    1    4    4    0    0  0.45843180610E-02  0.30321674931E-01 -0.15766454778E-01  0.34485680506E-01  0.51100000000E-03 0. -1.
         11    1    4    4    0    0 -0.18434597302E-01  0.87239618266E-01 -0.33982610134E-01  0.95423604446E-01  0.51100000000E-03 0.  1.
</event>
<event>
 8    1  0.1177602E+005  0.1043930E+01  0.7957747E-01            NaN
         13   -1    0    0    0    0  0.00000000000E+00  0.00000000000E+00  0.74505805969E-08  0.10566000000E+00  0.10566000000E+00 0.  1.
     999900   -1    0    0    0    0 -0.00000000000E+00 -0.00000000000E+00 -0.74505805969E-08  0.93827000000E+00  0.93827000000E+00 0.  1.
     999902    2    1    2    0    0 -0.15100433849E-01  0.42344538398E-02 -0.18066916793E-01  0.10200058034E+01  0.10197251942E+01 0.  0.
     999903    2    3    3    0    0 -0.12360137017E+00 -0.38298511724E-01  0.15092315429E-01  0.13170346688E+00  0.19337799616E-01 0.  0.
         14    1    1    2    0    0  0.15100433849E-01 -0.42344538398E-02  0.18066916793E-01  0.23924196625E-01  0.00000000000E+00 0.  1.
     999901    1    3    3    0    0  0.10850093632E+00  0.42532965564E-01 -0.33159232222E-01  0.88830233650E+00  0.88000000000E+00 0.  1.
        -11    1    4    4    0    0 -0.75135315861E-01 -0.14924267361E-01  0.14050864865E-01  0.77882843877E-01  0.51100000000E-03 0.  1.
         11    1    4    4    0    0 -0.48466054312E-01 -0.23374244363E-01  0.10414505644E-02  0.53820623002E-01  0.51100000000E-03 0. -1.
</event>
<event>
 8    1  0.1177602E+005  0.1043930E+01  0.7957747E-01            NaN
         13   -1    0    0    0    0  0.00000000000E+00  0.00000000000E+00  0.74505805969E-08  0.10566000000E+00  0.10566000000E+00 0. -1.
     999900   -1    0    0    0    0 -0.00000000000E+00 -0.00000000000E+00 -0.74505805969E-08  0.93827000000E+00  0.93827000000E+00 0.  1.
     999902    2    1    2    0    0  0.13637995552E-01 -0.11497926098E-01  0.15852186045E-01  0.10200660307E+01  0.10197868493E+01 0.  0.
     999903    2    3    3    0    0  0.56834948113E-01  0.11084099147E+00 -0.28819116233E-01  0.12943237275E+00  0.20155915721E-01 0.  0.
         14    1    1    2    0    0 -0.13637995552E-01  0.11497926098E-01 -0.15852186045E-01  0.23863969277E-01  0.00000000000E+00 0.  1.
     999901    1    3    3    0    0 -0.43196952560E-01 -0.12233891757E+00  0.44671302278E-01  0.89063365797E+00  0.88000000000E+00 0. -1.
        -11    1    4    4    0    0  0.36952536547E-01  0.50287837796E-01 -0.15897086492E-01  0.64399806424E-01  0.51100000000E-03 0. -1.
         11    1    4    4    0    0  0.19882411565E-01  0.60553153675E-01 -0.12922029741E-01  0.65032566329E-01  0.51100000000E-03 0.  1.
</event>
<event>
 8    1  0.1177602E+005  0.1043930E+01  0.7957747E-01            NaN
         13   -1    0    0    0    0  0.00000000000E+00  0.00000000000E+00  0.74505805969E-08  0.10566000000E+00  0.10566000000E+00 0.  1.
     999900   -1    0    0    0    0 -0.00000000000E+00 -0.00000000000E+00 -0.74505805969E-08  0.93827000000E+00  0.93827000000E+00 0.  1.
     999902    2    1    2    0    0 -0.96349874658E-02 -0.74586876626E-02  0.17484696270E-01  0.10226185099E+01  0.10223964188E+01 0.  0.
     999903    2    3    3    0    0 -0.12828101125E+00  0.31982357531E-01  0.23463452878E-02  0.13365189376E+00  0.19453388605E-01 0.  0.
         14    1    1    2    0    0  0.96349874658E-02  0.74586876626E-02 -0.17484696270E-01  0.21311490064E-01  0.00000000000E+00 0. -1.
     999901    1    3    3    0    0  0.11864602379E+00 -0.39441045193E-01  0.15138350982E-01  0.88896661618E+00  0.88000000000E+00 0. -1.
        -11    1    4    4    0    0 -0.97371157166E-01  0.32599697922E-01  0.68314569838E-03  0.10268695322E+00  0.51100000000E-03 0. -1.
         11    1    4    4    0    0 -0.30909854085E-01 -0.61734039114E-03  0.16631995894E-02  0.30964940540E-01  0.51100000000E-03 0.  1.
</event>
<event>
 8    1  0.1177602E+005  0.1043930E+01  0.7957747E-01            NaN
         13   -1    0    0    0    0  0.00000000000E+00  0.00000000000E+00  0.74505805969E-08  0.10566000000E+00  0.10566000000E+00 0. -1.
     999900   -1    0    0    0    0 -0.00000000000E+00 -0.00000000000E+00 -0.74505805969E-08  0.93827000000E+00  0.93827000000E+00 0.  1.
     999902    2    1    2    0    0  0.16246694109E-01  0.15044231307E-01 -0.87106147368E-02  0.10201359088E+01  0.10198583793E+01 0.  0.
     999903    2    3    3    0    0 -0.12219635256E+00  0.31064672158E-01  0.16174215203E-01  0.12882093283E+00  0.20886959172E-01 0.  0.
         14    1    1    2    0    0 -0.16246694109E-01 -0.15044231307E-01  0.87106147368E-02  0.23794091161E-01  0.00000000000E+00 0. -1.
     999901    1    3    3    0    0  0.13844304667E+00 -0.16020440851E-01 -0.24884829940E-01  0.89131497601E+00  0.88000000000E+00 0. -1.
        -11    1    4    4    0    0 -0.33311912503E-01  0.39128490710E-03  0.90312017599E-02  0.34520433727E-01  0.51100000000E-03 0.  1.
         11    1    4    4    0    0 -0.88884440054E-01  0.30673387251E-01  0.71430134431E-02  0.94300499103E-01  0.51100000000E-03 0. -1.
</event>
<event>
 8    1  0.1177602E+005  0.1043930E+01  0.7957747E-01            NaN
         13   -1    0    0    0    0  0.00000000000E+00  0.00000000000E+00  0.74505805969E-08  0.10566000000E+00  0.10566000000E+00 0. -1.
     999900   -1    0    0    0    0 -0.00000000000E+00 -0.00000000000E+00 -0.74505805969E-08  0.93827000000E+00  0.93827000000E+00 0.  1.
     999902    2    1    2    0    0 -0.90054271867E-02  0.89539945352E-02 -0.18640677733E-01  0.10213745882E+01  0.10211255078E+01 0.  0.
     999903    2    3    3    0    0  0.37557499271E-01 -0.11944034445E+00  0.29920294599E-01  0.12951620229E+00  0.14235905119E-01 0.  0.
         14    1    1    2    0    0  0.90054271867E-02 -0.89539945352E-02  0.18640677733E-01  0.22555411841E-01  0.00000000000E+00 0.  1.
     999901    1    3    3    0    0 -0.46562926458E-01  0.12839433898E+00 -0.48560972332E-01  0.89185838586E+00  0.88000000000E+00 0.  1.
        -11    1    4    4    0    0  0.33629427100E-01 -0.87029749443E-01  0.20429011295E-01  0.95512937755E-01  0.51100000000E-03 0. -1.
         11    1    4    4    0    0  0.39280721711E-02 -0.32410595006E-01  0.94912833035E-02  0.34003264539E-01  0.51100000000E-03 0.  1.
</event>
<event>
 8    1  0.1177602E+005  0.1043930E+01  0.7957747E-01            NaN
         13   -1    0    0    0    0  0.00000000000E+00  0.00000000000E+00  0.74505805969E-08  0.10566000000E+00  0.10566000000E+00 0. -1.
     999900   -1    0    0    0    0 -0.00000000000E+00 -0.00000000000E+00 -0.74505805969E-08  0.93827000000E+00  0.93827000000E+00 0.  1.
     999902    2    1    2    0    0  0.68322162056E-02  0.16777422605E-01 -0.15736184709E-01  0.10199344046E+01  0.10196520981E+01 0.  0.
     999903    2    3    3    0    0 -0.60965929943E-01  0.81495285538E-01  0.78542703723E-01  0.12994929285E+00  0.18961440477E-01 0.  0.
         14    1    1    2    0    0 -0.68322162056E-02 -0.16777422605E-01  0.15736184709E-01  0.23995595361E-01  0.00000000000E+00 0. -1.
     999901    1    3    3    0    0  0.67798146149E-01 -0.64717862934E-01 -0.94278888432E-01  0.88998511179E+00  0.88000000000E+00 0.  1.
        -11    1    4    4    0    0 -0.55446440370E-01  0.68247490309E-01  0.73881499985E-01  0.11485105504E+00  0.51100000000E-03 0.  1.
         11    1    4    4    0    0 -0.55194895730E-02  0.13247795230E-01  0.46612037383E-02  0.15098237807E-01  0.51100000000E-03 0. -1.
</event>
<event>
 8    1  0.1177602E+005  0.1043930E+01  0.7957747E-01            NaN
         13   -1    0    0    0    0  0.00000000000E+00  0.00000000000E+00  0.74505805969E-08  0.10566000000E+00  0.10566000000E+00 0. -1.
     999900   -1    0    0    0    0 -0.00000000000E+00 -0.00000000000E+00 -0.74505805969E-08  0.93827000000E+00  0.93827000000E+00 0.  1.
     999902    2    1    2    0    0  0.30471893217E-01 -0.15198265446E-01 -0.37059941078E-02  0.10096771470E+01  0.10090959732E+01 0.  0.
     999903    2    3    3    0    0  0.62824424445E-01 -0.99433796376E-01  0.34603507251E-01  0.12423379539E+00  0.20066016915E-01 0.  0.
         14    1    1    2    0    0 -0.30471893217E-01  0.15198265446E-01  0.37059941078E-02  0.34252853037E-01  0.00000000000E+00 0. -1.
     999901    1    3    3    0    0 -0.32352531227E-01  0.84235530930E-01 -0.38309501358E-01  0.88544335157E+00  0.88000000000E+00 0. -1.
        -11    1    4    4    0    0  0.32601603686E-01 -0.65627669202E-01  0.14856312595E-01  0.74771830743E-01  0.51100000000E-03 0.  1.
         11    1    4    4    0    0  0.30222820758E-01 -0.33806127174E-01  0.19747194655E-01  0.49461964648E-01  0.51100000000E-03 0. -1.
</event>
<event>
 8    1  0.1177602E+005  0.1043930E+01  0.7957747E-01            NaN
         13   -1    0    0    0    0  0.00000000000E+00  0.00000000000E+00  0.74505805969E-08  0.10566000000E+00  0.10566000000E+00 0.  1.
     999900   -1    0    0    0    0 -0.00000000000E+00 -0.00000000000E+00 -0.74505805969E-08  0.93827000000E+00  0.93827000000E+00 0.  1.
     999902    2    1    2    0    0  0.83567956648E-02 -0.11884876339E-01  0.18060871462E-01  0.10207506687E+01  0.10204874553E+01 0.  0.
     999903    2    3    3    0    0  0.88523035440E-02  0.93059525418E-01 -0.85822011225E-01  0.12844734235E+00  0.19871175017E-01 0.  0.
         14    1    1    2    0    0 -0.83567956648E-02  0.11884876339E-01 -0.18060871462E-01  0.23179331253E-01  0.00000000000E+00 0. -1.
     999901    1    3    3    0    0 -0.49550787915E-03 -0.10494440176E+00  0.10388288269E+00  0.89230332640E+00  0.88000000000E+00 0.  1.
        -11    1    4    4    0    0  0.10766017876E-01  0.61116545011E-01 -0.66968097605E-01  0.91302390072E-01  0.51100000000E-03 0.  1.
         11    1    4    4    0    0 -0.19137143317E-02  0.31942980407E-01 -0.18853913620E-01  0.37144952276E-01  0.51100000000E-03 0. -1.
</event>
<event>
 8    1  0.1177602E+005  0.1043930E+01  0.7957747E-01            NaN
         13   -1    0    0    0    0  0.00000000000E+00  0.00000000000E+00  0.74505805969E-08  0.10566000000E+00  0.10566000000E+00 0. -1.
     999900   -1    0    0    0    0 -0.00000000000E+00 -0.00000000000E+00 -0.74505805969E-08  0.93827000000E+00  0.93827000000E+00 0.  1.
     999902    2    1    2    0    0  0.19544189827E-01 -0.67243333230E-02 -0.11551179277E-01  0.10202525475E+01  0.10199777639E+01 0.  0.
     999903    2    3    3    0    0 -0.44570359435E-01 -0.10229155379E+00  0.62975604025E-01  0.12963590129E+00  0.19734773498E-01 0.  0.
         14    1    1    2    0    0 -0.19544189827E-01  0.67243333230E-02  0.11551179277E-01  0.23677452509E-01  0.00000000000E+00 0. -1.
     999901    1    3    3    0    0  0.64114549262E-01  0.95567220467E-01 -0.74526783302E-01  0.89061664620E+00  0.88000000000E+00 0.  1.
        -11    1    4    4    0    0 -0.18582538608E-02 -0.13228977770E-01  0.14096125903E-01  0.19427322170E-01  0.51100000000E-03 0.  1.
         11    1    4    4    0    0 -0.42712105574E-01 -0.89062576020E-01  0.48879478122E-01  0.11020857912E+00  0.51100000000E-03 0. -1.
</event>
<event>
 8    1  0.1177602E+005  0.1043930E+01  0.7957747E-01            NaN
         13   -1    0    0    0    0  0.00000000000E+00  0.00000000000E+00  0.74505805969E-08  0.10566000000E+00  0.10566000000E+00 0.  1.
     999900   -1    0    0    0    0 -0.00000000000E+00 -0.00000000000E+00 -0.74505805969E-08  0.93827000000E+00  0.93827000000E+00 0.  1.
     999902    2    1    2    0    0  0.14847148399E-01 -0.16576598884E-02  0.18687486015E-01  0.10200049548E+01  0.10197243256E+01 0.  0.
     999903    2    3    3    0    0 -0.30614809120E-01  0.11999603569E+00 -0.31289589956E-01  0.12907054685E+00  0.18543260423E-01 0.  0.
         14    1    1    2    0    0 -0.14847148399E-01  0.16576598884E-02 -0.18687486015E-01  0.23925045151E-01  0.00000000000E+00 0. -1.
     999901    1    3    3    0    0  0.45461957519E-01 -0.12165369558E+00  0.49977075972E-01  0.89093440800E+00  0.88000000000E+00 0.  1.
        -11    1    4    4    0    0 -0.28725457062E-01  0.90769951073E-01 -0.17954205209E-01  0.96886276153E-01  0.51100000000E-03 0. -1.
         11    1    4    4    0    0 -0.18893520584E-02  0.29226084615E-01 -0.13335384748E-01  0.32184270700E-01  0.51100000000E-03 0.  1.
</event>
<event>
 8    1  0.1177602E+005  0.1043930E+01  0.7957747E-01            NaN
         13   -1    0    0    0    0  0.00000000000E+00  0.00000000000E+00  0.74505805969E-08  0.10566000000E+00  0.10566000000E+00 0. -1.
     999900   -1    0    0    0    0 -0.00000000000E+00 -0.00000000000E+00 -0.74505805969E-08  0.93827000000E+00  0.93827000000E+00 0.  1.
     999902    2    1    2    0    0 -0.60133912907E-02  0.18433121395E-01 -0.13013572093E-01  0.10205784712E+01  0.10203112868E+01 0.  0.
     999903    2    3    3    0    0  0.23601487471E-01 -0.44807602528E-01  0.11618218519E+00  0.12840809850E+00  0.20629787916E-01 0.  0.
         14    1    1    2    0    0  0.60133912907E-02 -0.18433121395E-01  0.13013572093E-01  0.23351528811E-01  0.00000000000E+00 0.  1.
     999901    1    3    3    0    0 -0.29614878762E-01  0.63240723923E-01 -0.12919575728E+00  0.89217037269E+00  0.88000000000E+00 0.  1.
        -11    1    4    4    0    0  0.23844036671E-01 -0.29144658686E-01  0.93859365971E-01  0.10113254133E+00  0.51100000000E-03 0.  1.
         11    1    4    4    0    0 -0.24254919971E-03 -0.15662943843E-01  0.22322819219E-01  0.27275557168E-01  0.51100000000E-03 0. -1.
</event>
<event>
 8    1  0.1177602E+005  0.1043930E+01  0.7957747E-01            NaN
         13   -1    0    0    0    0  0.00000000000E+00  0.00000000000E+00  0.74505805969E-08  0.10566000000E+00  0.10566000000E+00 0.  1.
     999900   -1    0    0    0    0 -0.00000000000E+00 -0.00000000000E+00 -0.74505805969E-08  0.93827000000E+00  0.93827000000E+00 0. -1.
     999902    2    1    2    0    0 -0.94866531486E-02 -0.53541217627E-02  0.17826840437E-01  0.10230383881E+01  0.10228250506E+01 0.  0.
     999903    2    3    3    0    0 -0.30614955234E-01  0.77123520651E-01  0.10419619665E+00  0.13472052138E+00  0.20185602852E-01 0.  0.
         14    1    1    2    0    0  0.94866531486E-02  0.53541217627E-02 -0.17826840437E-01  0.20891611900E-01  0.00000000000E+00 0. -1.
     999901    1    3    3    0    0  0.21128302085E-01 -0.82477642414E-01 -0.86369356212E-01  0.88831786672E+00  0.88000000000E+00 0. -1.
        -11    1    4    4    0    0 -0.14000497859E-01  0.59628966649E-01  0.75795398035E-01  0.97451685918E-01  0.51100000000E-03 0.  1.
         11    1    4    4    0    0 -0.16614457375E-01  0.17494554002E-01  0.28400798614E-01  0.37268835459E-01  0.51100000000E-03 0. -1.
</event>
<event>
 8    1  0.1177602E+005  0.1043930E+01  0.7957747E-01            NaN
         13   -1    0    0    0    0  0.00000000000E+00  0.00000000000E+00  0.74505805969E-08  0.10566000000E+00  0.10566000000E+00 0.  1.
     999900   -1    0    0    0    0 -0.00000000000E+00 -0.00000000000E+00 -0.74505805969E-08  0.93827000000E+00  0.93827000000E+00 0. -1.
     999902    2    1    2    0    0 -0.83683929925E-02 -0.15397256361E-01 -0.19091600695E-01  0.10180148554E+01  0.10176849468E+01 0.  0.
     999903    2    3    3    0    0 -0.37516246900E-01  0.99018043622E-01 -0.70460200647E-01  0.12864474606E+00  0.19307746338E-01 0.  0.
         14    1    1    2    0    0  0.83683929925E-02  0.15397256361E-01  0.19091600695E-01  0.25915144642E-01  0.00000000000E+00 0.  1.
     999901    1    3    3    0    0  0.29147853908E-01 -0.11441529998E+00  0.51368599952E-01  0.88937010930E+00  0.88000000000E+00 0.  1.
        -11    1    4    4    0    0 -0.12480762011E-01  0.14336241704E-01 -0.16358082220E-01  0.25082767421E-01  0.51100000000E-03 0. -1.
         11    1    4    4    0    0 -0.25035484889E-01  0.84681801918E-01 -0.54102118426E-01  0.10356197864E+00  0.51100000000E-03 0.  1.
</event>
<event>
 8    1  0.1177602E+005  0.1043930E+01  0.7957747E-01            NaN
         13   -1    0    0    0    0  0.00000000000E+00  0.00000000000E+00  0.74505805969E-08  0.10566000000E+00  0.10566000000E+00 0.  1.
     999900   -1    0    0    0    0 -0.00000000000E+00 -0.00000000000E+00 -0.74505805969E-08  0.93827000000E+00  0.93827000000E+00 0. -1.
     999902    2    1    2    0    0 -0.95717506984E-02 -0.52071572153E-02 -0.20869770497E-01  0.10203868435E+01  0.10201152044E+01 0.  0.
     999903    2    3    3    0    0  0.10190738322E+00 -0.77497623799E-01  0.71688707533E-02  0.12997139312E+00  0.21217301233E-01 0.  0.
         14    1    1    2    0    0  0.95717506984E-02  0.52071572153E-02  0.20869770497E-01  0.23543156507E-01  0.00000000000E+00 0. -1.
     999901    1    3    3    0    0 -0.11147913392E+00  0.72290466583E-01 -0.28038641251E-01  0.89041545037E+00  0.88000000000E+00 0. -1.
        -11    1    4    4    0    0  0.12548668909E-01 -0.18384459602E-01 -0.24420839170E-02  0.22398266475E-01  0.51100000000E-03 0.  1.
         11    1    4    4    0    0  0.89358714316E-01 -0.59113164197E-01  0.96109546703E-02  0.10757312665E+00  0.51100000000E-03 0. -1.
</event>
<event>
 8    1  0.1177602E+005  0.1043930E+01  0.7957747E-01            NaN
         13   -1    0    0    0    0  0.00000000000E+00  0.00000000000E+00  0.74505805969E-08  0.10566000000E+00  0.10566000000E+00 0.  1.
     999900   -1    0    0    0    0 -0.00000000000E+00 -0.00000000000E+00 -0.74505805969E-08  0.93827000000E+00  0.93827000000E+00 0. -1.
     999902    2    1    2    0    0 -0.38589490904E-02  0.21230138660E-01 -0.52980627948E-02  0.10217110949E+01  0.10214694717E+01 0.  0.
     999903    2    3    3    0    0  0.54296251799E-01  0.10306690270E+00 -0.63351639743E-01  0.13410222767E+00  0.19977682961E-01 0.  0.
         14    1    1    2    0    0  0.38589490904E-02 -0.21230138660E-01  0.52980627948E-02  0.22218905126E-01  0.00000000000E+00 0.  1.
     999901    1    3    3    0    0 -0.58155200889E-01 -0.81836764042E-01  0.58053576948E-01  0.88760886720E+00  0.88000000000E+00 0.  1.
        -11    1    4    4    0    0  0.84608688955E-02  0.29628600971E-01 -0.99365498981E-02  0.32379568293E-01  0.51100000000E-03 0. -1.
         11    1    4    4    0    0  0.45835382904E-01  0.73438301731E-01 -0.53415089845E-01  0.10172265938E+00  0.51100000000E-03 0.  1.
</event>
<event>
 8    1  0.1177602E+005  0.1043930E+01  0.7957747E-01            NaN
         13   -1    0    0    0    0  0.00000000000E+00  0.00000000000E+00  0.74505805969E-08  0.10566000000E+00  0.10566000000E+00 0.  1.
     999900   -1    0    0    0    0 -0.00000000000E+00 -0.00000000000E+00 -0.74505805969E-08  0.93827000000E+00  0.93827000000E+00 0. -1.
     999902    2    1    2    0    0  0.28510070296E-02  0.22821427429E-01  0.10589538756E-01  0.10186103609E+01  0.10182956267E+01 0.  0.
     999903    2    3    3    0    0  0.11111577188E+00  0.65680046416E-01  0.96063323544E-02  0.13093976482E+00  0.19808006721E-01 0.  0.
         14    1    1    2    0    0 -0.28510070296E-02 -0.22821427429E-01 -0.10589538756E-01  0.25319639058E-01  0.00000000000E+00 0. -1.
     999901    1    3    3    0    0 -0.10826476485E+00 -0.42858618987E-01  0.98320640131E-03  0.88767059613E+00  0.88000000000E+00 0. -1.
        -11    1    4    4    0    0  0.19278190789E-01  0.18489576698E-01  0.71500291573E-02  0.27656773574E-01  0.51100000000E-03 0. -1.
         11    1    4    4    0    0  0.91837581095E-01  0.47190469718E-01  0.24563031971E-02  0.10328299124E+00  0.51100000000E-03 0.  1.
</event>
<event>
 8    1  0.1177602E+005  0.1043930E+01  0.7957747E-01            NaN
         13   -1    0    0    0    0  0.00000000000E+00  0.00000000000E+00  0.74505805969E-08  0.10566000000E+00  0.10566000000E+00 0. -1.
     999900   -1    0    0    0    0 -0.00000000000E+00 -0.00000000000E+00 -0.74505805969E-08  0.93827000000E+00  0.93827000000E+00 0. -1.
     999902    2    1    2    0    0 -0.27757314204E-02 -0.20213175635E-01  0.11657913501E-01  0.10204314021E+01  0.10201608022E+01 0.  0.
     999903    2    3    3    0    0  0.47856739746E-02  0.14811937117E-01  0.12938774984E+00  0.13186837807E+00  0.20144060396E-01 0.  0.
         14    1    1    2    0    0  0.27757314204E-02  0.20213175635E-01 -0.11657913501E-01  0.23498597859E-01  0.00000000000E+00 0.  1.
     999901    1    3    3    0    0 -0.75614053950E-02 -0.35025112752E-01 -0.11772983634E+00  0.88856302407E+00  0.88000000000E+00 0. -1.
        -11    1    4    4    0    0  0.10253336303E-01  0.44596215782E-02  0.34756665098E-01  0.36514463158E-01  0.51100000000E-03 0. -1.
         11    1    4    4    0    0 -0.54676623286E-02  0.10352315539E-01  0.94631084746E-01  0.95353914915E-01  0.51100000000E-03 0.  1.
</event>
<event>
 8    1  0.1177602E+005  0.1043930E+01  0.7957747E-01            NaN
         13   -1    0    0    0    0  0.00000000000E+00  0.00000000000E+00  0.74505805969E-08  0.10566000000E+00  0.10566000000E+00 0.  1.
     999900   -1    0    0    0    0 -0.00000000000E+00 -0.00000000000E+00 -0.74505805969E-08  0.93827000000E+00  0.93827000000E+00 0. -1.
     999902    2    1    2    0    0  0.42973961793E-02 -0.89703887863E-02  0.21971150373E-01  0.10198122278E+01  0.10195270045E+01 0.  0.
     999903    2    3    3    0    0  0.11791239011E-01  0.12641856147E+00  0.15965239085E-01  0.12940647952E+00  0.19247391594E-01 0.  0.
         14    1    1    2    0    0 -0.42973961793E-02  0.89703887863E-02 -0.21971150373E-01  0.24117772236E-01  0.00000000000E+00 0. -1.
     999901    1    3    3    0    0 -0.74938428319E-02 -0.13538895025E+00  0.60059112880E-02  0.89040574824E+00  0.88000000000E+00 0.  1.
        -11    1    4    4    0    0  0.55654328070E-02  0.69472345713E-01 -0.84951658891E-03  0.69701963105E-01  0.51100000000E-03 0. -1.
         11    1    4    4    0    0  0.62258062042E-02  0.56946215752E-01  0.16814755674E-01  0.59704516418E-01  0.51100000000E-03 0.  1.
</event>
<event>
 8    1  0.1177602E+005  0.1043930E+01  0.7957747E-01            NaN
         13   -1    0    0    0    0  0.00000000000E+00  0.00000000000E+00  0.74505805969E-08  0.10566000000E+00  0.10566000000E+00 0. -1.
     999900   -1    0    0    0    0 -0.00000000000E+00 -0.00000000000E+00 -0.74505805969E-08  0.93827000000E+00  0.93827000000E+00 0.  1.
     999902    2    1    2    0    0  0.16454785733E-01  0.13963123969E-01 -0.63193125456E-02  0.10214430590E+01  0.10211955054E+01 0.  0.
     999903    2    3    3    0    0  0.15903722353E-01  0.29012695552E-01  0.12579179249E+00  0.13145421786E+00  0.19025547263E-01 0.  0.
         14    1    1    2    0    0 -0.16454785733E-01 -0.13963123969E-01  0.63193125456E-02  0.22486941001E-01  0.00000000000E+00 0. -1.
     999901    1    3    3    0    0  0.55106338000E-03 -0.15049571583E-01 -0.13211110503E+00  0.88998884114E+00  0.88000000000E+00 0.  1.
        -11    1    4    4    0    0  0.13959366195E-01  0.20272649108E-01  0.57125284218E-01  0.62204528970E-01  0.51100000000E-03 0.  1.
         11    1    4    4    0    0  0.19443561587E-02  0.87400464437E-02  0.68666508270E-01  0.69249688892E-01  0.51100000000E-03 0. -1.
</event>
<event>
 8    1  0.1177602E+005  0.1043930E+01  0.7957747E-01            NaN
         13   -1    0    0    0    0  0.00000000000E+00  0.00000000000E+00  0.74505805969E-08  0.10566000000E+00  0.10566000000E+00 0.  1.
     999900   -1    0    0    0    0 -0.00000000000E+00 -0.00000000000E+00 -0.74505805969E-08  0.93827000000E+00  0.93827000000E+00 0.  1.
     999902    2    1    2    0    0  0.15807567132E-01  0.73927841784E-03  0.17113093851E-01  0.10206215532E+01  0.10203553651E+01 0.  0.
     999903    2    3    3    0    0  0.48528966752E-02 -0.55776485383E-01 -0.11449213739E+00  0.12897477714E+00  0.19785769808E-01 0.  0.
         14    1    1    2    0    0 -0.15807567132E-01 -0.73927841784E-03 -0.17113093851E-01  0.23308446803E-01  0.00000000000E+00 0.  1.
     999901    1    3    3    0    0  0.10954670457E-01  0.56515763801E-01  0.13160523124E+00  0.89164677606E+00  0.88000000000E+00 0. -1.
        -11    1    4    4    0    0  0.33647296824E-02 -0.10160402732E-01 -0.88619125156E-02  0.13905028010E-01  0.51100000000E-03 0. -1.
         11    1    4    4    0    0  0.14881669927E-02 -0.45616082651E-01 -0.10563022487E+00  0.11506974913E+00  0.51100000000E-03 0.  1.
</event>
<event>
 8    1  0.1177602E+005  0.1043930E+01  0.7957747E-01            NaN
         13   -1    0    0    0    0  0.00000000000E+00  0.00000000000E+00  0.74505805969E-08  0.10566000000E+00  0.10566000000E+00 0.  1.
     999900   -1    0    0    0    0 -0.00000000000E+00 -0.00000000000E+00 -0.74505805969E-08  0.93827000000E+00  0.93827000000E+00 0. -1.
     999902    2    1    2    0    0  0.12290918924E-01  0.23275930962E-02 -0.19493710433E-01  0.10207677651E+01  0.10205049442E+01 0.  0.
     999903    2    3    3    0    0 -0.89946470497E-01  0.62729378469E-01  0.65346393595E-01  0.12874831315E+00  0.16752149233E-01 0.  0.
         14    1    1    2    0    0 -0.12290918924E-01 -0.23275930962E-02  0.19493710433E-01  0.23162234868E-01  0.00000000000E+00 0.  1.
     999901    1    3    3    0    0  0.10223738942E+00 -0.60401785373E-01 -0.84840104028E-01  0.89201945199E+00  0.88000000000E+00 0.  1.
        -11    1    4    4    0    0 -0.72320562775E-01  0.42978994670E-01  0.53820333288E-01  0.99871653532E-01  0.51100000000E-03 0.  1.
         11    1    4    4    0    0 -0.17625907721E-01  0.19750383799E-01  0.11526060307E-01  0.28876659613E-01  0.51100000000E-03 0. -1.
</event>
<event>
 8    1  0.1177602E+005  0.1043930E+01  0.7957747E-01            NaN
         13   -1    0    0    0    0  0.00000000000E+00  0.00000000000E+00  0.74505805969E-08  0.10566000000E+00  0.10566000000E+00 0. -1.
     999900   -1    0    0    0    0 -0.00000000000E+00 -0.00000000000E+00 -0.74505805969E-08  0.93827000000E+00  0.93827000000E+00 0.  1.
     999902    2    1    2    0    0 -0.64503476585E-02  0.22871385758E-01 -0.31580220142E-02  0.10199575080E+01  0.10196757512E+01 0.  0.
     999903    2    3    3    0    0  0.91918166502E-01  0.87440948116E-01  0.28870629679E-01  0.13154801483E+00  0.19403561708E-01 0.  0.
         14    1    1    2    0    0  0.64503476585E-02 -0.22871385758E-01  0.31580220142E-02  0.23972492036E-01  0.00000000000E+00 0.  1.
     999901    1    3    3    0    0 -0.98368514161E-01 -0.64569562359E-01 -0.32028651693E-01  0.88840949313E+00  0.88000000000E+00 0.  1.
        -11    1    4    4    0    0  0.44689760881E-01  0.55786010161E-01  0.16451469530E-01  0.73349612323E-01  0.51100000000E-03 0.  1.
         11    1    4    4    0    0  0.47228405622E-01  0.31654937955E-01  0.12419160149E-01  0.58198402507E-01  0.51100000000E-03 0. -1.
</event>
<event>
 8    1  0.1177602E+005  0.1043930E+01  0.7957747E-01            NaN
         13   -1    0    0    0    0  0.00000000000E+00  0.00000000000E+00  0.74505805969E-08  0.10566000000E+00  0.10566000000E+00 0.  1.
     999900   -1    0    0    0    0 -0.00000000000E+00 -0.00000000000E+00 -0.74505805969E-08  0.93827000000E+00  0.93827000000E+00 0. -1.
     999902    2    1    2    0    0 -0.48141792952E-02  0.17232428435E-01  0.15594658403E-01  0.10201955044E+01  0.10199193796E+01 0.  0.
     999903    2    3    3    0    0  0.20904269590E-01  0.74713055644E-01 -0.10345253585E+00  0.12994964194E+00  0.12862857194E-01 0.  0.
         14    1    1    2    0    0  0.48141792952E-02 -0.17232428435E-01 -0.15594658403E-01  0.23734495629E-01  0.00000000000E+00 0. -1.
     999901    1    3    3    0    0 -0.25718448885E-01 -0.57480627209E-01  0.11904719425E+00  0.89024586243E+00  0.88000000000E+00 0.  1.
        -11    1    4    4    0    0  0.13561151338E-01  0.58191637832E-01 -0.71005945107E-01  0.92802353961E-01  0.51100000000E-03 0.  1.
         11    1    4    4    0    0  0.73431182517E-02  0.16521417813E-01 -0.32446590744E-01  0.37147287978E-01  0.51100000000E-03 0. -1.
</event>
<event>
 8    1  0.1314724E+005  0.1043930E+01  0.7957747E-01            NaN
         13   -1    0    0    0    0  0.00000000000E+00  0.00000000000E+00  0.74505805969E-08  0.10566000000E+00  0.10566000000E+00 0. -1.
     999900   -1    0    0    0    0 -0.00000000000E+00 -0.00000000000E+00 -0.74505805969E-08  0.93827000000E+00  0.93827000000E+00 0.  1.
     999902    2    1    2    0    0  0.93133639189E-03 -0.12043712463E-01 -0.21342151829E-01  0.10194064227E+01  0.10191114016E+01 0.  0.
     999903    2    3    3    0    0 -0.85950600983E-01  0.84140818255E-01 -0.43507824843E-01  0.12963608604E+00  0.21104522644E-01 0.  0.
         14    1    1    2    0    0 -0.93133639189E-03  0.12043712463E-01  0.21342151829E-01  0.24523577268E-01  0.00000000000E+00 0. -1.
     999901    1    3    3    0    0  0.86881937375E-01 -0.96184530717E-01  0.22165673015E-01  0.88977033669E+00  0.88000000000E+00 0. -1.
        -11    1    4    4    0    0 -0.41040492308E-01  0.42591735179E-01 -0.10360495818E-01  0.60049803572E-01  0.51100000000E-03 0. -1.
         11    1    4    4    0    0 -0.44910108675E-01  0.41549083075E-01 -0.33147329025E-01  0.69586282471E-01  0.51100000000E-03 0.  1.
</event>
<event>
 7    1  0.1416798E+005  0.1043930E+01  0.7957747E-01            NaN
         13   -1    0    0    0    0  0.00000000000E+00  0.00000000000E+00  0.74505805969E-08  0.10566000000E+00  0.10566000000E+00 0. -1.
     999900   -1    0    0    0    0 -0.00000000000E+00 -0.00000000000E+00 -0.74505805969E-08  0.93827000000E+00  0.93827000000E+00 0. -1.
     999903    2    1    2    0    0  0.53874974258E-01  0.44742003156E-01 -0.57817016407E-01  0.94606911221E-01  0.26519814607E-01 0.  0.
         14    1    1    2    0    0 -0.43364525347E-01  0.44485433010E-01 -0.62128084340E-02  0.62434243787E-01  0.00000000000E+00 0. -1.
     999901    1    1    2    0    0 -0.10510448911E-01 -0.89227436167E-01  0.64029824841E-01  0.88688884499E+00  0.88000000000E+00 0.  1.
        -11    1    3    3    0    0  0.41686835071E-01  0.37550162833E-01 -0.30558987868E-01  0.63889903800E-01  0.51100000000E-03 0. -1.
         11    1    3    3    0    0  0.12188139187E-01  0.71918403233E-02 -0.27258028539E-01  0.30717007421E-01  0.51100000000E-03 0.  1.
</event>
<event>
 8    1  0.1177602E+005  0.1043930E+01  0.7957747E-01            NaN
         13   -1    0    0    0    0  0.00000000000E+00  0.00000000000E+00  0.74505805969E-08  0.10566000000E+00  0.10566000000E+00 0. -1.
     999900   -1    0    0    0    0 -0.00000000000E+00 -0.00000000000E+00 -0.74505805969E-08  0.93827000000E+00  0.93827000000E+00 0. -1.
     999902    2    1    2    0    0  0.10770903460E-01 -0.18802344982E-01 -0.10643105735E-01  0.10197884127E+01  0.10195026191E+01 0.  0.
     999903    2    3    3    0    0  0.41664424359E-03  0.12664775869E+00 -0.80391834983E-02  0.12778520431E+00  0.14986714008E-01 0.  0.
         14    1    1    2    0    0 -0.10770903460E-01  0.18802344982E-01  0.10643105735E-01  0.24141587310E-01  0.00000000000E+00 0.  1.
     999901    1    3    3    0    0  0.10354259216E-01 -0.14545010367E+00 -0.26039222365E-02  0.89200320838E+00  0.88000000000E+00 0. -1.
        -11    1    4    4    0    0  0.34409188209E-02  0.11187074667E-01  0.18524584892E-02  0.11860998499E-01  0.51100000000E-03 0. -1.
         11    1    4    4    0    0 -0.30242745773E-02  0.11546068402E+00 -0.98916419875E-02  0.11592420581E+00  0.51100000000E-03 0.  1.
</event>
<event>
 8    1  0.1177602E+005  0.1043930E+01  0.7957747E-01            NaN
         13   -1    0    0    0    0  0.00000000000E+00  0.00000000000E+00  0.74505805969E-08  0.10566000000E+00  0.10566000000E+00 0. -1.
     999900   -1    0    0    0    0 -0.00000000000E+00 -0.00000000000E+00 -0.74505805969E-08  0.93827000000E+00  0.93827000000E+00 0.  1.
     999902    2    1    2    0    0 -0.93857075747E-02 -0.20186129174E-01  0.45213975897E-02  0.10212140507E+01  0.10209613719E+01 0.  0.
     999903    2    3    3    0    0 -0.89383893111E-01  0.83072471068E-01  0.42712483234E-01  0.13075315471E+00  0.19532420379E-01 0.  0.
         14    1    1    2    0    0  0.93857075747E-02  0.20186129174E-01 -0.45213975897E-02  0.22715949328E-01  0.00000000000E+00 0.  1.
     999901    1    3    3    0    0  0.79998185536E-01 -0.10325860024E+00 -0.38191085644E-01  0.89046089596E+00  0.88000000000E+00 0.  1.
        -11    1    4    4    0    0 -0.20129166277E-01  0.30755222461E-01  0.11545636817E-01  0.38530895319E-01  0.51100000000E-03 0.  1.
         11    1    4    4    0    0 -0.69254726834E-01  0.52317248608E-01  0.31166846417E-01  0.92222259392E-01  0.51100000000E-03 0. -1.
</event>
<event>
 8    1  0.1177602E+005  0.1043930E+01  0.7957747E-01            NaN
         13   -1    0    0    0    0  0.00000000000E+00  0.00000000000E+00  0.74505805969E-08  0.10566000000E+00  0.10566000000E+00 0.  1.
     999900   -1    0    0    0    0 -0.00000000000E+00 -0.00000000000E+00 -0.74505805969E-08  0.93827000000E+00  0.93827000000E+00 0.  1.
     999902    2    1    2    0    0  0.58510821869E-02  0.22251789684E-01 -0.63575835802E-02  0.10200595962E+01  0.10197802625E+01 0.  0.
     999903    2    3    3    0    0 -0.43693012914E-01 -0.65706482595E-01 -0.10047996950E+00  0.12930132456E+00  0.19904447525E-01 0.  0.
         14    1    1    2    0    0 -0.58510821869E-02 -0.22251789684E-01  0.63575835802E-02  0.23870403764E-01  0.00000000000E+00 0. -1.
     999901    1    3    3    0    0  0.49544095100E-01  0.87958272279E-01  0.94122385917E-01  0.89075827167E+00  0.88000000000E+00 0. -1.
        -11    1    4    4    0    0 -0.35502576953E-01 -0.62743148755E-01 -0.84334059110E-01  0.11094877346E+00  0.51100000000E-03 0. -1.
         11    1    4    4    0    0 -0.81904359606E-02 -0.29633338404E-02 -0.16145910387E-01  0.18352551101E-01  0.51100000000E-03 0.  1.
</event>
<event>
 8    1  0.1177602E+005  0.1043930E+01  0.7957747E-01            NaN
         13   -1    0    0    0    0  0.00000000000E+00  0.00000000000E+00  0.74505805969E-08  0.10566000000E+00  0.10566000000E+00 0. -1.
     999900   -1    0    0    0    0 -0.00000000000E+00 -0.00000000000E+00 -0.74505805969E-08  0.93827000000E+00  0.93827000000E+00 0. -1.
     999902    2    1    2    0    0 -0.10588354228E-01 -0.19341132418E-01 -0.35124631589E-02  0.10216022136E+01  0.10213581902E+01 0.  0.
     999903    2    3    3    0    0  0.12847504311E+00 -0.11707533618E-01 -0.69587533278E-02  0.13064274357E+00  0.19395854011E-01 0.  0.
         14    1    1    2    0    0  0.10588354228E-01  0.19341132418E-01  0.35124631589E-02  0.22327786408E-01  0.00000000000E+00 0. -1.
     999901    1    3    3    0    0 -0.13906339734E+00 -0.76335987994E-02  0.34462901689E-02  0.89095947002E+00  0.88000000000E+00 0. -1.
        -11    1    4    4    0    0  0.14725065124E-01 -0.23153851661E-02 -0.70674066446E-02  0.16504481484E-01  0.51100000000E-03 0. -1.
         11    1    4    4    0    0  0.11374997799E+00 -0.93921484523E-02  0.10865331674E-03  0.11413826208E+00  0.51100000000E-03 0.  1.
</event>
<event>
 8    1  0.1177602E+005  0.1043930E+01  0.7957747E-01            NaN
         13   -1    0    0    0    0  0.00000000000E+00  0.00000000000E+00  0.74505805969E-08  0.10566000000E+00  0.10566000000E+00 0.  1.
     999900   -1    0    0    0    0 -0.00000000000E+00 -0.00000000000E+00 -0.74505805969E-08  0.93827000000E+00  0.93827000000E+00 0. -1.
     999902    2    1    2    0    0  0.20082054646E-01 -0.83049702850E-02 -0.53176513991E-02  0.10215572740E+01  0.10213122565E+01 0.  0.
     999903    2    3    3    0    0 -0.71773365886E-01 -0.84180804096E-01 -0.67739142735E-01  0.13133763653E+00  0.20570840574E-01 0.  0.
         14    1    1    2    0    0 -0.20082054646E-01  0.83049702850E-02  0.53176513991E-02  0.22372725955E-01  0.00000000000E+00 0.  1.
     999901    1    3    3    0    0  0.91855420532E-01  0.75875833811E-01  0.62421491336E-01  0.89021963752E+00  0.88000000000E+00 0.  1.
        -11    1    4    4    0    0 -0.61454453158E-01 -0.74701785095E-01 -0.66234476083E-01  0.11723597337E+00  0.51100000000E-03 0.  1.
         11    1    4    4    0    0 -0.10318912728E-01 -0.94790190002E-02 -0.15046666528E-02  0.14101663159E-01  0.51100000000E-03 0. -1.
</event>
<event>
 8    1  0.1177602E+005  0.1043930E+01  0.7957747E-01            NaN
         13   -1    0    0    0    0  0.00000000000E+00  0.00000000000E+00  0.74505805969E-08  0.10566000000E+00  0.10566000000E+00 0. -1.
     999900   -1    0    0    0    0 -0.00000000000E+00 -0.00000000000E+00 -0.74505805969E-08  0.93827000000E+00  0.93827000000E+00 0.  1.
     999902    2    1    2    0    0 -0.26605040535E-02 -0.96274374099E-02 -0.19684401748E-01  0.10218564524E+01  0.10216180146E+01 0.  0.
     999903    2    3    3    0    0  0.48439040127E-02 -0.91046415053E-01  0.91701329566E-01  0.13107469054E+00  0.21413256555E-01 0.  0.
         14    1    1    2    0    0  0.26605040535E-02  0.96274374099E-02  0.19684401748E-01  0.22073547633E-01  0.00000000000E+00 0. -1.
     999901    1    3    3    0    0 -0.75044080662E-02  0.81418977643E-01 -0.11138573131E+00  0.89078176183E+00  0.88000000000E+00 0.  1.
        -11    1    4    4    0    0  0.17445290781E-02 -0.18655889684E-02  0.91398798609E-02  0.95038060152E-02  0.51100000000E-03 0. -1.
         11    1    4    4    0    0  0.30993749347E-02 -0.89180826085E-01  0.82561449705E-01  0.12157088453E+00  0.51100000000E-03 0.  1.
</event>
<event>
 8    1  0.1177602E+005  0.1043930E+01  0.7957747E-01            NaN
         13   -1    0    0    0    0  0.00000000000E+00  0.00000000000E+00  0.74505805969E-08  0.10566000000E+00  0.10566000000E+00 0. -1.
     999900   -1    0    0    0    0 -0.00000000000E+00 -0.00000000000E+00 -0.74505805969E-08  0.93827000000E+00  0.93827000000E+00 0.  1.
     999902    2    1    2    0    0 -0.11902240346E-01 -0.15271240114E-01  0.13944412455E-01  0.10200695570E+01  0.10197904591E+01 0.  0.
     999903    2    3    3    0    0  0.77428590072E-02  0.27469410310E-01 -0.12324269335E+00  0.12819905347E+00  0.20777764038E-01 0.  0.
         14    1    1    2    0    0  0.11902240346E-01  0.15271240114E-01 -0.13944412455E-01  0.23860442967E-01  0.00000000000E+00 0.  1.
     999901    1    3    3    0    0 -0.19645099353E-01 -0.42740650424E-01  0.13718710580E+00  0.89187050356E+00  0.88000000000E+00 0. -1.
        -11    1    4    4    0    0 -0.21346314295E-02  0.24961100566E-01 -0.84722603871E-01  0.88350404190E-01  0.51100000000E-03 0.  1.
         11    1    4    4    0    0  0.98774904367E-02  0.25083097439E-02 -0.38520089477E-01  0.39848649279E-01  0.51100000000E-03 0. -1.
</event>
<event>
 8    1  0.1177602E+005  0.1043930E+01  0.7957747E-01            NaN
         13   -1    0    0    0    0  0.00000000000E+00  0.00000000000E+00  0.74505805969E-08  0.10566000000E+00  0.10566000000E+00 0. -1.
     999900   -1    0    0    0    0 -0.00000000000E+00 -0.00000000000E+00 -0.74505805969E-08  0.93827000000E+00  0.93827000000E+00 0. -1.
     999902    2    1    2    0    0  0.12872143251E-01  0.96982159780E-02  0.16844507962E-01  0.10206172371E+01  0.10203509493E+01 0.  0.
     999903    2    3    3    0    0 -0.31235913652E-02 -0.94523733689E-01 -0.84256978149E-01  0.12857486771E+00  0.22085406623E-01 0.  0.
         14    1    1    2    0    0 -0.12872143251E-01 -0.96982159780E-02 -0.16844507962E-01  0.23312762888E-01  0.00000000000E+00 0.  1.
     999901    1    3    3    0    0  0.15995734616E-01  0.10422194967E+00  0.10110148611E+00  0.89204236940E+00  0.88000000000E+00 0.  1.
        -11    1    4    4    0    0 -0.28357729705E-02 -0.21073380599E-01 -0.80781600632E-02  0.22751851995E-01  0.51100000000E-03 0.  1.
         11    1    4    4    0    0 -0.28781839475E-03 -0.73450353090E-01 -0.76178818086E-01  0.10582301571E+00  0.51100000000E-03 0. -1.
</event>
<event>
 8    1  0.1177602E+005  0.1043930E+01  0.7957747E-01            NaN
         13   -1    0    0    0    0  0.00000000000E+00  0.00000000000E+00  0.74505805969E-08  0.10566000000E+00  0.10566000000E+00 0.  1.
     999900   -1    0    0    0    0 -0.00000000000E+00 -0.00000000000E+00 -0.74505805969E-08  0.93827000000E+00  0.93827000000E+00 0.  1.
     999902    2    1    2    0    0 -0.15599352970E-01 -0.37307919971E-02 -0.17535561984E-01  0.10201654349E+01  0.10198886017E+01 0.  0.
     999903    2    3    3    0    0 -0.78308137768E-01  0.28481213397E-02  0.10117557472E+00  0.12995871293E+00  0.22638328381E-01 0.  0.
         14    1    1    2    0    0  0.15599352970E-01  0.37307919971E-02  0.17535561984E-01  0.23764565136E-01  0.00000000000E+00 0.  1.
     999901    1    3    3    0    0  0.62708784798E-01 -0.65789133368E-02 -0.11871113670E+00  0.89020672193E+00  0.88000000000E+00 0.  1.
        -11    1    4    4    0    0 -0.26770359104E-01  0.38463454866E-02  0.19387237907E-01  0.33280213563E-01  0.51100000000E-03 0.  1.
         11    1    4    4    0    0 -0.51537778664E-01 -0.99822414684E-03  0.81788336812E-01  0.96678499371E-01  0.51100000000E-03 0. -1.
</event>
<event>
 8    1  0.1177602E+005  0.1043930E+01  0.7957747E-01            NaN
         13   -1    0    0    0    0  0.00000000000E+00  0.00000000000E+00  0.74505805969E-08  0.10566000000E+00  0.10566000000E+00 0. -1.
     999900   -1    0    0    0    0 -0.00000000000E+00 -0.00000000000E+00 -0.74505805969E-08  0.93827000000E+00  0.93827000000E+00 0.  1.
     999902    2    1    2    0    0  0.15107885417E-01 -0.75336207463E-02 -0.15780718205E-01  0.10208208090E+01  0.10205592042E+01 0.  0.
     999903    2    3    3    0    0  0.99656146692E-01 -0.46790279126E-01 -0.73699795691E-01  0.13400396584E+00  0.20117782717E-01 0.  0.
         14    1    1    2    0    0 -0.15107885417E-01  0.75336207463E-02  0.15780718205E-01  0.23109191037E-01  0.00000000000E+00 0.  1.
     999901    1    3    3    0    0 -0.84548261274E-01  0.39256658380E-01  0.57919077487E-01  0.88681684312E+00  0.88000000000E+00 0. -1.
        -11    1    4    4    0    0  0.43580188309E-01 -0.30274146804E-01 -0.40668817052E-01  0.66857838577E-01  0.51100000000E-03 0.  1.
         11    1    4    4    0    0  0.56075958383E-01 -0.16516132323E-01 -0.33030978639E-01  0.67146127262E-01  0.51100000000E-03 0. -1.
</event>
<event>
 8    1  0.1177602E+005  0.1043930E+01  0.7957747E-01            NaN
         13   -1    0    0    0    0  0.00000000000E+00  0.00000000000E+00  0.74505805969E-08  0.10566000000E+00  0.10566000000E+00 0. -1.
     999900   -1    0    0    0    0 -0.00000000000E+00 -0.00000000000E+00 -0.74505805969E-08  0.93827000000E+00  0.93827000000E+00 0.  1.
     999902    2    1    2    0    0 -0.91959472017E-02 -0.10354177214E-01 -0.19029894268E-01  0.10203946796E+01  0.10201232234E+01 0.  0.
     999903    2    3    3    0    0 -0.72201686478E-01 -0.26218109393E-01  0.10226977655E+00  0.12970113091E+00  0.21512865303E-01 0.  0.
         14    1    1    2    0    0  0.91959472017E-02  0.10354177214E-01  0.19029894268E-01  0.23535320405E-01  0.00000000000E+00 0. -1.
     999901    1    3    3    0    0  0.63005739276E-01  0.15863932179E-01 -0.12129967082E+00  0.89069354868E+00  0.88000000000E+00 0.  1.
        -11    1    4    4    0    0 -0.22712836844E-02  0.15320768017E-02  0.11356275875E-01  0.11693250688E-01  0.51100000000E-03 0. -1.
         11    1    4    4    0    0 -0.69930402794E-01 -0.27750186195E-01  0.90913500675E-01  0.11800788022E+00  0.51100000000E-03 0.  1.
</event>
<event>
 8    1  0.1177602E+005  0.1043930E+01  0.7957747E-01            NaN
         13   -1    0    0    0    0  0.00000000000E+00  0.00000000000E+00  0.74505805969E-08  0.10566000000E+00  0.10566000000E+00 0.  1.
     999900   -1    0    0    0    0 -0.00000000000E+00 -0.00000000000E+00 -0.74505805969E-08  0.93827000000E+00  0.93827000000E+00 0.  1.
     999902    2    1    2    0    0  0.61763655403E-02  0.22368802015E-01 -0.49497036067E-02  0.10202021606E+01  0.10199261925E+01 0.  0.
     999903    2    3    3    0    0  0.98986896463E-02  0.52949496037E-01  0.11788650386E+00  0.13113648905E+00  0.19947876579E-01 0.  0.
         14    1    1    2    0    0 -0.61763655403E-02 -0.22368802015E-01  0.49497036067E-02  0.23727839359E-01  0.00000000000E+00 0. -1.
     999901    1    3    3    0    0 -0.37223241060E-02 -0.30580694022E-01 -0.12283620747E+00  0.88906567159E+00  0.88000000000E+00 0.  1.
        -11    1    4    4    0    0  0.18496546017E-02  0.47689454733E-01  0.10064519796E+00  0.11138860942E+00  0.51100000000E-03 0.  1.
         11    1    4    4    0    0  0.80490350446E-02  0.52600413033E-02  0.17241305899E-01  0.19747879627E-01  0.51100000000E-03 0. -1.
</event>
<event>
 8    1  0.1177602E+005  0.1043930E+01  0.7957747E-01            NaN
         13   -1    0    0    0    0  0.00000000000E+00  0.00000000000E+00  0.74505805969E-08  0.10566000000E+00  0.10566000000E+00 0.  1.
     999900   -1    0    0    0    0 -0.00000000000E+00 -0.00000000000E+00 -0.74505805969E-08  0.93827000000E+00  0.93827000000E+00 0. -1.
     999902    2    1    2    0    0  0.21181647332E-02  0.22486184185E-01  0.70551562769E-02  0.10202679982E+01  0.10199935773E+01 0.  0.
     999903    2    3    3    0    0  0.52249758922E-01 -0.11131506831E+00  0.31762152967E-01  0.12840119892E+00  0.18893167592E-01 0.  0.
         14    1    1    2    0    0 -0.21181647332E-02 -0.22486184185E-01 -0.70551562769E-02  0.23662001841E-01  0.00000000000E+00 0.  1.
     999901    1    3    3    0    0 -0.50131594188E-01  0.13380125250E+00 -0.24706996690E-01  0.89186679924E+00  0.88000000000E+00 0. -1.
        -11    1    4    4    0    0  0.46437371288E-02 -0.28506655858E-01  0.68857132718E-02  0.29696260556E-01  0.51100000000E-03 0. -1.
         11    1    4    4    0    0  0.47606021793E-01 -0.82808412453E-01  0.24876439695E-01  0.98704938361E-01  0.51100000000E-03 0.  1.
</event>
<event>
 8    1  0.1177602E+005  0.1043930E+01  0.7957747E-01            NaN
         13   -1    0    0    0    0  0.00000000000E+00  0.00000000000E+00  0.74505805969E-08  0.10566000000E+00  0.10566000000E+00 0. -1.
     999900   -1    0    0    0    0 -0.00000000000E+00 -0.00000000000E+00 -0.74505805969E-08  0.93827000000E+00  0.93827000000E+00 0.  1.
     999902    2    1    2    0    0  0.13790785923E-01  0.14324502429E-01  0.16141569792E-01  0.10183189199E+01  0.10179968052E+01 0.  0.
     999903    2    3    3    0    0  0.48227899181E-01 -0.80679241308E-01 -0.82671868935E-01  0.12704134154E+00  0.21674738982E-01 0.  0.
         14    1    1    2    0    0 -0.13790785923E-01 -0.14324502429E-01 -0.16141569792E-01  0.25611080054E-01  0.00000000000E+00 0.  1.
     999901    1    3    3    0    0 -0.34437113257E-01  0.95003743737E-01  0.98813438727E-01  0.89127757840E+00  0.88000000000E+00 0. -1.
        -11    1    4    4    0    0  0.18922245101E-01 -0.36737603669E-01 -0.22797418208E-01  0.47198371592E-01  0.51100000000E-03 0.  1.
         11    1    4    4    0    0  0.29305654080E-01 -0.43941637639E-01 -0.59874450727E-01  0.79842969949E-01  0.51100000000E-03 0. -1.
</event>
<event>
 8    1  0.1177602E+005  0.1043930E+01  0.7957747E-01            NaN
         13   -1    0    0    0    0  0.00000000000E+00  0.00000000000E+00  0.74505805969E-08  0.10566000000E+00  0.10566000000E+00 0. -1.
     999900   -1    0    0    0    0 -0.00000000000E+00 -0.00000000000E+00 -0.74505805969E-08  0.93827000000E+00  0.93827000000E+00 0.  1.
     999902    2    1    2    0    0  0.27421701316E-03  0.21295662937E-01 -0.94933822414E-02  0.10206125224E+01  0.10203461257E+01 0.  0.
     999903    2    3    3    0    0  0.91906497196E-01  0.13552112980E-01 -0.91362392672E-01  0.13204121283E+00  0.21385300967E-01 0.  0.
         14    1    1    2    0    0 -0.27421701316E-03 -0.21295662937E-01  0.94933822414E-02  0.23317477592E-01  0.00000000000E+00 0. -1.
     999901    1    3    3    0    0 -0.91632280183E-01  0.77435499570E-02  0.81869010431E-01  0.88857130958E+00  0.88000000000E+00 0. -1.
        -11    1    4    4    0    0  0.71071616056E-01  0.14395038277E-01 -0.58747611002E-01  0.93327030678E-01  0.51100000000E-03 0. -1.
         11    1    4    4    0    0  0.20834881140E-01 -0.84292529742E-03 -0.32614781671E-01  0.38714182151E-01  0.51100000000E-03 0.  1.
</event>
<event>
 8    1  0.1177602E+005  0.1043930E+01  0.7957747E-01            NaN
         13   -1    0    0    0    0  0.00000000000E+00  0.00000000000E+00  0.74505805969E-08  0.10566000000E+00  0.10566000000E+00 0.  1.
     999900   -1    0    0    0    0 -0.00000000000E+00 -0.00000000000E+00 -0.74505805969E-08  0.93827000000E+00  0.93827000000E+00 0.  1.
     999902    2    1    2    0    0 -0.14179493697E-01  0.15595632463E-01 -0.96671064462E-02  0.10207408918E+01  0.10204774536E+01 0.  0.
     999903    2    3    3    0    0 -0.12917295440E-01 -0.13958724718E-01 -0.12934438055E+00  0.13214778854E+00  0.19270877479E-01 0.  0.
         14    1    1    2    0    0  0.14179493697E-01 -0.15595632463E-01  0.96671064462E-02  0.23189108229E-01  0.00000000000E+00 0. -1.
     999901    1    3    3    0    0 -0.12621982572E-02  0.29554357181E-01  0.11967727410E+00  0.88859310323E+00  0.88000000000E+00 0. -1.
        -11    1    4    4    0    0 -0.11046246502E-01 -0.31692153101E-03 -0.84866119087E-01  0.85584106532E-01  0.51100000000E-03 0. -1.
         11    1    4    4    0    0 -0.18710489378E-02 -0.13641803187E-01 -0.44478261463E-01  0.46563682007E-01  0.51100000000E-03 0.  1.
</event>
<event>
 7    1  0.1177602E+005  0.1043930E+01  0.7957747E-01            NaN
         13   -1    0    0    0    0  0.00000000000E+00  0.00000000000E+00  0.74505805969E-08  0.10566000000E+00  0.10566000000E+00 0.  1.
     999900   -1    0    0    0    0 -0.00000000000E+00 -0.00000000000E+00 -0.74505805969E-08  0.93827000000E+00  0.93827000000E+00 0. -1.
     999902    2    1    2    0    0 -0.25553043921E-02  0.86591900644E-02 -0.14344048453E-01  0.10269811688E+01  0.10268413014E+01 0.  0.
         14    1    1    2    0    0  0.25553043921E-02 -0.86591900644E-02  0.14344048453E-01  0.16948831203E-01  0.00000000000E+00 0.  1.
     999901    1    3    3    0    0  0.10866020063E+00  0.70666259450E-01 -0.34948100233E-01  0.89018095303E+00  0.88000000000E+00 0. -1.
        -11    1    3    3    0    0 -0.86698702533E-01 -0.24024875935E-01  0.11756649699E-01  0.90732241336E-01  0.51100000000E-03 0.  1.
         11    1    3    3    0    0 -0.24516802492E-01 -0.37982193450E-01  0.88474020809E-02  0.46067974432E-01  0.51100000000E-03 0. -1.
</event>
<event>
 8    1  0.1177602E+005  0.1043930E+01  0.7957747E-01            NaN
         13   -1    0    0    0    0  0.00000000000E+00  0.00000000000E+00  0.74505805969E-08  0.10566000000E+00  0.10566000000E+00 0.  1.
     999900   -1    0    0    0    0 -0.00000000000E+00 -0.00000000000E+00 -0.74505805969E-08  0.93827000000E+00  0.93827000000E+00 0. -1.
     999902    2    1    2    0    0  0.22748577348E-01  0.66616709847E-02 -0.24467407632E-02  0.10201001412E+01  0.10198217667E+01 0.  0.
     999903    2    3    3    0    0  0.60084837390E-01  0.11393356993E+00  0.22278054744E-01  0.13245574608E+00  0.21381461711E-01 0.  0.
         14    1    1    2    0    0 -0.22748577348E-01 -0.66616709847E-02  0.24467407632E-02  0.23829858834E-01  0.00000000000E+00 0.  1.
     999901    1    3    3    0    0 -0.37336260042E-01 -0.10727189895E+00 -0.24724795507E-01  0.88764439509E+00  0.88000000000E+00 0.  1.
        -11    1    4    4    0    0  0.43235425481E-01  0.99069051455E-01  0.18553626909E-01  0.10967441436E+00  0.51100000000E-03 0.  1.
         11    1    4    4    0    0  0.16849411910E-01  0.14864518475E-01  0.37244278348E-02  0.22781331719E-01  0.51100000000E-03 0. -1.
</event>
<event>
 8    1  0.1177602E+005  0.1043930E+01  0.7957747E-01            NaN
         13   -1    0    0    0    0  0.00000000000E+00  0.00000000000E+00  0.74505805969E-08  0.10566000000E+00  0.10566000000E+00 0.  1.
     999900   -1    0    0    0    0 -0.00000000000E+00 -0.00000000000E+00 -0.74505805969E-08  0.93827000000E+00  0.93827000000E+00 0.  1.
     999902    2    1    2    0    0 -0.17366959563E-02 -0.21633189058E-01  0.10670344558E-01  0.10197459715E+01  0.10194591601E+01 0.  0.
     999903    2    3    3    0    0  0.79736888089E-01 -0.10336315420E+00 -0.32401120597E-02  0.13210233078E+00  0.19965332538E-01 0.  0.
         14    1    1    2    0    0  0.17366959563E-02  0.21633189058E-01 -0.10670344558E-01  0.24184028503E-01  0.00000000000E+00 0. -1.
     999901    1    3    3    0    0 -0.81473584046E-01  0.81729965142E-01  0.13910456617E-01  0.88764364072E+00  0.88000000000E+00 0. -1.
        -11    1    4    4    0    0  0.58645585014E-02 -0.17990406761E-01 -0.32418140943E-02  0.19204641664E-01  0.51100000000E-03 0.  1.
         11    1    4    4    0    0  0.73872329588E-01 -0.85372747439E-01  0.17020345994E-05  0.11289768912E+00  0.51100000000E-03 0. -1.
</event>
<event>
 7    1  0.1177602E+005  0.1043930E+01  0.7957747E-01            NaN
         13   -1    0    0    0    0  0.00000000000E+00  0.00000000000E+00  0.74505805969E-08  0.10566000000E+00  0.10566000000E+00 0. -1.
     999900   -1    0    0    0    0 -0.00000000000E+00 -0.00000000000E+00 -0.74505805969E-08  0.93827000000E+00  0.93827000000E+00 0. -1.
     999903    2    1    2    0    0  0.32106957422E-02  0.73042432584E-01 -0.55788425718E-01  0.94372327839E-01  0.21172677979E-01 0.  0.
         14    1    1    2    0    0 -0.97622474807E-03 -0.41073830817E-01 -0.47653473583E-01  0.62919521115E-01  0.00000000000E+00 0.  1.
     999901    1    1    2    0    0 -0.22344709941E-02 -0.31968601767E-01  0.10344189930E+00  0.88663815105E+00  0.88000000000E+00 0.  1.
        -11    1    3    3    0    0  0.79275549754E-04  0.39750158982E-01 -0.43018293059E-01  0.58574022249E-01  0.51100000000E-03 0.  1.
         11    1    3    3    0    0  0.31314201924E-02  0.33292273602E-01 -0.12770132659E-01  0.35798305590E-01  0.51100000000E-03 0. -1.
</event>
<event>
 8    1  0.1177602E+005  0.1043930E+01  0.7957747E-01            NaN
         13   -1    0    0    0    0  0.00000000000E+00  0.00000000000E+00  0.74505805969E-08  0.10566000000E+00  0.10566000000E+00 0. -1.
     999900   -1    0    0    0    0 -0.00000000000E+00 -0.00000000000E+00 -0.74505805969E-08  0.93827000000E+00  0.93827000000E+00 0.  1.
     999902    2    1    2    0    0  0.21831109031E-01 -0.43346680537E-02  0.82340394180E-02  0.10201984583E+01  0.10199224030E+01 0.  0.
     999903    2    3    3    0    0 -0.86513622052E-01 -0.92334600303E-01  0.15240231570E-01  0.12917003246E+00  0.21032056841E-01 0.  0.
         14    1    1    2    0    0 -0.21831109031E-01  0.43346680537E-02 -0.82340394180E-02  0.23731541750E-01  0.00000000000E+00 0.  1.
     999901    1    3    3    0    0  0.10834473108E+00  0.87999932250E-01 -0.70061921523E-02  0.89102842579E+00  0.88000000000E+00 0. -1.
        -11    1    4    4    0    0 -0.15443169610E-01 -0.20051206529E-01 -0.49861108739E-02  0.25800480490E-01  0.51100000000E-03 0. -1.
         11    1    4    4    0    0 -0.71070452442E-01 -0.72283393775E-01  0.20226342444E-01  0.10336955198E+00  0.51100000000E-03 0.  1.
</event>
<event>
 8    1  0.1177602E+005  0.1043930E+01  0.7957747E-01            NaN
         13   -1    0    0    0    0  0.00000000000E+00  0.00000000000E+00  0.74505805969E-08  0.10566000000E+00  0.10566000000E+00 0. -1.
     999900   -1    0    0    0    0 -0.00000000000E+00 -0.00000000000E+00 -0.74505805969E-08  0.93827000000E+00  0.93827000000E+00 0.  1.
     999902    2    1    2    0    0  0.75599695397E-03  0.17244516766E-01  0.15700775102E-01  0.10205963499E+01  0.10203295792E+01 0.  0.
     999903    2    3    3    0    0  0.11953740706E+00  0.54403757968E-01  0.46555213990E-02  0.13177025314E+00  0.96314673525E-02 0.  0.
         14    1    1    2    0    0 -0.75599695397E-03 -0.17244516766E-01 -0.15700775102E-01  0.23333650136E-01  0.00000000000E+00 0. -1.
     999901    1    3    3    0    0 -0.11878141011E+00 -0.37159241202E-01  0.11045253702E-01  0.88882609673E+00  0.88000000000E+00 0.  1.
        -11    1    4    4    0    0  0.80323428810E-01  0.33001487173E-01  0.62482335840E-02  0.87064647908E-01  0.51100000000E-03 0.  1.
         11    1    4    4    0    0  0.39213978255E-01  0.21402270795E-01 -0.15927121850E-02  0.44705605228E-01  0.51100000000E-03 0. -1.
</event>
<event>
 8    1  0.1177602E+005  0.1043930E+01  0.7957747E-01            NaN
         13   -1    0    0    0    0  0.00000000000E+00  0.00000000000E+00  0.74505805969E-08  0.10566000000E+00  0.10566000000E+00 0. -1.
     999900   -1    0    0    0    0 -0.00000000000E+00 -0.00000000000E+00 -0.74505805969E-08  0.93827000000E+00  0.93827000000E+00 0.  1.
     999902    2    1    2    0    0 -0.22464417360E-01 -0.86329319935E-02 -0.43232507742E-03  0.10198600090E+01  0.10195759283E+01 0.  0.
     999903    2    3    3    0    0 -0.59087066059E-01  0.36278066699E-01 -0.10914283388E+00  0.13127901048E+00  0.22685698237E-01 0.  0.
         14    1    1    2    0    0  0.22464417360E-01  0.86329319935E-02  0.43232507742E-03  0.24069991008E-01  0.00000000000E+00 0. -1.
     999901    1    3    3    0    0  0.36622648699E-01 -0.44910998692E-01  0.10871050881E+00  0.88858099852E+00  0.88000000000E+00 0. -1.
        -11    1    4    4    0    0  0.10931030013E-02  0.48046723298E-02 -0.91082492157E-02  0.10368272525E-01  0.51100000000E-03 0. -1.
         11    1    4    4    0    0 -0.60180169060E-01  0.31473394369E-01 -0.10003458467E+00  0.12091073795E+00  0.51100000000E-03 0.  1.
</event>
<event>
 8    1  0.1177602E+005  0.1043930E+01  0.7957747E-01            NaN
         13   -1    0    0    0    0  0.00000000000E+00  0.00000000000E+00  0.74505805969E-08  0.10566000000E+00  0.10566000000E+00 0.  1.
     999900   -1    0    0    0    0 -0.00000000000E+00 -0.00000000000E+00 -0.74505805969E-08  0.93827000000E+00  0.93827000000E+00 0. -1.
     999902    2    1    2    0    0 -0.84444019768E-02 -0.22493770616E-01 -0.40237119631E-02  0.10195688034E+01  0.10192777232E+01 0.  0.
     999903    2    3    3    0    0 -0.12333169667E+00  0.34660475749E-01  0.96902984874E-02  0.13015676592E+00  0.20852478174E-01 0.  0.
         14    1    1    2    0    0  0.84444019768E-02  0.22493770616E-01  0.40237119631E-02  0.24361196589E-01  0.00000000000E+00 0.  1.
     999901    1    3    3    0    0  0.11488729469E+00 -0.57154246365E-01 -0.13714010451E-01  0.88941203750E+00  0.88000000000E+00 0.  1.
        -11    1    4    4    0    0 -0.38746036341E-01  0.87101998385E-02 -0.63960021243E-02  0.40228011106E-01  0.51100000000E-03 0. -1.
         11    1    4    4    0    0 -0.84585660330E-01  0.25950275911E-01  0.16086300612E-01  0.89928754810E-01  0.51100000000E-03 0.  1.
</event>
<event>
 8    1  0.1177602E+005  0.1043930E+01  0.7957747E-01            NaN
         13   -1    0    0    0    0  0.00000000000E+00  0.00000000000E+00  0.74505805969E-08  0.10566000000E+00  0.10566000000E+00 0.  1.
     999900   -1    0    0    0    0 -0.00000000000E+00 -0.00000000000E+00 -0.74505805969E-08  0.93827000000E+00  0.93827000000E+00 0. -1.
     999902    2    1    2    0    0  0.62480927490E-02 -0.20769048496E-01 -0.61619019705E-02  0.10213831360E+01  0.10211342466E+01 0.  0.
     999903    2    3    3    0    0 -0.87932766910E-01 -0.88012506684E-01  0.41173630571E-01  0.13254548515E+00  0.19866176060E-01 0.  0.
         14    1    1    2    0    0 -0.62480927490E-02  0.20769048496E-01  0.61619019705E-02  0.22546863958E-01  0.00000000000E+00 0. -1.
     999901    1    3    3    0    0  0.94180859659E-01  0.67243458188E-01 -0.47335532541E-01  0.88883765089E+00  0.88000000000E+00 0. -1.
        -11    1    4    4    0    0 -0.33817708574E-01 -0.42509450210E-01  0.98324361782E-02  0.55205332102E-01  0.51100000000E-03 0. -1.
         11    1    4    4    0    0 -0.54115058336E-01 -0.45503056474E-01  0.31341194392E-01  0.77340153052E-01  0.51100000000E-03 0.  1.
</event>
<event>
 8    1  0.1177602E+005  0.1043930E+01  0.7957747E-01            NaN
         13   -1    0    0    0    0  0.00000000000E+00  0.00000000000E+00  0.74505805969E-08  0.10566000000E+00  0.10566000000E+00 0.  1.
     999900   -1    0    0    0    0 -0.00000000000E+00 -0.00000000000E+00 -0.74505805969E-08  0.93827000000E+00  0.93827000000E+00 0. -1.
     999902    2    1    2    0    0 -0.46081318615E-02 -0.18054768218E-01  0.14661777127E-01  0.10202197228E+01  0.10199441679E+01 0.  0.
     999903    2    3    3    0    0  0.26794040941E-01 -0.27783667065E-01 -0.12191340874E+00  0.12907802292E+00  0.17561434617E-01 0.  0.
         14    1    1    2    0    0  0.46081318615E-02  0.18054768218E-01 -0.14661777127E-01  0.23710277164E-01  0.00000000000E+00 0. -1.
     999901    1    3    3    0    0 -0.31402172802E-01  0.97288988466E-02  0.13657518587E+00  0.89114169991E+00  0.88000000000E+00 0.  1.
        -11    1    4    4    0    0  0.13752660087E-01 -0.46921328779E-02 -0.59720502747E-01  0.61465041607E-01  0.51100000000E-03 0. -1.
         11    1    4    4    0    0  0.13041380854E-01 -0.23091534187E-01 -0.62192905993E-01  0.67612981316E-01  0.51100000000E-03 0.  1.
</event>
<event>
 8    1  0.1177602E+005  0.1043930E+01  0.7957747E-01            NaN
         13   -1    0    0    0    0  0.00000000000E+00  0.00000000000E+00  0.74505805969E-08  0.10566000000E+00  0.10566000000E+00 0. -1.
     999900   -1    0    0    0    0 -0.00000000000E+00 -0.00000000000E+00 -0.74505805969E-08  0.93827000000E+00  0.93827000000E+00 0. -1.
     999902    2    1    2    0    0  0.15971361578E-01 -0.13462056921E-01  0.87100576461E-02  0.10212986838E+01  0.10210479054E+01 0.  0.
     999903    2    3    3    0    0 -0.26018805548E-01  0.56433955313E-01  0.11404586414E+00  0.13127381969E+00  0.19094162847E-01 0.  0.
         14    1    1    2    0    0 -0.15971361578E-01  0.13462056921E-01 -0.87100576461E-02  0.22631316166E-01  0.00000000000E+00 0. -1.
     999901    1    3    3    0    0  0.41990167127E-01 -0.69896012234E-01 -0.10533580649E+00  0.89002486414E+00  0.88000000000E+00 0. -1.
        -11    1    4    4    0    0 -0.22970635861E-01  0.41886990360E-01  0.69707131229E-01  0.84507486878E-01  0.51100000000E-03 0. -1.
         11    1    4    4    0    0 -0.30481696874E-02  0.14546964954E-01  0.44338732910E-01  0.46766332814E-01  0.51100000000E-03 0.  1.
</event>
<event>
 7    1  0.1177602E+005  0.1043930E+01  0.7957747E-01            NaN
         13   -1    0    0    0    0  0.00000000000E+00  0.00000000000E+00  0.74505805969E-08  0.10566000000E+00  0.10566000000E+00 0. -1.
     999900   -1    0    0    0    0 -0.00000000000E+00 -0.00000000000E+00 -0.74505805969E-08  0.93827000000E+00  0.93827000000E+00 0.  1.
     999903    2    1    2    0    0 -0.30755403851E-01  0.40534310032E-01 -0.10756323203E+00  0.12045379181E+00  0.18717422906E-01 0.  0.
         14    1    1    2    0    0  0.18221655016E-01 -0.17068756918E-01  0.30923632597E-01  0.39744713199E-01  0.00000000000E+00 0. -1.
     999901    1    1    2    0    0  0.12533748835E-01 -0.23465553114E-01  0.76639599433E-01  0.88373149499E+00  0.88000000000E+00 0. -1.
        -11    1    3    3    0    0 -0.17992997264E-01  0.16703147422E-01 -0.69917599176E-01  0.74104486233E-01  0.51100000000E-03 0.  1.
         11    1    3    3    0    0 -0.12762406587E-01  0.23831162610E-01 -0.37645632854E-01  0.46349305575E-01  0.51100000000E-03 0. -1.
</event>
<event>
 8    1  0.1177602E+005  0.1043930E+01  0.7957747E-01            NaN
         13   -1    0    0    0    0  0.00000000000E+00  0.00000000000E+00  0.74505805969E-08  0.10566000000E+00  0.10566000000E+00 0. -1.
     999900   -1    0    0    0    0 -0.00000000000E+00 -0.00000000000E+00 -0.74505805969E-08  0.93827000000E+00  0.93827000000E+00 0. -1.
     999902    2    1    2    0    0  0.20479058467E-02  0.13986953510E-01 -0.34910459278E-01  0.10062661054E+01  0.10055609907E+01 0.  0.
     999903    2    3    3    0    0  0.86380413522E-01 -0.73631354206E-01  0.16080293389E-01  0.11644084362E+00  0.20414261341E-01 0.  0.
         14    1    1    2    0    0 -0.20479058467E-02 -0.13986953510E-01  0.34910459278E-01  0.37663894565E-01  0.00000000000E+00 0. -1.
     999901    1    3    3    0    0 -0.84332507675E-01  0.87618307717E-01 -0.50990752666E-01  0.88982526181E+00  0.88000000000E+00 0. -1.
        -11    1    4    4    0    0  0.33120516017E-01 -0.39152867346E-01  0.13380476545E-02  0.51302700662E-01  0.51100000000E-03 0.  1.
         11    1    4    4    0    0  0.53259897504E-01 -0.34478486860E-01  0.14742245734E-01  0.65138142963E-01  0.51100000000E-03 0. -1.
</event>
<event>
 8    1  0.1177602E+005  0.1043930E+01  0.7957747E-01            NaN
         13   -1    0    0    0    0  0.00000000000E+00  0.00000000000E+00  0.74505805969E-08  0.10566000000E+00  0.10566000000E+00 0.  1.
     999900   -1    0    0    0    0 -0.00000000000E+00 -0.00000000000E+00 -0.74505805969E-08  0.93827000000E+00  0.93827000000E+00 0.  1.
     999902    2    1    2    0    0  0.72208257101E-02  0.13790856686E-01  0.18205785013E-01  0.10199763226E+01  0.10196950133E+01 0.  0.
     999903    2    3    3    0    0 -0.87245049006E-01  0.38459135589E-01  0.88631241743E-01  0.13178035864E+00  0.20488099592E-01 0.  0.
         14    1    1    2    0    0 -0.72208257101E-02 -0.13790856686E-01 -0.18205785013E-01  0.23953677379E-01  0.00000000000E+00 0. -1.
     999901    1    3    3    0    0  0.94465874717E-01 -0.24668278903E-01 -0.70425456730E-01  0.88819596398E+00  0.88000000000E+00 0.  1.
        -11    1    4    4    0    0 -0.14216971523E-01  0.73735786108E-04  0.19527091913E-01  0.24159804549E-01  0.51100000000E-03 0. -1.
         11    1    4    4    0    0 -0.73028077483E-01  0.38385399803E-01  0.69104149830E-01  0.10762055409E+00  0.51100000000E-03 0.  1.
</event>
<event>
 8    1  0.1177602E+005  0.1043930E+01  0.7957747E-01            NaN
         13   -1    0    0    0    0  0.00000000000E+00  0.00000000000E+00  0.74505805969E-08  0.10566000000E+00  0.10566000000E+00 0.  1.
     999900   -1    0    0    0    0 -0.00000000000E+00 -0.00000000000E+00 -0.74505805969E-08  0.93827000000E+00  0.93827000000E+00 0. -1.
     999902    2    1    2    0    0  0.55567274286E-02 -0.46867964358E-02 -0.22363727413E-01  0.10204144821E+01  0.10201434877E+01 0.  0.
     999903    2    3    3    0    0  0.60356655822E-01 -0.10538242154E+00  0.43121478327E-01  0.13056564476E+00  0.20965329145E-01 0.  0.
         14    1    1    2    0    0 -0.55567274286E-02  0.46867964358E-02  0.22363727413E-01  0.23515517948E-01  0.00000000000E+00 0.  1.
     999901    1    3    3    0    0 -0.54799928393E-01  0.10069562510E+00 -0.65485205741E-01  0.88984883730E+00  0.88000000000E+00 0. -1.
        -11    1    4    4    0    0  0.98315939469E-02 -0.36395745660E-01  0.12007560819E-01  0.39569599184E-01  0.51100000000E-03 0.  1.
         11    1    4    4    0    0  0.50525061875E-01 -0.68986675877E-01  0.31113917508E-01  0.90996045572E-01  0.51100000000E-03 0. -1.
</event>
<event>
 8    1  0.1177602E+005  0.1043930E+01  0.7957747E-01            NaN
         13   -1    0    0    0    0  0.00000000000E+00  0.00000000000E+00  0.74505805969E-08  0.10566000000E+00  0.10566000000E+00 0. -1.
     999900   -1    0    0    0    0 -0.00000000000E+00 -0.00000000000E+00 -0.74505805969E-08  0.93827000000E+00  0.93827000000E+00 0.  1.
     999902    2    1    2    0    0  0.11660572811E-01 -0.13653183755E-01 -0.13178867014E-01  0.10216575749E+01  0.10214147734E+01 0.  0.
     999903    2    3    3    0    0  0.65114567878E-01 -0.73512591453E-01  0.86961276141E-01  0.13234968301E+00  0.17611558469E-01 0.  0.
         14    1    1    2    0    0 -0.11660572811E-01  0.13653183755E-01  0.13178867014E-01  0.22272425119E-01  0.00000000000E+00 0. -1.
     999901    1    3    3    0    0 -0.53453995067E-01  0.59859407699E-01 -0.10014014316E+00  0.88930789187E+00  0.88000000000E+00 0.  1.
        -11    1    4    4    0    0  0.29156721023E-01 -0.22101509321E-01  0.38126513859E-01  0.52843952115E-01  0.51100000000E-03 0.  1.
         11    1    4    4    0    0  0.35957846855E-01 -0.51411082132E-01  0.48834762282E-01  0.79505730892E-01  0.51100000000E-03 0. -1.
</event>
<event>
 8    1  0.1177602E+005  0.1043930E+01  0.7957747E-01            NaN
         13   -1    0    0    0    0  0.00000000000E+00  0.00000000000E+00  0.74505805969E-08  0.10566000000E+00  0.10566000000E+00 0. -1.
     999900   -1    0    0    0    0 -0.00000000000E+00 -0.00000000000E+00 -0.74505805969E-08  0.93827000000E+00  0.93827000000E+00 0. -1.
     999902    2    1    2    0    0  0.28856425339E-02 -0.17132588407E-01 -0.14507189048E-01  0.10212957107E+01  0.10210448656E+01 0.  0.
     999903    2    3    3    0    0 -0.75685615906E-01  0.61773250036E-01 -0.85585759009E-01  0.13143519516E+00  0.20150471633E-01 0.  0.
         14    1    1    2    0    0 -0.28856425339E-02  0.17132588407E-01  0.14507189048E-01  0.22634289307E-01  0.00000000000E+00 0. -1.
     999901    1    3    3    0    0  0.78571258440E-01 -0.78905838443E-01  0.71078569961E-01  0.88986051553E+00  0.88000000000E+00 0. -1.
        -11    1    4    4    0    0 -0.15905869350E-01  0.75176381983E-02 -0.24648364381E-01  0.30287201117E-01  0.51100000000E-03 0.  1.
         11    1    4    4    0    0 -0.59779746557E-01  0.54255611838E-01 -0.60937394627E-01  0.10114799404E+00  0.51100000000E-03 0. -1.
</event>
<event>
 8    1  0.1177602E+005  0.1043930E+01  0.7957747E-01            NaN
         13   -1    0    0    0    0  0.00000000000E+00  0.00000000000E+00  0.74505805969E-08  0.10566000000E+00  0.10566000000E+00 0.  1.
     999900   -1    0    0    0    0 -0.00000000000E+00 -0.00000000000E+00 -0.74505805969E-08  0.93827000000E+00  0.93827000000E+00 0. -1.
     999902    2    1    2    0    0 -0.98741075531E-02  0.13106676494E-01  0.17601727688E-01  0.10198654247E+01  0.10195814733E+01 0.  0.
     999903    2    3    3    0    0  0.15446427234E-01 -0.57629816014E-01  0.11482037023E+00  0.13132941227E+00  0.22447924166E-01 0.  0.
         14    1    1    2    0    0  0.98741075531E-02 -0.13106676494E-01 -0.17601727688E-01  0.24064575340E-01  0.00000000000E+00 0. -1.
     999901    1    3    3    0    0 -0.25320534787E-01  0.70736492507E-01 -0.97218642544E-01  0.88853601239E+00  0.88000000000E+00 0. -1.
        -11    1    4    4    0    0  0.16737889687E-01 -0.49894234732E-01  0.11042266162E+00  0.12232341121E+00  0.51100000000E-03 0. -1.
         11    1    4    4    0    0 -0.12914624530E-02 -0.77355812818E-02  0.43977086134E-02  0.90060010595E-02  0.51100000000E-03 0.  1.
</event>
<event>
 8    1  0.1177602E+005  0.1043930E+01  0.7957747E-01            NaN
         13   -1    0    0    0    0  0.00000000000E+00  0.00000000000E+00  0.74505805969E-08  0.10566000000E+00  0.10566000000E+00 0. -1.
     999900   -1    0    0    0    0 -0.00000000000E+00 -0.00000000000E+00 -0.74505805969E-08  0.93827000000E+00  0.93827000000E+00 0. -1.
     999902    2    1    2    0    0  0.98755914447E-02 -0.19597715185E-01 -0.83852852277E-02  0.10204372191E+01  0.10201667547E+01 0.  0.
     999903    2    3    3    0    0 -0.48642542961E-01 -0.11730757332E+00  0.31129313333E-01  0.13221821910E+00  0.19633124313E-01 0.  0.
         14    1    1    2    0    0 -0.98755914447E-02  0.19597715185E-01  0.83852852277E-02  0.23492780917E-01  0.00000000000E+00 0. -1.
     999901    1    3    3    0    0  0.58518134405E-01  0.97709858132E-01 -0.39514598560E-01  0.88821899998E+00  0.88000000000E+00 0. -1.
        -11    1    4    4    0    0 -0.36267111149E-01 -0.10409571955E+00  0.24425530457E-01  0.11290743925E+00  0.51100000000E-03 0.  1.
         11    1    4    4    0    0 -0.12375431811E-01 -0.13211853772E-01  0.67037828758E-02  0.19310779851E-01  0.51100000000E-03 0. -1.
</event>
<event>
 8    1  0.1177602E+005  0.1043930E+01  0.7957747E-01            NaN
         13   -1    0    0    0    0  0.00000000000E+00  0.00000000000E+00  0.74505805969E-08  0.10566000000E+00  0.10566000000E+00 0. -1.
     999900   -1    0    0    0    0 -0.00000000000E+00 -0.00000000000E+00 -0.74505805969E-08  0.93827000000E+00  0.93827000000E+00 0.  1.
     999902    2    1    2    0    0 -0.98405931780E-02  0.20561751436E-01 -0.15007968894E-02  0.10210854101E+01  0.10208298288E+01 0.  0.
     999903    2    3    3    0    0 -0.77517394063E-02  0.12681077784E+00 -0.37494298980E-01  0.13396154552E+00  0.19970237388E-01 0.  0.
         14    1    1    2    0    0  0.98405931780E-02 -0.20561751436E-01  0.15007968894E-02  0.22844589896E-01  0.00000000000E+00 0.  1.
     999901    1    3    3    0    0 -0.20888537717E-02 -0.10624902641E+00  0.35993502091E-01  0.88712386458E+00  0.88000000000E+00 0. -1.
        -11    1    4    4    0    0  0.53222938245E-02  0.72104848304E-01 -0.23043773392E-01  0.75886181705E-01  0.51100000000E-03 0. -1.
         11    1    4    4    0    0 -0.13074033231E-01  0.54705929538E-01 -0.14450525588E-01  0.58075363815E-01  0.51100000000E-03 0.  1.
</event>
<event>
 8    1  0.1177602E+005  0.1043930E+01  0.7957747E-01            NaN
         13   -1    0    0    0    0  0.00000000000E+00  0.00000000000E+00  0.74505805969E-08  0.10566000000E+00  0.10566000000E+00 0. -1.
     999900   -1    0    0    0    0 -0.00000000000E+00 -0.00000000000E+00 -0.74505805969E-08  0.93827000000E+00  0.93827000000E+00 0. -1.
     999902    2    1    2    0    0  0.10390189832E-01 -0.21177980083E-01 -0.95462546413E-03  0.10203212263E+01  0.10200480531E+01 0.  0.
     999903    2    3    3    0    0 -0.12461421725E+00  0.17361312199E-01  0.19872937309E-01  0.12894854648E+00  0.20066781031E-01 0.  0.
         14    1    1    2    0    0 -0.10390189832E-01  0.21177980083E-01  0.95462546413E-03  0.23608773685E-01  0.00000000000E+00 0.  1.
     999901    1    3    3    0    0  0.13500440708E+00 -0.38539292281E-01 -0.20827562773E-01  0.89137267983E+00  0.88000000000E+00 0.  1.
        -11    1    4    4    0    0 -0.68495281880E-01 -0.54483217047E-03  0.10669847132E-01  0.69325372273E-01  0.51100000000E-03 0. -1.
         11    1    4    4    0    0 -0.56118935369E-01  0.17906144369E-01  0.92030901765E-02  0.59623174210E-01  0.51100000000E-03 0.  1.
</event>
<event>
 8    1  0.1177602E+005  0.1043930E+01  0.7957747E-01            NaN
         13   -1    0    0    0    0  0.00000000000E+00  0.00000000000E+00  0.74505805969E-08  0.10566000000E+00  0.10566000000E+00 0. -1.
     999900   -1    0    0    0    0 -0.00000000000E+00 -0.00000000000E+00 -0.74505805969E-08  0.93827000000E+00  0.93827000000E+00 0.  1.
     999902    2    1    2    0    0 -0.12917567241E-02 -0.18241546451E-02 -0.23703560971E-01  0.10201212836E+01  0.10198434087E+01 0.  0.
     999903    2    3    3    0    0  0.50082640193E-01 -0.54936673426E-01  0.10244799565E+00  0.12805935547E+00  0.19424154431E-01 0.  0.
         14    1    1    2    0    0  0.12917567241E-02  0.18241546451E-02  0.23703560971E-01  0.23808716435E-01  0.00000000000E+00 0. -1.
     999901    1    3    3    0    0 -0.51374396917E-01  0.53112518781E-01 -0.12615155662E+00  0.89206192809E+00  0.88000000000E+00 0.  1.
        -11    1    4    4    0    0  0.11032329901E-01 -0.11724966752E-01  0.37541071396E-01  0.40850707594E-01  0.51100000000E-03 0.  1.
         11    1    4    4    0    0  0.39050310292E-01 -0.43211706674E-01  0.64906924257E-01  0.87208647880E-01  0.51100000000E-03 0. -1.
</event>
<event>
 7    1  0.1177602E+005  0.1043930E+01  0.7957747E-01            NaN
         13   -1    0    0    0    0  0.00000000000E+00  0.00000000000E+00  0.74505805969E-08  0.10566000000E+00  0.10566000000E+00 0. -1.
     999900   -1    0    0    0    0 -0.00000000000E+00 -0.00000000000E+00 -0.74505805969E-08  0.93827000000E+00  0.93827000000E+00 0. -1.
     999902    2    1    2    0    0  0.14132032183E-01 -0.84302409969E-02  0.17691618628E-01  0.10197685293E+01  0.10194822591E+01 0.  0.
         14    1    1    2    0    0 -0.14132032183E-01  0.84302409969E-02 -0.17691618628E-01  0.24161470704E-01  0.00000000000E+00 0.  1.
     999901    1    3    3    0    0  0.68441839990E-01 -0.12076780076E+00 -0.13855747832E-01  0.89098884893E+00  0.88000000000E+00 0. -1.
        -11    1    3    3    0    0 -0.29132771166E-01  0.65163296140E-01  0.18104384547E-01  0.73641044129E-01  0.51100000000E-03 0.  1.
         11    1    3    3    0    0 -0.25177036641E-01  0.47174263627E-01  0.13442981913E-01  0.55138636241E-01  0.51100000000E-03 0. -1.
</event>
<event>
 8    1  0.1177602E+005  0.1043930E+01  0.7957747E-01            NaN
         13   -1    0    0    0    0  0.00000000000E+00  0.00000000000E+00  0.74505805969E-08  0.10566000000E+00  0.10566000000E+00 0. -1.
     999900   -1    0    0    0    0 -0.00000000000E+00 -0.00000000000E+00 -0.74505805969E-08  0.93827000000E+00  0.93827000000E+00 0. -1.
     999902    2    1    2    0    0 -0.21065794447E-01 -0.94922677146E-02 -0.52092766748E-02  0.10202444051E+01  0.10199694303E+01 0.  0.
     999903    2    3    3    0    0  0.77621552181E-01  0.77080678691E-01  0.63029723519E-01  0.12789322503E+00  0.20430236692E-01 0.  0.
         14    1    1    2    0    0  0.21065794447E-01  0.94922677146E-02  0.52092766748E-02  0.23685594895E-01  0.00000000000E+00 0.  1.
     999901    1    3    3    0    0 -0.98687346628E-01 -0.86572946406E-01 -0.68239000194E-01  0.89235118008E+00  0.88000000000E+00 0. -1.
        -11    1    4    4    0    0  0.44879713582E-01  0.47072012451E-01  0.25920870312E-01  0.70015110413E-01  0.51100000000E-03 0. -1.
         11    1    4    4    0    0  0.32741838599E-01  0.30008666240E-01  0.37108853206E-01  0.57878114618E-01  0.51100000000E-03 0.  1.
</event>
<event>
 8    1  0.1177602E+005  0.1043930E+01  0.7957747E-01            NaN
         13   -1    0    0    0    0  0.00000000000E+00  0.00000000000E+00  0.74505805969E-08  0.10566000000E+00  0.10566000000E+00 0. -1.
     999900   -1    0    0    0    0 -0.00000000000E+00 -0.00000000000E+00 -0.74505805969E-08  0.93827000000E+00  0.93827000000E+00 0.  1.
     999902    2    1    2    0    0  0.14472656663E-01  0.17856488825E-01 -0.65431193458E-02  0.10200317910E+01  0.10197517983E+01 0.  0.
     999903    2    3    3    0    0 -0.83283338605E-01 -0.82620136132E-01  0.45177902575E-01  0.12743622136E+00  0.20898474840E-01 0.  0.
         14    1    1    2    0    0 -0.14472656663E-01 -0.17856488825E-01  0.65431193458E-02  0.23898209029E-01  0.00000000000E+00 0.  1.
     999901    1    3    3    0    0  0.97755995268E-01  0.10047662496E+00 -0.51721021921E-01  0.89259556961E+00  0.88000000000E+00 0. -1.
        -11    1    4    4    0    0 -0.64132456631E-01 -0.64648252719E-01  0.44013241531E-01  0.10114244966E+00  0.51100000000E-03 0.  1.
         11    1    4    4    0    0 -0.19150881974E-01 -0.17971883413E-01  0.11646610441E-02  0.26293771699E-01  0.51100000000E-03 0. -1.
</event>
<event>
 8    1  0.1177602E+005  0.1043930E+01  0.7957747E-01            NaN
         13   -1    0    0    0    0  0.00000000000E+00  0.00000000000E+00  0.74505805969E-08  0.10566000000E+00  0.10566000000E+00 0. -1.
     999900   -1    0    0    0    0 -0.00000000000E+00 -0.00000000000E+00 -0.74505805969E-08  0.93827000000E+00  0.93827000000E+00 0.  1.
     999902    2    1    2    0    0  0.21068264922E-01 -0.10283009426E-01  0.51779129538E-02  0.10199211922E+01  0.10196385710E+01 0.  0.
     999903    2    3    3    0    0  0.10347499122E+00  0.74557055802E-01  0.26400514807E-01  0.13175504556E+00  0.19914227829E-01 0.  0.
         14    1    1    2    0    0 -0.21068264922E-01  0.10283009426E-01 -0.51779129538E-02  0.24008807806E-01  0.00000000000E+00 0. -1.
     999901    1    3    3    0    0 -0.82406726294E-01 -0.84840065228E-01 -0.21222601853E-01  0.88816614664E+00  0.88000000000E+00 0. -1.
        -11    1    4    4    0    0  0.67784624537E-01  0.51257147489E-01  0.26856945057E-01  0.89126915750E-01  0.51100000000E-03 0.  1.
         11    1    4    4    0    0  0.35690366680E-01  0.23299908314E-01 -0.45643024936E-03  0.42628129806E-01  0.51100000000E-03 0. -1.
</event>
<event>
 8    1  0.1177602E+005  0.1043930E+01  0.7957747E-01            NaN
         13   -1    0    0    0    0  0.00000000000E+00  0.00000000000E+00  0.74505805969E-08  0.10566000000E+00  0.10566000000E+00 0. -1.
     999900   -1    0    0    0    0 -0.00000000000E+00 -0.00000000000E+00 -0.74505805969E-08  0.93827000000E+00  0.93827000000E+00 0. -1.
     999902    2    1    2    0    0 -0.25641603950E-02 -0.24714952202E-01 -0.16623651876E-03  0.10190818328E+01  0.10187788526E+01 0.  0.
     999903    2    3    3    0    0 -0.47840920157E-01 -0.11388169121E+00 -0.43041768219E-01  0.13238064096E+00  0.20353060055E-01 0.  0.
         14    1    1    2    0    0  0.25641603950E-02  0.24714952202E-01  0.16623651876E-03  0.24848167245E-01  0.00000000000E+00 0. -1.
     999901    1    3    3    0    0  0.45276759762E-01  0.89166739010E-01  0.42875531700E-01  0.88670119180E+00  0.88000000000E+00 0.  1.
        -11    1    4    4    0    0 -0.10073318272E-01 -0.25138447437E-01 -0.18684058452E-01  0.32905446993E-01  0.51100000000E-03 0.  1.
         11    1    4    4    0    0 -0.37767601885E-01 -0.88743243775E-01 -0.24357709767E-01  0.99475193963E-01  0.51100000000E-03 0. -1.
</event>
<event>
 8    1  0.1177602E+005  0.1043930E+01  0.7957747E-01            NaN
         13   -1    0    0    0    0  0.00000000000E+00  0.00000000000E+00  0.74505805969E-08  0.10566000000E+00  0.10566000000E+00 0. -1.
     999900   -1    0    0    0    0 -0.00000000000E+00 -0.00000000000E+00 -0.74505805969E-08  0.93827000000E+00  0.93827000000E+00 0.  1.
     999902    2    1    2    0    0 -0.20569467982E-01  0.54062477235E-02 -0.11025825480E-01  0.10199738034E+01  0.10196924342E+01 0.  0.
     999903    2    3    3    0    0  0.77786448277E-01 -0.87769062353E-01 -0.49587683544E-01  0.12877094122E+00  0.19206173557E-01 0.  0.
         14    1    1    2    0    0  0.20569467982E-01 -0.54062477235E-02  0.11025825480E-01  0.23956196590E-01  0.00000000000E+00 0. -1.
     999901    1    3    3    0    0 -0.98355916259E-01  0.93175310077E-01  0.38561858065E-01  0.89120286219E+00  0.88000000000E+00 0. -1.
        -11    1    4    4    0    0  0.42707587721E-01 -0.61649111905E-01 -0.28721316020E-01  0.80310187166E-01  0.51100000000E-03 0.  1.
         11    1    4    4    0    0  0.35078860556E-01 -0.26119950448E-01 -0.20866367524E-01  0.48460754059E-01  0.51100000000E-03 0. -1.
</event>
<event>
 8    1  0.1177602E+005  0.1043930E+01  0.7957747E-01            NaN
         13   -1    0    0    0    0  0.00000000000E+00  0.00000000000E+00  0.74505805969E-08  0.10566000000E+00  0.10566000000E+00 0.  1.
     999900   -1    0    0    0    0 -0.00000000000E+00 -0.00000000000E+00 -0.74505805969E-08  0.93827000000E+00  0.93827000000E+00 0.  1.
     999902    2    1    2    0    0 -0.21132893459E-01  0.95304316912E-02  0.86242069011E-03  0.10207314638E+01  0.10204678089E+01 0.  0.
     999903    2    3    3    0    0 -0.61580196643E-01 -0.81392984310E-01 -0.80408262196E-01  0.13140139241E+00  0.19593335208E-01 0.  0.
         14    1    1    2    0    0  0.21132893459E-01 -0.95304316912E-02 -0.86242069011E-03  0.23198536239E-01  0.00000000000E+00 0.  1.
     999901    1    3    3    0    0  0.40447303184E-01  0.90923416001E-01  0.81270682886E-01  0.88933007135E+00  0.88000000000E+00 0. -1.
        -11    1    4    4    0    0 -0.21473178783E-01 -0.18345520879E-01 -0.30336507023E-01  0.41451421239E-01  0.51100000000E-03 0.  1.
         11    1    4    4    0    0 -0.40107017861E-01 -0.63047463430E-01 -0.50071755173E-01  0.89949971172E-01  0.51100000000E-03 0. -1.
</event>
<event>
 8    1  0.1177602E+005  0.1043930E+01  0.7957747E-01            NaN
         13   -1    0    0    0    0  0.00000000000E+00  0.00000000000E+00  0.74505805969E-08  0.10566000000E+00  0.10566000000E+00 0. -1.
     999900   -1    0    0    0    0 -0.00000000000E+00 -0.00000000000E+00 -0.74505805969E-08  0.93827000000E+00  0.93827000000E+00 0.  1.
     999902    2    1    2    0    0 -0.15226517634E-01 -0.14008569173E-01 -0.10277603843E-01  0.10208277060E+01  0.10205662591E+01 0.  0.
     999903    2    3    3    0    0 -0.12089456186E+00  0.86056126266E-02 -0.52272933504E-01  0.13322377147E+00  0.18071027992E-01 0.  0.
         14    1    1    2    0    0  0.15226517634E-01  0.14008569173E-01  0.10277603843E-01  0.23102294048E-01  0.00000000000E+00 0. -1.
     999901    1    3    3    0    0  0.10566804423E+00 -0.22614181799E-01  0.41995329661E-01  0.88760393448E+00  0.88000000000E+00 0.  1.
        -11    1    4    4    0    0 -0.19389377725E-01  0.31075135278E-02 -0.17939174105E-02  0.19725208986E-01  0.51100000000E-03 0.  1.
         11    1    4    4    0    0 -0.10150518413E+00  0.54980990988E-02 -0.50479016093E-01  0.11349856249E+00  0.51100000000E-03 0. -1.
</event>
<event>
 8    1  0.1177602E+005  0.1043930E+01  0.7957747E-01            NaN
         13   -1    0    0    0    0  0.00000000000E+00  0.00000000000E+00  0.74505805969E-08  0.10566000000E+00  0.10566000000E+00 0.  1.
     999900   -1    0    0    0    0 -0.00000000000E+00 -0.00000000000E+00 -0.74505805969E-08  0.93827000000E+00  0.93827000000E+00 0.  1.
     999902    2    1    2    0    0  0.10588586577E-01 -0.12204035136E-01  0.16638861402E-01  0.10207371488E+01  0.10204736246E+01 0.  0.
     999903    2    3    3    0    0 -0.10322507930E+00  0.34383663631E-01  0.64541013745E-01  0.13089526371E+00  0.33621039298E-01 0.  0.
         14    1    1    2    0    0 -0.10588586577E-01  0.12204035136E-01 -0.16638861402E-01  0.23192851228E-01  0.00000000000E+00 0. -1.
     999901    1    3    3    0    0  0.11381366588E+00 -0.46587698767E-01 -0.47902152344E-01  0.88984188507E+00  0.88000000000E+00 0.  1.
        -11    1    4    4    0    0 -0.29406725572E-01  0.48377377994E-02  0.35240026304E-01  0.46154954131E-01  0.51100000000E-03 0.  1.
         11    1    4    4    0    0 -0.73818353733E-01  0.29545925831E-01  0.29300987441E-01  0.84740309576E-01  0.51100000000E-03 0. -1.
</event>
<event>
 8    1  0.1177602E+005  0.1043930E+01  0.7957747E-01            NaN
         13   -1    0    0    0    0  0.00000000000E+00  0.00000000000E+00  0.74505805969E-08  0.10566000000E+00  0.10566000000E+00 0. -1.
     999900   -1    0    0    0    0 -0.00000000000E+00 -0.00000000000E+00 -0.74505805969E-08  0.93827000000E+00  0.93827000000E+00 0. -1.
     999902    2    1    2    0    0  0.13454671276E-01 -0.15062525009E-01 -0.11870870099E-01  0.10205029772E+01  0.10202340423E+01 0.  0.
     999903    2    3    3    0    0  0.32197783590E-01  0.10772350730E+00 -0.62275226286E-01  0.13035225229E+00  0.21736020246E-01 0.  0.
         14    1    1    2    0    0 -0.13454671276E-01  0.15062525009E-01  0.11870870099E-01  0.23427022766E-01  0.00000000000E+00 0. -1.
     999901    1    3    3    0    0 -0.18743112314E-01 -0.12278603231E+00  0.50404356187E-01  0.89015072494E+00  0.88000000000E+00 0. -1.
        -11    1    4    4    0    0  0.34377174745E-01  0.87411173874E-01 -0.53647196181E-01  0.10817017260E+00  0.51100000000E-03 0.  1.
         11    1    4    4    0    0 -0.21793911555E-02  0.20312333425E-01 -0.86280301043E-02  0.22182079692E-01  0.51100000000E-03 0. -1.
</event>
<event>
 8    1  0.1177602E+005  0.1043930E+01  0.7957747E-01            NaN
         13   -1    0    0    0    0  0.00000000000E+00  0.00000000000E+00  0.74505805969E-08  0.10566000000E+00  0.10566000000E+00 0. -1.
     999900   -1    0    0    0    0 -0.00000000000E+00 -0.00000000000E+00 -0.74505805969E-08  0.93827000000E+00  0.93827000000E+00 0. -1.
     999902    2    1    2    0    0 -0.77829340934E-02 -0.20984343186E-01  0.84556829144E-02  0.10200047979E+01  0.10197241649E+01 0.  0.
     999903    2    3    3    0    0  0.11080264414E+00  0.41519511493E-01  0.47127125599E-01  0.12901391596E+00  0.20555504440E-01 0.  0.
         14    1    1    2    0    0  0.77829340934E-02  0.20984343186E-01 -0.84556829144E-02  0.23925202102E-01  0.00000000000E+00 0.  1.
     999901    1    3    3    0    0 -0.11858557823E+00 -0.62503854679E-01 -0.38671442684E-01  0.89099088194E+00  0.88000000000E+00 0.  1.
        -11    1    4    4    0    0  0.10255198837E+00  0.32313736079E-01  0.44483447748E-01  0.11636204752E+00  0.51100000000E-03 0. -1.
         11    1    4    4    0    0  0.82506557602E-02  0.92057754140E-02  0.26436778509E-02  0.12651868440E-01  0.51100000000E-03 0.  1.
</event>
<event>
 8    1  0.1177602E+005  0.1043930E+01  0.7957747E-01            NaN
         13   -1    0    0    0    0  0.00000000000E+00  0.00000000000E+00  0.74505805969E-08  0.10566000000E+00  0.10566000000E+00 0.  1.
     999900   -1    0    0    0    0 -0.00000000000E+00 -0.00000000000E+00 -0.74505805969E-08  0.93827000000E+00  0.93827000000E+00 0. -1.
     999902    2    1    2    0    0 -0.65189553701E-02 -0.21846027163E-01 -0.36535526016E-02  0.10208411687E+01  0.10205800300E+01 0.  0.
     999903    2    3    3    0    0  0.63966214857E-01  0.93622091539E-01 -0.58064103060E-01  0.12884254002E+00  0.19292158681E-01 0.  0.
         14    1    1    2    0    0  0.65189553701E-02  0.21846027163E-01  0.36535526016E-02  0.23088831251E-01  0.00000000000E+00 0.  1.
     999901    1    3    3    0    0 -0.70485170227E-01 -0.11546811870E+00  0.54410550459E-01  0.89199862873E+00  0.88000000000E+00 0. -1.
        -11    1    4    4    0    0  0.42530546413E-01  0.48644874809E-01 -0.26378129991E-01  0.69794255396E-01  0.51100000000E-03 0.  1.
         11    1    4    4    0    0  0.21435668444E-01  0.44977216730E-01 -0.31685973069E-01  0.59048284621E-01  0.51100000000E-03 0. -1.
</event>
<event>
 8    1  0.1177602E+005  0.1043930E+01  0.7957747E-01            NaN
         13   -1    0    0    0    0  0.00000000000E+00  0.00000000000E+00  0.74505805969E-08  0.10566000000E+00  0.10566000000E+00 0. -1.
     999900   -1    0    0    0    0 -0.00000000000E+00 -0.00000000000E+00 -0.74505805969E-08  0.93827000000E+00  0.93827000000E+00 0. -1.
     999902    2    1    2    0    0 -0.26939896357E-02  0.15345062428E-01 -0.15958612448E-01  0.10216274030E+01  0.10213839360E+01 0.  0.
     999903    2    3    3    0    0  0.25576553134E-01 -0.80140623548E-01  0.95669273690E-01  0.12900344816E+00  0.20312560054E-01 0.  0.
         14    1    1    2    0    0  0.26939896357E-02 -0.15345062428E-01  0.15958612448E-01  0.22302596986E-01  0.00000000000E+00 0. -1.
     999901    1    3    3    0    0 -0.28270542770E-01  0.95485685976E-01 -0.11162788614E+00  0.89262395485E+00  0.88000000000E+00 0. -1.
        -11    1    4    4    0    0  0.14517850710E-01 -0.69427363154E-01  0.81850458329E-01  0.10830828866E+00  0.51100000000E-03 0. -1.
         11    1    4    4    0    0  0.11058702424E-01 -0.10713260394E-01  0.13818815361E-01  0.20695159496E-01  0.51100000000E-03 0.  1.
</event>
<event>
 8    1  0.1177602E+005  0.1043930E+01  0.7957747E-01            NaN
         13   -1    0    0    0    0  0.00000000000E+00  0.00000000000E+00  0.74505805969E-08  0.10566000000E+00  0.10566000000E+00 0. -1.
     999900   -1    0    0    0    0 -0.00000000000E+00 -0.00000000000E+00 -0.74505805969E-08  0.93827000000E+00  0.93827000000E+00 0.  1.
     999902    2    1    2    0    0  0.20799247750E-01 -0.10693438480E-01  0.18142250519E-02  0.10204725972E+01  0.10202029562E+01 0.  0.
     999903    2    3    3    0    0  0.10183266677E+00 -0.73289275576E-01  0.41453901360E-01  0.13364907600E+00  0.20060898337E-01 0.  0.
         14    1    1    2    0    0 -0.20799247750E-01  0.10693438480E-01 -0.18142250519E-02  0.23457402798E-01  0.00000000000E+00 0. -1.
     999901    1    3    3    0    0 -0.81033419018E-01  0.62595837096E-01 -0.39639676308E-01  0.88682352120E+00  0.88000000000E+00 0. -1.
        -11    1    4    4    0    0  0.27251620984E-01 -0.17747350844E-01  0.18578833842E-02  0.32578093252E-01  0.51100000000E-03 0.  1.
         11    1    4    4    0    0  0.74581045784E-01 -0.55541924731E-01  0.39596017976E-01  0.10107098275E+00  0.51100000000E-03 0. -1.
</event>
<event>
 8    1  0.1177602E+005  0.1043930E+01  0.7957747E-01            NaN
         13   -1    0    0    0    0  0.00000000000E+00  0.00000000000E+00  0.74505805969E-08  0.10566000000E+00  0.10566000000E+00 0. -1.
     999900   -1    0    0    0    0 -0.00000000000E+00 -0.00000000000E+00 -0.74505805969E-08  0.93827000000E+00  0.93827000000E+00 0.  1.
     999902    2    1    2    0    0 -0.14317733048E-01 -0.55994420693E-03  0.18890371419E-01  0.10202201466E+01  0.10199446016E+01 0.  0.
     999903    2    3    3    0    0 -0.81316692679E-01 -0.97042963316E-01 -0.27937628214E-01  0.13118094883E+00  0.19954674375E-01 0.  0.
         14    1    1    2    0    0  0.14317733048E-01  0.55994420693E-03 -0.18890371419E-01  0.23709853426E-01  0.00000000000E+00 0.  1.
     999901    1    3    3    0    0  0.66998959632E-01  0.96483019109E-01  0.46827999633E-01  0.88903919774E+00  0.88000000000E+00 0. -1.
        -11    1    4    4    0    0 -0.13271478302E-01 -0.18308092550E-01 -0.12890124047E-01  0.26033340318E-01  0.51100000000E-03 0. -1.
         11    1    4    4    0    0 -0.68045214377E-01 -0.78734870765E-01 -0.15047504168E-01  0.10514760852E+00  0.51100000000E-03 0.  1.
</event>
<event>
 8    1  0.1177602E+005  0.1043930E+01  0.7957747E-01            NaN
         13   -1    0    0    0    0  0.00000000000E+00  0.00000000000E+00  0.74505805969E-08  0.10566000000E+00  0.10566000000E+00 0. -1.
     999900   -1    0    0    0    0 -0.00000000000E+00 -0.00000000000E+00 -0.74505805969E-08  0.93827000000E+00  0.93827000000E+00 0. -1.
     999902    2    1    2    0    0 -0.26684061150E-02  0.13941506096E-01 -0.44082903453E-02  0.10290666556E+01  0.10289593105E+01 0.  0.
     999903    2    3    3    0    0 -0.22306861361E-01 -0.94257388879E-01 -0.95613591051E-01  0.13754487981E+00  0.19864132183E-01 0.  0.
         14    1    1    2    0    0  0.26684061150E-02 -0.13941506096E-01  0.44082903453E-02  0.14863344414E-01  0.00000000000E+00 0.  1.
     999901    1    3    3    0    0  0.19638455246E-01  0.10819889497E+00  0.91205300706E-01  0.89152177577E+00  0.88000000000E+00 0.  1.
        -11    1    4    4    0    0 -0.13591229412E-02 -0.37432142006E-01 -0.45486328405E-01  0.58926052499E-01  0.51100000000E-03 0. -1.
         11    1    4    4    0    0 -0.20947738419E-01 -0.56825246873E-01 -0.50127262646E-01  0.78618827315E-01  0.51100000000E-03 0.  1.
</event>
<event>
 8    1  0.1177602E+005  0.1043930E+01  0.7957747E-01            NaN
         13   -1    0    0    0    0  0.00000000000E+00  0.00000000000E+00  0.74505805969E-08  0.10566000000E+00  0.10566000000E+00 0.  1.
     999900   -1    0    0    0    0 -0.00000000000E+00 -0.00000000000E+00 -0.74505805969E-08  0.93827000000E+00  0.93827000000E+00 0. -1.
     999902    2    1    2    0    0  0.12263933952E-01 -0.17113192281E-01  0.11123018166E-01  0.10201185120E+01  0.10198405717E+01 0.  0.
     999903    2    3    3    0    0 -0.11512941112E-01  0.78312790626E-01  0.10109920099E+00  0.13008077605E+00  0.20845116199E-01 0.  0.
         14    1    1    2    0    0 -0.12263933952E-01  0.17113192281E-01 -0.11123018166E-01  0.23811487966E-01  0.00000000000E+00 0. -1.
     999901    1    3    3    0    0  0.23776875064E-01 -0.95425982907E-01 -0.89976182820E-01  0.89003773598E+00  0.88000000000E+00 0. -1.
        -11    1    4    4    0    0 -0.14890964705E-01  0.74025746125E-01  0.98213224508E-01  0.12388563479E+00  0.51100000000E-03 0. -1.
         11    1    4    4    0    0  0.33780235932E-02  0.42870445009E-02  0.28859764768E-02  0.61951412554E-02  0.51100000000E-03 0.  1.
</event>
<event>
 8    1  0.1177602E+005  0.1043930E+01  0.7957747E-01            NaN
         13   -1    0    0    0    0  0.00000000000E+00  0.00000000000E+00  0.74505805969E-08  0.10566000000E+00  0.10566000000E+00 0. -1.
     999900   -1    0    0    0    0 -0.00000000000E+00 -0.00000000000E+00 -0.74505805969E-08  0.93827000000E+00  0.93827000000E+00 0.  1.
     999902    2    1    2    0    0  0.16349080829E-01 -0.14486284284E-01  0.81301706040E-02  0.10206223929E+01  0.10203562242E+01 0.  0.
     999903    2    3    3    0    0 -0.70402596230E-01  0.43326247862E-01 -0.95245746903E-01  0.12845944661E+00  0.24421052624E-01 0.  0.
         14    1    1    2    0    0 -0.16349080829E-01  0.14486284284E-01 -0.81301706040E-02  0.23307607135E-01  0.00000000000E+00 0.  1.
     999901    1    3    3    0    0  0.86751677058E-01 -0.57812532146E-01  0.10337591751E+00  0.89216294625E+00  0.88000000000E+00 0. -1.
        -11    1    4    4    0    0 -0.20697757995E-01  0.69705753971E-02 -0.12045104248E-01  0.24946578217E-01  0.51100000000E-03 0. -1.
         11    1    4    4    0    0 -0.49704838235E-01  0.36355672465E-01 -0.83200642655E-01  0.10351286840E+00  0.51100000000E-03 0.  1.
</event>
<event>
 8    1  0.1177602E+005  0.1043930E+01  0.7957747E-01            NaN
         13   -1    0    0    0    0  0.00000000000E+00  0.00000000000E+00  0.74505805969E-08  0.10566000000E+00  0.10566000000E+00 0. -1.
     999900   -1    0    0    0    0 -0.00000000000E+00 -0.00000000000E+00 -0.74505805969E-08  0.93827000000E+00  0.93827000000E+00 0.  1.
     999902    2    1    2    0    0 -0.55953759554E-02 -0.23485324381E-01  0.81411069425E-02  0.10184516501E+01  0.10181329074E+01 0.  0.
     999903    2    3    3    0    0  0.35625680215E-01 -0.44115527859E-01 -0.11383527516E+00  0.12884329884E+00  0.20658095208E-01 0.  0.
         14    1    1    2    0    0  0.55953759554E-02  0.23485324381E-01 -0.81411069425E-02  0.25478349939E-01  0.00000000000E+00 0.  1.
     999901    1    3    3    0    0 -0.41221056170E-01  0.20630203478E-01  0.12197638210E+00  0.88960835122E+00  0.88000000000E+00 0. -1.
        -11    1    4    4    0    0  0.15891548048E-01 -0.23311641471E-01 -0.77985508928E-01  0.82933555641E-01  0.51100000000E-03 0. -1.
         11    1    4    4    0    0  0.19734132167E-01 -0.20803886388E-01 -0.35849766228E-01  0.45909743202E-01  0.51100000000E-03 0.  1.
</event>
<event>
 8    1  0.1177602E+005  0.1043930E+01  0.7957747E-01            NaN
         13   -1    0    0    0    0  0.00000000000E+00  0.00000000000E+00  0.74505805969E-08  0.10566000000E+00  0.10566000000E+00 0. -1.
     999900   -1    0    0    0    0 -0.00000000000E+00 -0.00000000000E+00 -0.74505805969E-08  0.93827000000E+00  0.93827000000E+00 0. -1.
     999902    2    1    2    0    0  0.67643305143E-02 -0.13845571886E-01  0.16606254044E-01  0.10212755589E+01  0.10210242620E+01 0.  0.
     999903    2    3    3    0    0  0.33543206369E-01  0.91895199513E-01 -0.81737540389E-01  0.12910420718E+00  0.20420490087E-01 0.  0.
         14    1    1    2    0    0 -0.67643305143E-02  0.13845571886E-01 -0.16606254044E-01  0.22654441100E-01  0.00000000000E+00 0.  1.
     999901    1    3    3    0    0 -0.26778875855E-01 -0.10574077140E+00  0.98343794433E-01  0.89217135172E+00  0.88000000000E+00 0.  1.
        -11    1    4    4    0    0  0.16320946880E-01  0.42761878786E-01 -0.25229689429E-01  0.52266145200E-01  0.51100000000E-03 0. -1.
         11    1    4    4    0    0  0.17222259489E-01  0.49133320727E-01 -0.56507850960E-01  0.76838061979E-01  0.51100000000E-03 0.  1.
</event>
<event>
 7    1  0.1177602E+005  0.1043930E+01  0.7957747E-01            NaN
         13   -1    0    0    0    0  0.00000000000E+00  0.00000000000E+00  0.74505805969E-08  0.10566000000E+00  0.10566000000E+00 0.  1.
     999900   -1    0    0    0    0 -0.00000000000E+00 -0.00000000000E+00 -0.74505805969E-08  0.93827000000E+00  0.93827000000E+00 0. -1.
     999903    2    1    2    0    0  0.91829484775E-02  0.54361194532E-01  0.89173049130E-01  0.10638604519E+00  0.18074620484E-01 0.  0.
         14    1    1    2    0    0  0.29814463972E-01  0.66060982529E-02  0.34364816779E-01  0.45972637822E-01  0.00000000000E+00 0.  1.
     999901    1    1    2    0    0 -0.38997412449E-01 -0.60967292785E-01 -0.12353786591E+00  0.89157131699E+00  0.88000000000E+00 0.  1.
        -11    1    3    3    0    0  0.13620610192E-01  0.28533942205E-01  0.52965062645E-01  0.61686837022E-01  0.51100000000E-03 0. -1.
         11    1    3    3    0    0 -0.44376617147E-02  0.25827252328E-01  0.36207986485E-01  0.44699208165E-01  0.51100000000E-03 0.  1.
</event>
<event>
 8    1  0.1177602E+005  0.1043930E+01  0.7957747E-01            NaN
         13   -1    0    0    0    0  0.00000000000E+00  0.00000000000E+00  0.74505805969E-08  0.10566000000E+00  0.10566000000E+00 0. -1.
     999900   -1    0    0    0    0 -0.00000000000E+00 -0.00000000000E+00 -0.74505805969E-08  0.93827000000E+00  0.93827000000E+00 0.  1.
     999902    2    1    2    0    0  0.85337725144E-02 -0.12430642619E-01  0.18009769660E-01  0.10204417486E+01  0.10201713897E+01 0.  0.
     999903    2    3    3    0    0 -0.62800346124E-01 -0.81219056220E-01 -0.77349910393E-01  0.12976005975E+00  0.17726982303E-01 0.  0.
         14    1    1    2    0    0 -0.85337725144E-02  0.12430642619E-01 -0.18009769660E-01  0.23488251370E-01  0.00000000000E+00 0.  1.
     999901    1    3    3    0    0  0.71334118638E-01  0.68788413601E-01  0.95359680053E-01  0.89068168888E+00  0.88000000000E+00 0. -1.
        -11    1    4    4    0    0 -0.48138109389E-01 -0.54282214421E-01 -0.62118751093E-01  0.95513542162E-01  0.51100000000E-03 0.  1.
         11    1    4    4    0    0 -0.14662236735E-01 -0.26936841799E-01 -0.15231159300E-01  0.34246517587E-01  0.51100000000E-03 0. -1.
</event>
<event>
 8    1  0.1177602E+005  0.1043930E+01  0.7957747E-01            NaN
         13   -1    0    0    0    0  0.00000000000E+00  0.00000000000E+00  0.74505805969E-08  0.10566000000E+00  0.10566000000E+00 0.  1.
     999900   -1    0    0    0    0 -0.00000000000E+00 -0.00000000000E+00 -0.74505805969E-08  0.93827000000E+00  0.93827000000E+00 0. -1.
     999902    2    1    2    0    0 -0.10351496415E-01 -0.92264034264E-02 -0.19068093894E-01  0.10203530578E+01  0.10200806294E+01 0.  0.
     999903    2    3    3    0    0  0.23080732464E-01  0.11861912775E+00  0.38784451564E-01  0.12860807701E+00  0.20798704543E-01 0.  0.
         14    1    1    2    0    0  0.10351496415E-01  0.92264034264E-02  0.19068093894E-01  0.23576942189E-01  0.00000000000E+00 0. -1.
     999901    1    3    3    0    0 -0.33432228880E-01 -0.12784553117E+00 -0.57852545458E-01  0.89174498080E+00  0.88000000000E+00 0.  1.
        -11    1    4    4    0    0  0.20552093329E-01  0.11128591617E+00  0.41250562346E-01  0.12045253709E+00  0.51100000000E-03 0.  1.
         11    1    4    4    0    0  0.25286391349E-02  0.73332115790E-02 -0.24661107819E-02  0.81555399163E-02  0.51100000000E-03 0. -1.
</event>
<event>
 8    1  0.1177602E+005  0.1043930E+01  0.7957747E-01            NaN
         13   -1    0    0    0    0  0.00000000000E+00  0.00000000000E+00  0.74505805969E-08  0.10566000000E+00  0.10566000000E+00 0.  1.
     999900   -1    0    0    0    0 -0.00000000000E+00 -0.00000000000E+00 -0.74505805969E-08  0.93827000000E+00  0.93827000000E+00 0.  1.
     999902    2    1    2    0    0  0.10566057397E-01 -0.11972770261E-01  0.20001587248E-01  0.10183360107E+01  0.10180143311E+01 0.  0.
     999903    2    3    3    0    0 -0.35513254637E-01 -0.12135727294E+00  0.23975944383E-01  0.13035849524E+00  0.20729506086E-01 0.  0.
         14    1    1    2    0    0 -0.10566057397E-01  0.11972770261E-01 -0.20001587248E-01  0.25593989315E-01  0.00000000000E+00 0. -1.
     999901    1    3    3    0    0  0.46079312034E-01  0.10938450268E+00 -0.39743571353E-02  0.88797751545E+00  0.88000000000E+00 0. -1.
        -11    1    4    4    0    0 -0.14612153782E-01 -0.70947916684E-01  0.22170285226E-01  0.75755558133E-01  0.51100000000E-03 0.  1.
         11    1    4    4    0    0 -0.20901100855E-01 -0.50409356251E-01  0.18056591573E-02  0.54602937106E-01  0.51100000000E-03 0. -1.
</event>
<event>
 8    1  0.1177602E+005  0.1043930E+01  0.7957747E-01            NaN
         13   -1    0    0    0    0  0.00000000000E+00  0.00000000000E+00  0.74505805969E-08  0.10566000000E+00  0.10566000000E+00 0. -1.
     999900   -1    0    0    0    0 -0.00000000000E+00 -0.00000000000E+00 -0.74505805969E-08  0.93827000000E+00  0.93827000000E+00 0.  1.
     999902    2    1    2    0    0  0.23767119308E-01 -0.40001648462E-02 -0.10930448229E-01  0.10174658360E+01  0.10171216129E+01 0.  0.
     999903    2    3    3    0    0  0.10908993046E+00  0.67256659662E-01  0.10619401159E-01  0.13021056653E+00  0.20443795118E-01 0.  0.
         14    1    1    2    0    0 -0.23767119308E-01  0.40001648462E-02  0.10930448229E-01  0.26464164024E-01  0.00000000000E+00 0. -1.
     999901    1    3    3    0    0 -0.85322811155E-01 -0.71256824508E-01 -0.21549849388E-01  0.88725526944E+00  0.88000000000E+00 0. -1.
        -11    1    4    4    0    0  0.78251795927E-01  0.54790567304E-01  0.14852884653E-01  0.96675845664E-01  0.51100000000E-03 0.  1.
         11    1    4    4    0    0  0.30838134537E-01  0.12466092357E-01 -0.42334834940E-02  0.33534720871E-01  0.51100000000E-03 0. -1.
</event>
<event>
 8    1  0.1177602E+005  0.1043930E+01  0.7957747E-01            NaN
         13   -1    0    0    0    0  0.00000000000E+00  0.00000000000E+00  0.74505805969E-08  0.10566000000E+00  0.10566000000E+00 0. -1.
     999900   -1    0    0    0    0 -0.00000000000E+00 -0.00000000000E+00 -0.74505805969E-08  0.93827000000E+00  0.93827000000E+00 0.  1.
     999902    2    1    2    0    0 -0.97001954746E-02  0.62684138041E-02 -0.21104928672E-01  0.10198716373E+01  0.10195878342E+01 0.  0.
     999903    2    3    3    0    0  0.11014423355E+00 -0.53055628576E-01 -0.38155952109E-01  0.12960607767E+00  0.19879808352E-01 0.  0.
         14    1    1    2    0    0  0.97001954746E-02 -0.62684138041E-02  0.21104928672E-01  0.24058362748E-01  0.00000000000E+00 0. -1.
     999901    1    3    3    0    0 -0.11984442903E+00  0.59324042381E-01  0.17051023437E-01  0.89026555958E+00  0.88000000000E+00 0. -1.
        -11    1    4    4    0    0  0.25303966401E-01 -0.47357782209E-02 -0.34206444522E-02  0.25974607609E-01  0.51100000000E-03 0. -1.
         11    1    4    4    0    0  0.84840267151E-01 -0.48319850356E-01 -0.34735307657E-01  0.10363147006E+00  0.51100000000E-03 0.  1.
</event>
<event>
 8    1  0.1177602E+005  0.1043930E+01  0.7957747E-01            NaN
         13   -1    0    0    0    0  0.00000000000E+00  0.00000000000E+00  0.74505805969E-08  0.10566000000E+00  0.10566000000E+00 0.  1.
     999900   -1    0    0    0    0 -0.00000000000E+00 -0.00000000000E+00 -0.74505805969E-08  0.93827000000E+00  0.93827000000E+00 0.  1.
     999902    2    1    2    0    0  0.23443310727E-01  0.67635602824E-03 -0.89924204138E-02  0.10188120801E+01  0.10185024029E+01 0.  0.
     999903    2    3    3    0    0 -0.64369703546E-01 -0.10539575392E+00 -0.26732438705E-01  0.12792649472E+00  0.19971006337E-01 0.  0.
         14    1    1    2    0    0 -0.23443310727E-01 -0.67635602824E-03  0.89924204138E-02  0.25117919902E-01  0.00000000000E+00 0.  1.
     999901    1    3    3    0    0  0.87813014273E-01  0.10607210995E+00  0.17740018291E-01  0.89088558538E+00  0.88000000000E+00 0. -1.
        -11    1    4    4    0    0 -0.39449325186E-01 -0.46557767958E-01 -0.16456466425E-01  0.63205628097E-01  0.51100000000E-03 0.  1.
         11    1    4    4    0    0 -0.24920378360E-01 -0.58837985959E-01 -0.10275972279E-01  0.64720866624E-01  0.51100000000E-03 0. -1.
</event>
<event>
 8    1  0.1177602E+005  0.1043930E+01  0.7957747E-01            NaN
         13   -1    0    0    0    0  0.00000000000E+00  0.00000000000E+00  0.74505805969E-08  0.10566000000E+00  0.10566000000E+00 0. -1.
     999900   -1    0    0    0    0 -0.00000000000E+00 -0.00000000000E+00 -0.74505805969E-08  0.93827000000E+00  0.93827000000E+00 0.  1.
     999902    2    1    2    0    0  0.14037114601E-01 -0.12950271632E-01 -0.10455351346E-01  0.10221569779E+01  0.10219250574E+01 0.  0.
     999903    2    3    3    0    0  0.10877406583E+00  0.44284250547E-01  0.58158751877E-01  0.13257349351E+00  0.20009960471E-01 0.  0.
         14    1    1    2    0    0 -0.14037114601E-01  0.12950271632E-01  0.10455351346E-01  0.21773022148E-01  0.00000000000E+00 0. -1.
     999901    1    3    3    0    0 -0.94736951226E-01 -0.57234522179E-01 -0.68614103224E-01  0.88958348434E+00  0.88000000000E+00 0.  1.
        -11    1    4    4    0    0  0.83427127352E-01  0.33178453471E-01  0.53474321260E-01  0.10450195935E+00  0.51100000000E-03 0. -1.
         11    1    4    4    0    0  0.25346938475E-01  0.11105797076E-01  0.46844306171E-02  0.28071534157E-01  0.51100000000E-03 0.  1.
</event>
<event>
 8    1  0.1177602E+005  0.1043930E+01  0.7957747E-01            NaN
         13   -1    0    0    0    0  0.00000000000E+00  0.00000000000E+00  0.74505805969E-08  0.10566000000E+00  0.10566000000E+00 0. -1.
     999900   -1    0    0    0    0 -0.00000000000E+00 -0.00000000000E+00 -0.74505805969E-08  0.93827000000E+00  0.93827000000E+00 0.  1.
     999902    2    1    2    0    0 -0.13565548847E-01  0.63096085846E-02  0.18988085685E-01  0.10197559918E+01  0.10194694209E+01 0.  0.
     999903    2    3    3    0    0 -0.11954883192E+00 -0.21182562086E-01  0.48880108974E-01  0.13246696964E+00  0.20435479980E-01 0.  0.
         14    1    1    2    0    0  0.13565548847E-01 -0.63096085846E-02 -0.18988085685E-01  0.24174008231E-01  0.00000000000E+00 0.  1.
     999901    1    3    3    0    0  0.10598328307E+00  0.27492170671E-01 -0.29892023289E-01  0.88728902213E+00  0.88000000000E+00 0.  1.
        -11    1    4    4    0    0 -0.78034671143E-01 -0.18210424466E-01  0.41332442015E-01  0.90164634661E-01  0.51100000000E-03 0. -1.
         11    1    4    4    0    0 -0.41514160775E-01 -0.29721376195E-02  0.75476669592E-02  0.42302334976E-01  0.51100000000E-03 0.  1.
</event>
<event>
 8    1  0.1177602E+005  0.1043930E+01  0.7957747E-01            NaN
         13   -1    0    0    0    0  0.00000000000E+00  0.00000000000E+00  0.74505805969E-08  0.10566000000E+00  0.10566000000E+00 0.  1.
     999900   -1    0    0    0    0 -0.00000000000E+00 -0.00000000000E+00 -0.74505805969E-08  0.93827000000E+00  0.93827000000E+00 0. -1.
     999902    2    1    2    0    0 -0.36138441955E-02 -0.68850467980E-02  0.22156929240E-01  0.10204482357E+01  0.10201780279E+01 0.  0.
     999903    2    3    3    0    0  0.26222396591E-01  0.11403841579E+00  0.55467366610E-01  0.13105390795E+00  0.20152510286E-01 0.  0.
         14    1    1    2    0    0  0.36138441955E-02  0.68850467980E-02 -0.22156929240E-01  0.23481764257E-01  0.00000000000E+00 0. -1.
     999901    1    3    3    0    0 -0.29836240786E-01 -0.12092346259E+00 -0.33310437371E-01  0.88939432779E+00  0.88000000000E+00 0. -1.
        -11    1    4    4    0    0  0.12391287064E-01  0.71049821162E-01  0.24007297889E-01  0.76014686445E-01  0.51100000000E-03 0.  1.
         11    1    4    4    0    0  0.13831109526E-01  0.42988594632E-01  0.31460068721E-01  0.55039221507E-01  0.51100000000E-03 0. -1.
</event>
<event>
 8    1  0.1177602E+005  0.1043930E+01  0.7957747E-01            NaN
         13   -1    0    0    0    0  0.00000000000E+00  0.00000000000E+00  0.74505805969E-08  0.10566000000E+00  0.10566000000E+00 0.  1.
     999900   -1    0    0    0    0 -0.00000000000E+00 -0.00000000000E+00 -0.74505805969E-08  0.93827000000E+00  0.93827000000E+00 0.  1.
     999902    2    1    2    0    0  0.41417697229E-02 -0.15725083396E-01 -0.17956187873E-01  0.10197048646E+01  0.10194170656E+01 0.  0.
     999903    2    3    3    0    0 -0.58723510876E-01 -0.36116002413E-01 -0.11129638521E+00  0.13230403882E+00  0.19095993484E-01 0.  0.
         14    1    1    2    0    0 -0.41417697229E-02  0.15725083396E-01  0.17956187873E-01  0.24225135442E-01  0.00000000000E+00 0.  1.
     999901    1    3    3    0    0  0.62865280599E-01  0.20390919017E-01  0.93340197337E-01  0.88740082574E+00  0.88000000000E+00 0. -1.
        -11    1    4    4    0    0 -0.17537012017E-01 -0.36242575240E-02 -0.18823222189E-01  0.25985704679E-01  0.51100000000E-03 0.  1.
         11    1    4    4    0    0 -0.41186498858E-01 -0.32491744889E-01 -0.92473163021E-01  0.10631833414E+00  0.51100000000E-03 0. -1.
</event>
<event>
 8    1  0.1177602E+005  0.1043930E+01  0.7957747E-01            NaN
         13   -1    0    0    0    0  0.00000000000E+00  0.00000000000E+00  0.74505805969E-08  0.10566000000E+00  0.10566000000E+00 0. -1.
     999900   -1    0    0    0    0 -0.00000000000E+00 -0.00000000000E+00 -0.74505805969E-08  0.93827000000E+00  0.93827000000E+00 0. -1.
     999902    2    1    2    0    0 -0.16226027568E-01  0.13852007034E-01 -0.76406114234E-02  0.10212685567E+01  0.10210171026E+01 0.  0.
     999903    2    3    3    0    0 -0.41220866298E-01  0.12443697868E+00 -0.18736871253E-01  0.13392594818E+00  0.20034165057E-01 0.  0.
         14    1    1    2    0    0  0.16226027568E-01 -0.13852007034E-01  0.76406114234E-02  0.22661443300E-01  0.00000000000E+00 0. -1.
     999901    1    3    3    0    0  0.24994838730E-01 -0.11058497165E+00  0.11096259830E-01  0.88734260852E+00  0.88000000000E+00 0. -1.
        -11    1    4    4    0    0 -0.27124170328E-01  0.50443836924E-01 -0.74177983462E-02  0.57754533614E-01  0.51100000000E-03 0. -1.
         11    1    4    4    0    0 -0.14096695969E-01  0.73993141756E-01 -0.11319072907E-01  0.76171414564E-01  0.51100000000E-03 0.  1.
</event>
<event>
 8    1  0.1177602E+005  0.1043930E+01  0.7957747E-01            NaN
         13   -1    0    0    0    0  0.00000000000E+00  0.00000000000E+00  0.74505805969E-08  0.10566000000E+00  0.10566000000E+00 0. -1.
     999900   -1    0    0    0    0 -0.00000000000E+00 -0.00000000000E+00 -0.74505805969E-08  0.93827000000E+00  0.93827000000E+00 0. -1.
     999902    2    1    2    0    0 -0.14353405936E-01  0.55747484872E-02 -0.19160721287E-01  0.10193488828E+01  0.10190524587E+01 0.  0.
     999903    2    3    3    0    0  0.88297524883E-01 -0.55163385495E-01 -0.75615458567E-01  0.12950986821E+00  0.14685243962E-01 0.  0.
         14    1    1    2    0    0  0.14353405936E-01 -0.55747484872E-02  0.19160721287E-01  0.24581117202E-01  0.00000000000E+00 0. -1.
     999901    1    3    3    0    0 -0.10265093082E+00  0.60738133983E-01  0.56454737279E-01  0.88983901459E+00  0.88000000000E+00 0.  1.
        -11    1    4    4    0    0  0.42400648928E-01 -0.23871834821E-01 -0.43929636485E-01  0.65557254442E-01  0.51100000000E-03 0.  1.
         11    1    4    4    0    0  0.45896875955E-01 -0.31291550674E-01 -0.31685822081E-01  0.63952613769E-01  0.51100000000E-03 0. -1.
</event>
<event>
 8    1  0.1177602E+005  0.1043930E+01  0.7957747E-01            NaN
         13   -1    0    0    0    0  0.00000000000E+00  0.00000000000E+00  0.74505805969E-08  0.10566000000E+00  0.10566000000E+00 0.  1.
     999900   -1    0    0    0    0 -0.00000000000E+00 -0.00000000000E+00 -0.74505805969E-08  0.93827000000E+00  0.93827000000E+00 0.  1.
     999902    2    1    2    0    0  0.12893285360E-01  0.18385675609E-01  0.89348590696E-02  0.10197618064E+01  0.10194753750E+01 0.  0.
     999903    2    3    3    0    0 -0.30078595565E-01  0.12630298207E+00  0.14183967793E-01  0.13211306916E+00  0.19887506374E-01 0.  0.
         14    1    1    2    0    0 -0.12893285360E-01 -0.18385675609E-01 -0.89348590696E-02  0.24168193594E-01  0.00000000000E+00 0.  1.
     999901    1    3    3    0    0  0.42971880925E-01 -0.10791730646E+00 -0.52491087239E-02  0.88764873724E+00  0.88000000000E+00 0.  1.
        -11    1    4    4    0    0 -0.11321335074E-01  0.83884606081E-01  0.47485928590E-02  0.84779773651E-01  0.51100000000E-03 0.  1.
         11    1    4    4    0    0 -0.18757260491E-01  0.42418375993E-01  0.94353749344E-02  0.47333295514E-01  0.51100000000E-03 0. -1.
</event>
<event>
 8    1  0.1177602E+005  0.1043930E+01  0.7957747E-01            NaN
         13   -1    0    0    0    0  0.00000000000E+00  0.00000000000E+00  0.74505805969E-08  0.10566000000E+00  0.10566000000E+00 0.  1.
     999900   -1    0    0    0    0 -0.00000000000E+00 -0.00000000000E+00 -0.74505805969E-08  0.93827000000E+00  0.93827000000E+00 0.  1.
     999902    2    1    2    0    0 -0.82797358135E-02 -0.10444408843E-01  0.10775219017E-01  0.10267910080E+01  0.10266479577E+01 0.  0.
     999903    2    3    3    0    0  0.49157067171E-01 -0.53890297642E-01  0.11486079339E+00  0.13773513892E+00  0.21386565946E-01 0.  0.
         14    1    1    2    0    0  0.82797358135E-02  0.10444408843E-01 -0.10775219017E-01  0.17138991979E-01  0.00000000000E+00 0. -1.
     999901    1    3    3    0    0 -0.57436802985E-01  0.43445888799E-01 -0.10408557437E+00  0.88905586910E+00  0.88000000000E+00 0.  1.
        -11    1    4    4    0    0  0.14296943749E-01 -0.93550083451E-02  0.43094624684E-01  0.46360830227E-01  0.51100000000E-03 0.  1.
         11    1    4    4    0    0  0.34860123422E-01 -0.44535289296E-01  0.71766168703E-01  0.91374308692E-01  0.51100000000E-03 0. -1.
</event>
<event>
 8    1  0.1177602E+005  0.1043930E+01  0.7957747E-01            NaN
         13   -1    0    0    0    0  0.00000000000E+00  0.00000000000E+00  0.74505805969E-08  0.10566000000E+00  0.10566000000E+00 0. -1.
     999900   -1    0    0    0    0 -0.00000000000E+00 -0.00000000000E+00 -0.74505805969E-08  0.93827000000E+00  0.93827000000E+00 0. -1.
     999902    2    1    2    0    0  0.98976243499E-02  0.20986589493E-01  0.12634268802E-02  0.10206921827E+01  0.10204276239E+01 0.  0.
     999903    2    3    3    0    0 -0.34546385234E-01  0.32303460538E-02  0.12455529378E+00  0.13080935971E+00  0.19828754631E-01 0.  0.
         14    1    1    2    0    0 -0.98976243499E-02 -0.20986589493E-01 -0.12634268802E-02  0.23237817320E-01  0.00000000000E+00 0. -1.
     999901    1    3    3    0    0  0.44444009584E-01  0.17756243439E-01 -0.12329186690E+00  0.88988282297E+00  0.88000000000E+00 0. -1.
        -11    1    4    4    0    0 -0.77303363531E-02  0.35214083466E-02  0.64210172050E-01  0.64771642967E-01  0.51100000000E-03 0. -1.
         11    1    4    4    0    0 -0.26816048881E-01 -0.29106229287E-03  0.60345121734E-01  0.66037716745E-01  0.51100000000E-03 0.  1.
</event>
<event>
 8    1  0.1177602E+005  0.1043930E+01  0.7957747E-01            NaN
         13   -1    0    0    0    0  0.00000000000E+00  0.00000000000E+00  0.74505805969E-08  0.10566000000E+00  0.10566000000E+00 0. -1.
     999900   -1    0    0    0    0 -0.00000000000E+00 -0.00000000000E+00 -0.74505805969E-08  0.93827000000E+00  0.93827000000E+00 0.  1.
     999902    2    1    2    0    0 -0.18749328332E-01 -0.15284693492E-01 -0.38095598803E-02  0.10194418005E+01  0.10191476403E+01 0.  0.
     999903    2    3    3    0    0  0.99696094656E-01  0.55873992900E-01 -0.52793282024E-01  0.12731384897E+00  0.18986077533E-01 0.  0.
         14    1    1    2    0    0  0.18749328332E-01  0.15284693492E-01  0.38095598803E-02  0.24488199496E-01  0.00000000000E+00 0. -1.
     999901    1    3    3    0    0 -0.11844542299E+00 -0.71158686393E-01  0.48983722144E-01  0.89212795154E+00  0.88000000000E+00 0.  1.
        -11    1    4    4    0    0  0.16647417347E-01  0.34298433127E-02 -0.32844266667E-02  0.17319033143E-01  0.51100000000E-03 0. -1.
         11    1    4    4    0    0  0.83048677309E-01  0.52444149588E-01 -0.49508855357E-01  0.10999481583E+00  0.51100000000E-03 0.  1.
</event>
<event>
 8    1  0.1177602E+005  0.1043930E+01  0.7957747E-01            NaN
         13   -1    0    0    0    0  0.00000000000E+00  0.00000000000E+00  0.74505805969E-08  0.10566000000E+00  0.10566000000E+00 0. -1.
     999900   -1    0    0    0    0 -0.00000000000E+00 -0.00000000000E+00 -0.74505805969E-08  0.93827000000E+00  0.93827000000E+00 0.  1.
     999902    2    1    2    0    0  0.12729018015E-01  0.18600963300E-01 -0.58729373312E-02  0.10206380458E+01  0.10203722387E+01 0.  0.
     999903    2    3    3    0    0  0.83128490130E-01 -0.39114896175E-01  0.90881508179E-01  0.13066690652E+00  0.19340914061E-01 0.  0.
         14    1    1    2    0    0 -0.12729018015E-01 -0.18600963300E-01  0.58729373312E-02  0.23291954152E-01  0.00000000000E+00 0. -1.
     999901    1    3    3    0    0 -0.70399472114E-01  0.57715859476E-01 -0.96754445510E-01  0.88997113933E+00  0.88000000000E+00 0. -1.
        -11    1    4    4    0    0  0.28209058947E-01 -0.79237749679E-02  0.39856494404E-01  0.49470582002E-01  0.51100000000E-03 0.  1.
         11    1    4    4    0    0  0.54919431183E-01 -0.31191121207E-01  0.51025013775E-01  0.81196324519E-01  0.51100000000E-03 0. -1.
</event>
<event>
 8    1  0.1177602E+005  0.1043930E+01  0.7957747E-01            NaN
         13   -1    0    0    0    0  0.00000000000E+00  0.00000000000E+00  0.74505805969E-08  0.10566000000E+00  0.10566000000E+00 0.  1.
     999900   -1    0    0    0    0 -0.00000000000E+00 -0.00000000000E+00 -0.74505805969E-08  0.93827000000E+00  0.93827000000E+00 0. -1.
     999902    2    1    2    0    0  0.17215732452E-01 -0.39655753331E-03 -0.16610349355E-01  0.10200042313E+01  0.10197235848E+01 0.  0.
     999903    2    3    3    0    0  0.20050618952E-01  0.53090416140E-01  0.11396689186E+00  0.12875830068E+00  0.19225710636E-01 0.  0.
         14    1    1    2    0    0 -0.17215732452E-01  0.39655753331E-03  0.16610349355E-01  0.23925768690E-01  0.00000000000E+00 0. -1.
     999901    1    3    3    0    0 -0.28348865004E-02 -0.53486973673E-01 -0.13057724121E+00  0.89124593063E+00  0.88000000000E+00 0. -1.
        -11    1    4    4    0    0  0.21922021967E-01  0.40652023756E-01  0.77976719787E-01  0.90629973145E-01  0.51100000000E-03 0. -1.
         11    1    4    4    0    0 -0.18714030147E-02  0.12438392383E-01  0.35990172069E-01  0.38128327539E-01  0.51100000000E-03 0.  1.
</event>
<event>
 8    1  0.1177602E+005  0.1043930E+01  0.7957747E-01            NaN
         13   -1    0    0    0    0  0.00000000000E+00  0.00000000000E+00  0.74505805969E-08  0.10566000000E+00  0.10566000000E+00 0.  1.
     999900   -1    0    0    0    0 -0.00000000000E+00 -0.00000000000E+00 -0.74505805969E-08  0.93827000000E+00  0.93827000000E+00 0. -1.
     999902    2    1    2    0    0  0.19452492966E-01 -0.62418652850E-02  0.11643740562E-01  0.10204153863E+01  0.10201444130E+01 0.  0.
     999903    2    3    3    0    0  0.10270602830E+00 -0.67825320559E-01 -0.45452169016E-01  0.13250569716E+00  0.18521818325E-01 0.  0.
         14    1    1    2    0    0 -0.19452492966E-01  0.62418652850E-02 -0.11643740562E-01  0.23514613735E-01  0.00000000000E+00 0.  1.
     999901    1    3    3    0    0 -0.83253535336E-01  0.61583455274E-01  0.57095909578E-01  0.88790968910E+00  0.88000000000E+00 0. -1.
        -11    1    4    4    0    0  0.96171754360E-01 -0.66637530987E-01 -0.46217324584E-01  0.12580091051E+00  0.51100000000E-03 0.  1.
         11    1    4    4    0    0  0.65342739418E-02 -0.11877895728E-02  0.76515556804E-03  0.67047866528E-02  0.51100000000E-03 0. -1.
</event>
<event>
 8    1  0.1177602E+005  0.1043930E+01  0.7957747E-01            NaN
         13   -1    0    0    0    0  0.00000000000E+00  0.00000000000E+00  0.74505805969E-08  0.10566000000E+00  0.10566000000E+00 0. -1.
     999900   -1    0    0    0    0 -0.00000000000E+00 -0.00000000000E+00 -0.74505805969E-08  0.93827000000E+00  0.93827000000E+00 0.  1.
     999902    2    1    2    0    0  0.20883164480E-01  0.10049757183E-01 -0.40130429106E-02  0.10204096112E+01  0.10201385033E+01 0.  0.
     999903    2    3    3    0    0 -0.23405411432E-02 -0.20207283344E-01  0.12670808192E+00  0.12993623059E+00  0.20363535140E-01 0.  0.
         14    1    1    2    0    0 -0.20883164480E-01 -0.10049757183E-01  0.40130429106E-02  0.23520388848E-01  0.00000000000E+00 0.  1.
     999901    1    3    3    0    0  0.23223705623E-01  0.30257040527E-01 -0.13072112483E+00  0.89047338056E+00  0.88000000000E+00 0.  1.
        -11    1    4    4    0    0 -0.34401010630E-02 -0.18971770960E-01  0.56401255118E-01  0.59608095831E-01  0.51100000000E-03 0.  1.
         11    1    4    4    0    0  0.10995599198E-02 -0.12355123835E-02  0.70306826806E-01  0.70328134764E-01  0.51100000000E-03 0. -1.
</event>
<event>
 8    1  0.1177602E+005  0.1043930E+01  0.7957747E-01            NaN
         13   -1    0    0    0    0  0.00000000000E+00  0.00000000000E+00  0.74505805969E-08  0.10566000000E+00  0.10566000000E+00 0. -1.
     999900   -1    0    0    0    0 -0.00000000000E+00 -0.00000000000E+00 -0.74505805969E-08  0.93827000000E+00  0.93827000000E+00 0.  1.
     999902    2    1    2    0    0  0.59330180738E-03  0.60852981184E-02 -0.22258949510E-01  0.10208465927E+01  0.10205855780E+01 0.  0.
     999903    2    3    3    0    0 -0.48433693258E-02 -0.12170675977E-01  0.12594812616E+00  0.12825028120E+00  0.20337663676E-01 0.  0.
         14    1    1    2    0    0 -0.59330180738E-03 -0.60852981184E-02  0.22258949510E-01  0.23083407321E-01  0.00000000000E+00 0. -1.
     999901    1    3    3    0    0  0.54366711332E-02  0.18255974095E-01 -0.14820707568E+00  0.89259631148E+00  0.88000000000E+00 0.  1.
        -11    1    4    4    0    0  0.24303251451E-02 -0.11043415065E-01  0.30758608502E-01  0.32775243928E-01  0.51100000000E-03 0. -1.
         11    1    4    4    0    0 -0.72736944709E-02 -0.11272609117E-02  0.95189517663E-01  0.95475037273E-01  0.51100000000E-03 0.  1.
</event>
<event>
 8    1  0.1177602E+005  0.1043930E+01  0.7957747E-01            NaN
         13   -1    0    0    0    0  0.00000000000E+00  0.00000000000E+00  0.74505805969E-08  0.10566000000E+00  0.10566000000E+00 0. -1.
     999900   -1    0    0    0    0 -0.00000000000E+00 -0.00000000000E+00 -0.74505805969E-08  0.93827000000E+00  0.93827000000E+00 0.  1.
     999902    2    1    2    0    0 -0.16494123315E-01 -0.16035676513E-01  0.58780589431E-03  0.10209181652E+01  0.10206587850E+01 0.  0.
     999903    2    3    3    0    0  0.86357351058E-01  0.81169319642E-01  0.45765912032E-01  0.12846743920E+00  0.19060789535E-01 0.  0.
         14    1    1    2    0    0  0.16494123315E-01  0.16035676513E-01 -0.58780589431E-03  0.23011834802E-01  0.00000000000E+00 0. -1.
     999901    1    3    3    0    0 -0.10285147437E+00 -0.97204996156E-01 -0.45178106138E-01  0.89245072600E+00  0.88000000000E+00 0. -1.
        -11    1    4    4    0    0  0.58569945890E-01  0.63521550549E-01  0.26759255688E-01  0.90452997915E-01  0.51100000000E-03 0. -1.
         11    1    4    4    0    0  0.27787405168E-01  0.17647769093E-01  0.19006656344E-01  0.38014441286E-01  0.51100000000E-03 0.  1.
</event>
<event>
 8    1  0.1177602E+005  0.1043930E+01  0.7957747E-01            NaN
         13   -1    0    0    0    0  0.00000000000E+00  0.00000000000E+00  0.74505805969E-08  0.10566000000E+00  0.10566000000E+00 0. -1.
     999900   -1    0    0    0    0 -0.00000000000E+00 -0.00000000000E+00 -0.74505805969E-08  0.93827000000E+00  0.93827000000E+00 0.  1.
     999902    2    1    2    0    0  0.17566603806E-01 -0.10468145834E-01  0.16420833803E-02  0.10234150278E+01  0.10232093896E+01 0.  0.
     999903    2    3    3    0    0 -0.12341773081E+00 -0.19244241475E-01  0.35753664498E-01  0.13149731723E+00  0.20271724297E-01 0.  0.
         14    1    1    2    0    0 -0.17566603806E-01  0.10468145834E-01 -0.16420833803E-02  0.20514972198E-01  0.00000000000E+00 0. -1.
     999901    1    3    3    0    0  0.14098433462E+00  0.87760956416E-02 -0.34111581118E-01  0.89191771057E+00  0.88000000000E+00 0.  1.
        -11    1    4    4    0    0 -0.88929203166E-01 -0.20281567570E-01  0.32521835170E-01  0.96838401694E-01  0.51100000000E-03 0. -1.
         11    1    4    4    0    0 -0.34488527644E-01  0.10373260948E-02  0.32318293284E-02  0.34658915538E-01  0.51100000000E-03 0.  1.
</event>
<event>
 8    1  0.1177602E+005  0.1043930E+01  0.7957747E-01            NaN
         13   -1    0    0    0    0  0.00000000000E+00  0.00000000000E+00  0.74505805969E-08  0.10566000000E+00  0.10566000000E+00 0. -1.
     999900   -1    0    0    0    0 -0.00000000000E+00 -0.00000000000E+00 -0.74505805969E-08  0.93827000000E+00  0.93827000000E+00 0. -1.
     999902    2    1    2    0    0 -0.11088128840E-01 -0.11246643147E-01 -0.17366417111E-01  0.10204560564E+01  0.10201860306E+01 0.  0.
     999903    2    3    3    0    0  0.18643277349E-01 -0.10810466420E+00  0.67916698499E-01  0.13054671130E+00  0.19889084496E-01 0.  0.
         14    1    1    2    0    0  0.11088128840E-01  0.11246643147E-01  0.17366417111E-01  0.23473943565E-01  0.00000000000E+00 0.  1.
     999901    1    3    3    0    0 -0.29731406189E-01  0.96858021057E-01 -0.85283115610E-01  0.88990934514E+00  0.88000000000E+00 0.  1.
        -11    1    4    4    0    0 -0.16249637131E-02 -0.22613586122E-03  0.11724122085E-02  0.20802201526E-02  0.51100000000E-03 0.  1.
         11    1    4    4    0    0  0.20268241062E-01 -0.10787852834E+00  0.66744286290E-01  0.12846649114E+00  0.51100000000E-03 0. -1.
</event>
<event>
 8    1  0.1177602E+005  0.1043930E+01  0.7957747E-01            NaN
         13   -1    0    0    0    0  0.00000000000E+00  0.00000000000E+00  0.74505805969E-08  0.10566000000E+00  0.10566000000E+00 0. -1.
     999900   -1    0    0    0    0 -0.00000000000E+00 -0.00000000000E+00 -0.74505805969E-08  0.93827000000E+00  0.93827000000E+00 0. -1.
     999902    2    1    2    0    0  0.21923322660E-01 -0.67282978177E-02 -0.18246402932E-02  0.10209249705E+01  0.10206657455E+01 0.  0.
     999903    2    3    3    0    0  0.74739143572E-01  0.10539365816E+00 -0.19207816212E-01  0.13207007870E+00  0.19488527981E-01 0.  0.
         14    1    1    2    0    0 -0.21923322660E-01  0.67282978177E-02  0.18246402932E-02  0.23005029454E-01  0.00000000000E+00 0. -1.
     999901    1    3    3    0    0 -0.52815820913E-01 -0.11212195598E+00  0.17383175919E-01  0.88885489184E+00  0.88000000000E+00 0.  1.
        -11    1    4    4    0    0  0.48448166820E-01  0.57453965210E-01 -0.37528230193E-02  0.75249769357E-01  0.51100000000E-03 0.  1.
         11    1    4    4    0    0  0.26290976752E-01  0.47939692948E-01 -0.15454993193E-01  0.56820309345E-01  0.51100000000E-03 0. -1.
</event>
<event>
 8    1  0.1177602E+005  0.1043930E+01  0.7957747E-01            NaN
         13   -1    0    0    0    0  0.00000000000E+00  0.00000000000E+00  0.74505805969E-08  0.10566000000E+00  0.10566000000E+00 0. -1.
     999900   -1    0    0    0    0 -0.00000000000E+00 -0.00000000000E+00 -0.74505805969E-08  0.93827000000E+00  0.93827000000E+00 0.  1.
     999902    2    1    2    0    0  0.23614188926E-02  0.23441385914E-01 -0.36225977567E-02  0.10200930940E+01  0.10198145529E+01 0.  0.
     999903    2    3    3    0    0 -0.12099363218E+00  0.44464458691E-01 -0.14776303777E-01  0.13117080079E+00  0.19258575024E-01 0.  0.
         14    1    1    2    0    0 -0.23614188926E-02 -0.23441385914E-01  0.36225977567E-02  0.23836905992E-01  0.00000000000E+00 0.  1.
     999901    1    3    3    0    0  0.12335505108E+00 -0.21023072777E-01  0.11153706020E-01  0.88892229321E+00  0.88000000000E+00 0.  1.
        -11    1    4    4    0    0 -0.10322238602E+00  0.42365451970E-01 -0.17876380437E-01  0.11300229464E+00  0.51100000000E-03 0. -1.
         11    1    4    4    0    0 -0.17771246167E-01  0.20990067211E-02  0.31000766596E-02  0.18168506153E-01  0.51100000000E-03 0.  1.
</event>
<event>
 8    1  0.1177602E+005  0.1043930E+01  0.7957747E-01            NaN
         13   -1    0    0    0    0  0.00000000000E+00  0.00000000000E+00  0.74505805969E-08  0.10566000000E+00  0.10566000000E+00 0.  1.
     999900   -1    0    0    0    0 -0.00000000000E+00 -0.00000000000E+00 -0.74505805969E-08  0.93827000000E+00  0.93827000000E+00 0.  1.
     999902    2    1    2    0    0 -0.12040277047E-01 -0.10008234034E-02 -0.20486830464E-01  0.10201459688E+01  0.10198686766E+01 0.  0.
     999903    2    3    3    0    0  0.64103820285E-01 -0.30507518944E-01  0.10360489363E+00  0.12769578830E+00  0.23070151239E-01 0.  0.
         14    1    1    2    0    0  0.12040277047E-01  0.10008234034E-02  0.20486830464E-01  0.23784031225E-01  0.00000000000E+00 0.  1.
     999901    1    3    3    0    0 -0.76144097331E-01  0.29506695540E-01 -0.12409172410E+00  0.89245018047E+00  0.88000000000E+00 0.  1.
        -11    1    4    4    0    0  0.42207055271E-01 -0.10771343222E-01  0.48444638251E-01  0.65150605873E-01  0.51100000000E-03 0.  1.
         11    1    4    4    0    0  0.21896765014E-01 -0.19736175722E-01  0.55160255381E-01  0.62545182427E-01  0.51100000000E-03 0. -1.
</event>
<event>
 8    1  0.1177602E+005  0.1043930E+01  0.7957747E-01            NaN
         13   -1    0    0    0    0  0.00000000000E+00  0.00000000000E+00  0.74505805969E-08  0.10566000000E+00  0.10566000000E+00 0.  1.
     999900   -1    0    0    0    0 -0.00000000000E+00 -0.00000000000E+00 -0.74505805969E-08  0.93827000000E+00  0.93827000000E+00 0.  1.
     999902    2    1    2    0    0  0.18874381568E-01 -0.10879278379E-01 -0.76285004468E-02  0.10208476475E+01  0.10205866570E+01 0.  0.
     999903    2    3    3    0    0 -0.78027133415E-01 -0.96322466260E-01 -0.37032601334E-01  0.13092908769E+00  0.20118682503E-01 0.  0.
         14    1    1    2    0    0 -0.18874381568E-01  0.10879278379E-01  0.76285004468E-02  0.23082352494E-01  0.00000000000E+00 0.  1.
     999901    1    3    3    0    0  0.96901514983E-01  0.85443187881E-01  0.29404100887E-01  0.88991855982E+00  0.88000000000E+00 0. -1.
        -11    1    4    4    0    0 -0.34097861128E-01 -0.40830299288E-01 -0.56200655227E-02  0.53494146698E-01  0.51100000000E-03 0.  1.
         11    1    4    4    0    0 -0.43929272287E-01 -0.55492166972E-01 -0.31412535811E-01  0.77434940989E-01  0.51100000000E-03 0. -1.
</event>
<event>
 8    1  0.1177602E+005  0.1043930E+01  0.7957747E-01            NaN
         13   -1    0    0    0    0  0.00000000000E+00  0.00000000000E+00  0.74505805969E-08  0.10566000000E+00  0.10566000000E+00 0.  1.
     999900   -1    0    0    0    0 -0.00000000000E+00 -0.00000000000E+00 -0.74505805969E-08  0.93827000000E+00  0.93827000000E+00 0.  1.
     999902    2    1    2    0    0 -0.29166578476E-02  0.22716982580E-01  0.51086147690E-02  0.10204637234E+01  0.10201938760E+01 0.  0.
     999903    2    3    3    0    0  0.64024307926E-01  0.14489736933E-01 -0.11080833059E+00  0.13030333414E+00  0.19784040976E-01 0.  0.
         14    1    1    2    0    0  0.29166578476E-02 -0.22716982580E-01 -0.51086147690E-02  0.23466276556E-01  0.00000000000E+00 0.  1.
     999901    1    3    3    0    0 -0.66940965774E-01  0.82272456473E-02  0.11591694536E+00  0.89016038931E+00  0.88000000000E+00 0. -1.
        -11    1    4    4    0    0  0.33628268923E-01 -0.19651176236E-02 -0.48584051730E-01  0.59121851810E-01  0.51100000000E-03 0. -1.
         11    1    4    4    0    0  0.30396039003E-01  0.16454854556E-01 -0.62224278860E-01  0.71181482327E-01  0.51100000000E-03 0.  1.
</event>
<event>
 8    1  0.1177602E+005  0.1043930E+01  0.7957747E-01            NaN
         13   -1    0    0    0    0  0.00000000000E+00  0.00000000000E+00  0.74505805969E-08  0.10566000000E+00  0.10566000000E+00 0.  1.
     999900   -1    0    0    0    0 -0.00000000000E+00 -0.00000000000E+00 -0.74505805969E-08  0.93827000000E+00  0.93827000000E+00 0. -1.
     999902    2    1    2    0    0 -0.24984671606E-01  0.72424577182E-03 -0.59373921181E-03  0.10189277826E+01  0.10186209871E+01 0.  0.
     999903    2    3    3    0    0  0.11439696170E+00  0.45999029201E-01 -0.19429352989E-01  0.12660955124E+00  0.21210921106E-01 0.  0.
         14    1    1    2    0    0  0.24984671606E-01 -0.72424577182E-03  0.59373921181E-03  0.25002217371E-01  0.00000000000E+00 0. -1.
     999901    1    3    3    0    0 -0.13938163331E+00 -0.45274783429E-01  0.18835613777E-01  0.89231823139E+00  0.88000000000E+00 0.  1.
        -11    1    4    4    0    0  0.31158384280E-01  0.18403895745E-01  0.22942889045E-02  0.36263937626E-01  0.51100000000E-03 0.  1.
         11    1    4    4    0    0  0.83238577422E-01  0.27595133456E-01 -0.21723641894E-01  0.90345613617E-01  0.51100000000E-03 0. -1.
</event>
<event>
 8    1  0.1177602E+005  0.1043930E+01  0.7957747E-01            NaN
         13   -1    0    0    0    0  0.00000000000E+00  0.00000000000E+00  0.74505805969E-08  0.10566000000E+00  0.10566000000E+00 0. -1.
     999900   -1    0    0    0    0 -0.00000000000E+00 -0.00000000000E+00 -0.74505805969E-08  0.93827000000E+00  0.93827000000E+00 0. -1.
     999902    2    1    2    0    0 -0.89500645209E-02  0.50485791140E-02 -0.20163262216E-01  0.10212992919E+01  0.10210485271E+01 0.  0.
     999903    2    3    3    0    0  0.11750056414E+00  0.30973017006E-04  0.50419380163E-01  0.12944905376E+00  0.20212869468E-01 0.  0.
         14    1    1    2    0    0  0.89500645209E-02 -0.50485791140E-02  0.20163262216E-01  0.22630708102E-01  0.00000000000E+00 0. -1.
     999901    1    3    3    0    0 -0.12645062866E+00  0.50176060970E-02 -0.70582642379E-01  0.89185023814E+00  0.88000000000E+00 0. -1.
        -11    1    4    4    0    0  0.54777333863E-01 -0.80691407894E-02  0.17031286701E-01  0.57930934620E-01  0.51100000000E-03 0. -1.
         11    1    4    4    0    0  0.62723230273E-01  0.81001138064E-02  0.33388093462E-01  0.71518119142E-01  0.51100000000E-03 0.  1.
</event>
<event>
 8    1  0.1177602E+005  0.1043930E+01  0.7957747E-01            NaN
         13   -1    0    0    0    0  0.00000000000E+00  0.00000000000E+00  0.74505805969E-08  0.10566000000E+00  0.10566000000E+00 0. -1.
     999900   -1    0    0    0    0 -0.00000000000E+00 -0.00000000000E+00 -0.74505805969E-08  0.93827000000E+00  0.93827000000E+00 0. -1.
     999902    2    1    2    0    0 -0.25678344875E-01  0.60386509405E-02  0.19169058195E-02  0.10174816120E+01  0.10171378046E+01 0.  0.
     999903    2    3    3    0    0 -0.10949274191E+00 -0.62693281102E-01 -0.25387630996E-01  0.13041088799E+00  0.21056112497E-01 0.  0.
         14    1    1    2    0    0  0.25678344875E-01 -0.60386509405E-02 -0.19169058195E-02  0.26448388016E-01  0.00000000000E+00 0.  1.
     999901    1    3    3    0    0  0.83814397033E-01  0.68731932043E-01  0.27304536816E-01  0.88707072399E+00  0.88000000000E+00 0. -1.
        -11    1    4    4    0    0 -0.56861540559E-01 -0.35942477686E-01 -0.23770995317E-01  0.71347164179E-01  0.51100000000E-03 0.  1.
         11    1    4    4    0    0 -0.52631201349E-01 -0.26750803416E-01 -0.16166356791E-02  0.59063723814E-01  0.51100000000E-03 0. -1.
</event>
<event>
 8    1  0.1177602E+005  0.1043930E+01  0.7957747E-01            NaN
         13   -1    0    0    0    0  0.00000000000E+00  0.00000000000E+00  0.74505805969E-08  0.10566000000E+00  0.10566000000E+00 0.  1.
     999900   -1    0    0    0    0 -0.00000000000E+00 -0.00000000000E+00 -0.74505805969E-08  0.93827000000E+00  0.93827000000E+00 0. -1.
     999902    2    1    2    0    0 -0.13614980217E-01  0.10114226315E-01 -0.16692862370E-01  0.10201325860E+01  0.10198549780E+01 0.  0.
     999903    2    3    3    0    0 -0.12014134581E+00 -0.44386598975E-01  0.21429441139E-01  0.13121666388E+00  0.18827607167E-01 0.  0.
         14    1    1    2    0    0  0.13614980217E-01 -0.10114226315E-01  0.16692862370E-01  0.23797414027E-01  0.00000000000E+00 0.  1.
     999901    1    3    3    0    0  0.10652636559E+00  0.54500825290E-01 -0.38122303509E-01  0.88891592209E+00  0.88000000000E+00 0. -1.
        -11    1    4    4    0    0 -0.60785292302E-01 -0.18993923984E-01  0.19583381903E-01  0.66628754125E-01  0.51100000000E-03 0.  1.
         11    1    4    4    0    0 -0.59356053506E-01 -0.25392674991E-01  0.18460592365E-02  0.64587909757E-01  0.51100000000E-03 0. -1.
</event>
<event>
 8    1  0.1177602E+005  0.1043930E+01  0.7957747E-01            NaN
         13   -1    0    0    0    0  0.00000000000E+00  0.00000000000E+00  0.74505805969E-08  0.10566000000E+00  0.10566000000E+00 0. -1.
     999900   -1    0    0    0    0 -0.00000000000E+00 -0.00000000000E+00 -0.74505805969E-08  0.93827000000E+00  0.93827000000E+00 0. -1.
     999902    2    1    2    0    0 -0.15748114768E-01 -0.94290440955E-02 -0.14437912190E-01  0.10205769852E+01  0.10203097664E+01 0.  0.
     999903    2    3    3    0    0 -0.66281998512E-02 -0.10085235421E-01  0.12709630744E+00  0.12922097398E+00  0.19973576156E-01 0.  0.
         14    1    1    2    0    0  0.15748114768E-01  0.94290440955E-02  0.14437912190E-01  0.23353014789E-01  0.00000000000E+00 0. -1.
     999901    1    3    3    0    0 -0.91199149170E-02  0.65619132550E-03 -0.14153421963E+00  0.89135601123E+00  0.88000000000E+00 0. -1.
        -11    1    4    4    0    0 -0.75305997442E-02 -0.14572756261E-01  0.68279781277E-01  0.70224388995E-01  0.51100000000E-03 0. -1.
         11    1    4    4    0    0  0.90239989298E-03  0.44875208397E-02  0.58816526163E-01  0.58996584983E-01  0.51100000000E-03 0.  1.
</event>
<event>
 8    1  0.1177602E+005  0.1043930E+01  0.7957747E-01            NaN
         13   -1    0    0    0    0  0.00000000000E+00  0.00000000000E+00  0.74505805969E-08  0.10566000000E+00  0.10566000000E+00 0.  1.
     999900   -1    0    0    0    0 -0.00000000000E+00 -0.00000000000E+00 -0.74505805969E-08  0.93827000000E+00  0.93827000000E+00 0. -1.
     999902    2    1    2    0    0 -0.21212541219E-01  0.12960066834E-01  0.48358708683E-02  0.10186056859E+01  0.10182908339E+01 0.  0.
     999903    2    3    3    0    0  0.85168208310E-02 -0.74765067601E-01 -0.10107709713E+00  0.12742832367E+00  0.18948523348E-01 0.  0.
         14    1    1    2    0    0  0.21212541219E-01 -0.12960066834E-01 -0.48358708683E-02  0.25324314094E-01  0.00000000000E+00 0. -1.
     999901    1    3    3    0    0 -0.29729362050E-01  0.87725134434E-01  0.10591296800E+00  0.89117736224E+00  0.88000000000E+00 0. -1.
        -11    1    4    4    0    0  0.13537244037E-01 -0.40350668274E-01 -0.60687364906E-01  0.74125911708E-01  0.51100000000E-03 0.  1.
         11    1    4    4    0    0 -0.50204232065E-02 -0.34414399326E-01 -0.40389732227E-01  0.53302411958E-01  0.51100000000E-03 0. -1.
</event>
<event>
 8    1  0.1177602E+005  0.1043930E+01  0.7957747E-01            NaN
         13   -1    0    0    0    0  0.00000000000E+00  0.00000000000E+00  0.74505805969E-08  0.10566000000E+00  0.10566000000E+00 0. -1.
     999900   -1    0    0    0    0 -0.00000000000E+00 -0.00000000000E+00 -0.74505805969E-08  0.93827000000E+00  0.93827000000E+00 0.  1.
     999902    2    1    2    0    0  0.50341993887E-02 -0.14425904741E-01 -0.18580291255E-01  0.10198742914E+01  0.10195905518E+01 0.  0.
     999903    2    3    3    0    0 -0.25542252939E-01 -0.17361751813E-01  0.12279243224E+00  0.12806165104E+00  0.19182490477E-01 0.  0.
         14    1    1    2    0    0 -0.50341993887E-02  0.14425904741E-01  0.18580291255E-01  0.24055708558E-01  0.00000000000E+00 0. -1.
     999901    1    3    3    0    0  0.30576452328E-01  0.29358470722E-02 -0.14137272349E+00  0.89181264040E+00  0.88000000000E+00 0.  1.
        -11    1    4    4    0    0 -0.14126763866E-01 -0.18737294402E-01  0.64356769230E-01  0.68503332223E-01  0.51100000000E-03 0.  1.
         11    1    4    4    0    0 -0.11415489074E-01  0.13755425890E-02  0.58435663007E-01  0.59558318817E-01  0.51100000000E-03 0. -1.
</event>
<event>
 8    1  0.1177602E+005  0.1043930E+01  0.7957747E-01            NaN
         13   -1    0    0    0    0  0.00000000000E+00  0.00000000000E+00  0.74505805969E-08  0.10566000000E+00  0.10566000000E+00 0. -1.
     999900   -1    0    0    0    0 -0.00000000000E+00 -0.00000000000E+00 -0.74505805969E-08  0.93827000000E+00  0.93827000000E+00 0.  1.
     999902    2    1    2    0    0 -0.98047569468E-02  0.21864166008E-01  0.18171190721E-02  0.10198992502E+01  0.10196161060E+01 0.  0.
     999903    2    3    3    0    0  0.11291246324E+00  0.28436665357E-01 -0.52530916775E-01  0.12969903515E+00  0.22460503337E-01 0.  0.
         14    1    1    2    0    0  0.98047569468E-02 -0.21864166008E-01 -0.18171190721E-02  0.24030749796E-01  0.00000000000E+00 0.  1.
     999901    1    3    3    0    0 -0.12271722019E+00 -0.65724993486E-02  0.54348035847E-01  0.89020021505E+00  0.88000000000E+00 0. -1.
        -11    1    4    4    0    0  0.23677640530E-01 -0.17998195189E-02 -0.16036995153E-01  0.28658617307E-01  0.51100000000E-03 0. -1.
         11    1    4    4    0    0  0.89234822711E-01  0.30236484876E-01 -0.36493921621E-01  0.10104041785E+00  0.51100000000E-03 0.  1.
</event>
<event>
 8    1  0.1177602E+005  0.1043930E+01  0.7957747E-01            NaN
         13   -1    0    0    0    0  0.00000000000E+00  0.00000000000E+00  0.74505805969E-08  0.10566000000E+00  0.10566000000E+00 0. -1.
     999900   -1    0    0    0    0 -0.00000000000E+00 -0.00000000000E+00 -0.74505805969E-08  0.93827000000E+00  0.93827000000E+00 0.  1.
     999902    2    1    2    0    0 -0.30302622615E-02  0.80507182489E-02  0.20715738396E-01  0.10214992539E+01  0.10212529497E+01 0.  0.
     999903    2    3    3    0    0  0.72417265344E-02  0.10719686563E+00  0.77416870292E-01  0.13405883862E+00  0.20851613886E-01 0.  0.
         14    1    1    2    0    0  0.30302622615E-02 -0.80507182489E-02 -0.20715738396E-01  0.22430746109E-01  0.00000000000E+00 0.  1.
     999901    1    3    3    0    0 -0.10271988796E-01 -0.99146147386E-01 -0.56701131896E-01  0.88744041527E+00  0.88000000000E+00 0.  1.
        -11    1    4    4    0    0  0.12900036607E-01  0.51382372908E-01  0.32150789884E-01  0.61971716140E-01  0.51100000000E-03 0. -1.
         11    1    4    4    0    0 -0.56583100728E-02  0.55814492726E-01  0.45266080409E-01  0.72087122482E-01  0.51100000000E-03 0.  1.
</event>
<event>
 8    1  0.1177602E+005  0.1043930E+01  0.7957747E-01            NaN
         13   -1    0    0    0    0  0.00000000000E+00  0.00000000000E+00  0.74505805969E-08  0.10566000000E+00  0.10566000000E+00 0. -1.
     999900   -1    0    0    0    0 -0.00000000000E+00 -0.00000000000E+00 -0.74505805969E-08  0.93827000000E+00  0.93827000000E+00 0. -1.
     999902    2    1    2    0    0 -0.19473179039E-01  0.10258682838E-01  0.29476765072E-03  0.10219179087E+01  0.10216808112E+01 0.  0.
     999903    2    3    3    0    0 -0.55461873720E-01  0.26601626733E-01 -0.11647519175E+00  0.13332491898E+00  0.20625172608E-01 0.  0.
         14    1    1    2    0    0  0.19473179039E-01 -0.10258682838E-01 -0.29476765072E-03  0.22012091301E-01  0.00000000000E+00 0.  1.
     999901    1    3    3    0    0  0.35988694681E-01 -0.16342943895E-01  0.11676995941E+00  0.88859298972E+00  0.88000000000E+00 0.  1.
        -11    1    4    4    0    0 -0.24688204155E-01  0.34291679040E-02 -0.32733374206E-01  0.41146099752E-01  0.51100000000E-03 0.  1.
         11    1    4    4    0    0 -0.30773669565E-01  0.23172458829E-01 -0.83741817549E-01  0.92178819227E-01  0.51100000000E-03 0. -1.
</event>
<event>
 8    1  0.1177602E+005  0.1043930E+01  0.7957747E-01            NaN
         13   -1    0    0    0    0  0.00000000000E+00  0.00000000000E+00  0.74505805969E-08  0.10566000000E+00  0.10566000000E+00 0. -1.
     999900   -1    0    0    0    0 -0.00000000000E+00 -0.00000000000E+00 -0.74505805969E-08  0.93827000000E+00  0.93827000000E+00 0.  1.
     999902    2    1    2    0    0  0.10119144906E-01 -0.34084160128E-02 -0.20280906177E-01  0.10210099313E+01  0.10207526391E+01 0.  0.
     999903    2    3    3    0    0 -0.12448345507E+00  0.23865354418E-01  0.17488618260E-01  0.12955704111E+00  0.20334438846E-01 0.  0.
         14    1    1    2    0    0 -0.10119144906E-01  0.34084160128E-02  0.20280906177E-01  0.22920068689E-01  0.00000000000E+00 0.  1.
     999901    1    3    3    0    0  0.13460259998E+00 -0.27273770431E-01 -0.37769524437E-01  0.89145289020E+00  0.88000000000E+00 0. -1.
        -11    1    4    4    0    0 -0.63475163571E-01  0.18438794905E-02  0.81294920479E-02  0.64022230857E-01  0.51100000000E-03 0. -1.
         11    1    4    4    0    0 -0.61008291503E-01  0.22021474928E-01  0.93591262116E-02  0.65534810251E-01  0.51100000000E-03 0.  1.
</event>
<event>
 8    1  0.1177602E+005  0.1043930E+01  0.7957747E-01            NaN
         13   -1    0    0    0    0  0.00000000000E+00  0.00000000000E+00  0.74505805969E-08  0.10566000000E+00  0.10566000000E+00 0. -1.
     999900   -1    0    0    0    0 -0.00000000000E+00 -0.00000000000E+00 -0.74505805969E-08  0.93827000000E+00  0.93827000000E+00 0.  1.
     999902    2    1    2    0    0  0.22375402319E-01  0.80884785441E-02 -0.57271164595E-02  0.10194579348E+01  0.10191641667E+01 0.  0.
     999903    2    3    3    0    0  0.24895741554E-01  0.63919161863E-01  0.10884816195E+00  0.13027240197E+00  0.20433285433E-01 0.  0.
         14    1    1    2    0    0 -0.22375402319E-01 -0.80884785441E-02  0.57271164595E-02  0.24472065238E-01  0.00000000000E+00 0. -1.
     999901    1    3    3    0    0 -0.25203392351E-02 -0.55830683319E-01 -0.11457527841E+00  0.88918553280E+00  0.88000000000E+00 0.  1.
        -11    1    4    4    0    0  0.27552812867E-01  0.47353927245E-01  0.82974914461E-01  0.99431632156E-01  0.51100000000E-03 0.  1.
         11    1    4    4    0    0 -0.26570713131E-02  0.16565234618E-01  0.25873247488E-01  0.30840769810E-01  0.51100000000E-03 0. -1.
</event>
<event>
 8    1  0.1177602E+005  0.1043930E+01  0.7957747E-01            NaN
         13   -1    0    0    0    0  0.00000000000E+00  0.00000000000E+00  0.74505805969E-08  0.10566000000E+00  0.10566000000E+00 0.  1.
     999900   -1    0    0    0    0 -0.00000000000E+00 -0.00000000000E+00 -0.74505805969E-08  0.93827000000E+00  0.93827000000E+00 0. -1.
     999902    2    1    2    0    0 -0.12428082619E-01  0.14476012750E-01 -0.13623845735E-01  0.10204859953E+01  0.10202166659E+01 0.  0.
     999903    2    3    3    0    0 -0.71253941531E-01 -0.71410253354E-01  0.78750524571E-01  0.12954831138E+00  0.20113960150E-01 0.  0.
         14    1    1    2    0    0  0.12428082619E-01 -0.14476012750E-01  0.13623845735E-01  0.23444004678E-01  0.00000000000E+00 0.  1.
     999901    1    3    3    0    0  0.58825858912E-01  0.85886266104E-01 -0.92374370307E-01  0.89093768394E+00  0.88000000000E+00 0. -1.
        -11    1    4    4    0    0 -0.33767320058E-01 -0.44368628373E-01  0.34572989137E-01  0.65607619881E-01  0.51100000000E-03 0.  1.
         11    1    4    4    0    0 -0.37486621472E-01 -0.27041624981E-01  0.44177535434E-01  0.63940691497E-01  0.51100000000E-03 0. -1.
</event>
<event>
 8    1  0.1177602E+005  0.1043930E+01  0.7957747E-01            NaN
         13   -1    0    0    0    0  0.00000000000E+00  0.00000000000E+00  0.74505805969E-08  0.10566000000E+00  0.10566000000E+00 0. -1.
     999900   -1    0    0    0    0 -0.00000000000E+00 -0.00000000000E+00 -0.74505805969E-08  0.93827000000E+00  0.93827000000E+00 0. -1.
     999902    2    1    2    0    0 -0.18562640319E-01  0.96825909268E-03 -0.14443524322E-01  0.10203901500E+01  0.10201185881E+01 0.  0.
     999903    2    3    3    0    0 -0.13454645933E-01  0.12810904686E+00  0.11499062591E-01  0.13085999915E+00  0.19978877681E-01 0.  0.
         14    1    1    2    0    0  0.18562640319E-01 -0.96825909268E-03  0.14443524322E-01  0.23539849960E-01  0.00000000000E+00 0.  1.
     999901    1    3    3    0    0 -0.51079943864E-02 -0.12714078777E+00 -0.25942586913E-01  0.88953015089E+00  0.88000000000E+00 0. -1.
        -11    1    4    4    0    0 -0.97635332985E-02  0.27746089962E-01 -0.21881500820E-02  0.29499512071E-01  0.51100000000E-03 0.  1.
         11    1    4    4    0    0 -0.36911126342E-02  0.10036295690E+00  0.13687212673E-01  0.10136048708E+00  0.51100000000E-03 0. -1.
</event>
<event>
 8    1  0.1177602E+005  0.1043930E+01  0.7957747E-01            NaN
         13   -1    0    0    0    0  0.00000000000E+00  0.00000000000E+00  0.74505805969E-08  0.10566000000E+00  0.10566000000E+00 0. -1.
     999900   -1    0    0    0    0 -0.00000000000E+00 -0.00000000000E+00 -0.74505805969E-08  0.93827000000E+00  0.93827000000E+00 0. -1.
     999902    2    1    2    0    0  0.19421269988E-01  0.13227531381E-01 -0.62150095093E-02  0.10196240407E+01  0.10193342949E+01 0.  0.
     999903    2    3    3    0    0 -0.11747297690E+00 -0.30195546540E-01  0.34675320061E-01  0.12704484669E+00  0.15044730542E-01 0.  0.
         14    1    1    2    0    0 -0.19421269988E-01 -0.13227531381E-01  0.62150095093E-02  0.24305959302E-01  0.00000000000E+00 0. -1.
     999901    1    3    3    0    0  0.13689424688E+00  0.43423077921E-01 -0.40890329570E-01  0.89257919401E+00  0.88000000000E+00 0.  1.
        -11    1    4    4    0    0 -0.73902094982E-01 -0.11547312387E-01  0.22451311571E-01  0.78097263578E-01  0.51100000000E-03 0.  1.
         11    1    4    4    0    0 -0.43570881914E-01 -0.18648234153E-01  0.12224008490E-01  0.48947583111E-01  0.51100000000E-03 0. -1.
</event>
<event>
 8    1  0.1177602E+005  0.1043930E+01  0.7957747E-01            NaN
         13   -1    0    0    0    0  0.00000000000E+00  0.00000000000E+00  0.74505805969E-08  0.10566000000E+00  0.10566000000E+00 0.  1.
     999900   -1    0    0    0    0 -0.00000000000E+00 -0.00000000000E+00 -0.74505805969E-08  0.93827000000E+00  0.93827000000E+00 0. -1.
     999902    2    1    2    0    0 -0.89085289547E-02 -0.18071894887E-01  0.11242628988E-01  0.10208572459E+01  0.10205964749E+01 0.  0.
     999903    2    3    3    0    0  0.10483006479E+00 -0.36576999676E-01  0.67819658931E-01  0.13154297814E+00  0.19412098605E-01 0.  0.
         14    1    1    2    0    0  0.89085289547E-02  0.18071894887E-01 -0.11242628988E-01  0.23072754051E-01  0.00000000000E+00 0.  1.
     999901    1    3    3    0    0 -0.11373859374E+00  0.18505104789E-01 -0.56577029943E-01  0.88931426781E+00  0.88000000000E+00 0. -1.
        -11    1    4    4    0    0  0.88645597850E-01 -0.37614706940E-01  0.55278256556E-01  0.11103537709E+00  0.51100000000E-03 0.  1.
         11    1    4    4    0    0  0.16184466937E-01  0.10377072644E-02  0.12541402374E-01  0.20507601052E-01  0.51100000000E-03 0. -1.
</event>
<event>
 8    1  0.1177602E+005  0.1043930E+01  0.7957747E-01            NaN
         13   -1    0    0    0    0  0.00000000000E+00  0.00000000000E+00  0.74505805969E-08  0.10566000000E+00  0.10566000000E+00 0. -1.
     999900   -1    0    0    0    0 -0.00000000000E+00 -0.00000000000E+00 -0.74505805969E-08  0.93827000000E+00  0.93827000000E+00 0. -1.
     999902    2    1    2    0    0  0.79078420303E-02  0.22223103074E-01 -0.21688587381E-02  0.10202423614E+01  0.10199673385E+01 0.  0.
     999903    2    3    3    0    0  0.31945921552E-01 -0.11629961230E+00  0.33732182754E-01  0.12835937760E+00  0.28144767544E-01 0.  0.
         14    1    1    2    0    0 -0.79078420303E-02 -0.22223103074E-01  0.21688587381E-02  0.23687638634E-01  0.00000000000E+00 0. -1.
     999901    1    3    3    0    0 -0.24038079521E-01  0.13852271538E+00 -0.35901041493E-01  0.89188298376E+00  0.88000000000E+00 0.  1.
        -11    1    4    4    0    0  0.34736357203E-03 -0.49460753934E-01  0.81896079167E-02  0.50137985999E-01  0.51100000000E-03 0. -1.
         11    1    4    4    0    0  0.31598557980E-01 -0.66838858369E-01  0.25542574838E-01  0.78221391606E-01  0.51100000000E-03 0.  1.
</event>
<event>
 8    1  0.1177602E+005  0.1043930E+01  0.7957747E-01            NaN
         13   -1    0    0    0    0  0.00000000000E+00  0.00000000000E+00  0.74505805969E-08  0.10566000000E+00  0.10566000000E+00 0.  1.
     999900   -1    0    0    0    0 -0.00000000000E+00 -0.00000000000E+00 -0.74505805969E-08  0.93827000000E+00  0.93827000000E+00 0. -1.
     999902    2    1    2    0    0 -0.14900254293E-01  0.17515030097E-01  0.71453466149E-02  0.10198499287E+01  0.10195656071E+01 0.  0.
     999903    2    3    3    0    0 -0.82425657129E-01  0.10220812677E+00 -0.89210991285E-02  0.13306318354E+00  0.19640129152E-01 0.  0.
         14    1    1    2    0    0  0.14900254293E-01 -0.17515030097E-01 -0.71453466149E-02  0.24080071336E-01  0.00000000000E+00 0. -1.
     999901    1    3    3    0    0  0.67525402836E-01 -0.84693096670E-01  0.16066445743E-01  0.88678674513E+00  0.88000000000E+00 0.  1.
        -11    1    4    4    0    0 -0.43838425935E-01  0.38849661811E-01 -0.38351278112E-02  0.58703263432E-01  0.51100000000E-03 0.  1.
         11    1    4    4    0    0 -0.38587231195E-01  0.63358464957E-01 -0.50859713173E-02  0.74359920106E-01  0.51100000000E-03 0. -1.
</event>
<event>
 8    1  0.1177602E+005  0.1043930E+01  0.7957747E-01            NaN
         13   -1    0    0    0    0  0.00000000000E+00  0.00000000000E+00  0.74505805969E-08  0.10566000000E+00  0.10566000000E+00 0.  1.
     999900   -1    0    0    0    0 -0.00000000000E+00 -0.00000000000E+00 -0.74505805969E-08  0.93827000000E+00  0.93827000000E+00 0. -1.
     999902    2    1    2    0    0  0.18121744037E-01  0.15062078835E-01 -0.37040224500E-02  0.10200766227E+01  0.10197976920E+01 0.  0.
     999903    2    3    3    0    0 -0.81711019637E-02 -0.12432433135E+00  0.23676896828E-01  0.12829772644E+00  0.19401156984E-01 0.  0.
         14    1    1    2    0    0 -0.18121744037E-01 -0.15062078835E-01  0.37040224500E-02  0.23853377289E-01  0.00000000000E+00 0. -1.
     999901    1    3    3    0    0  0.26292846000E-01  0.13938641019E+00 -0.27380919278E-01  0.89177889627E+00  0.88000000000E+00 0. -1.
        -11    1    4    4    0    0 -0.14057505281E-01 -0.68269715501E-01  0.11819409783E-01  0.70698847783E-01  0.51100000000E-03 0. -1.
         11    1    4    4    0    0  0.58864033172E-02 -0.56054615853E-01  0.11857487044E-01  0.57598878656E-01  0.51100000000E-03 0.  1.
</event>
<event>
 8    1  0.1177602E+005  0.1043930E+01  0.7957747E-01            NaN
         13   -1    0    0    0    0  0.00000000000E+00  0.00000000000E+00  0.74505805969E-08  0.10566000000E+00  0.10566000000E+00 0. -1.
     999900   -1    0    0    0    0 -0.00000000000E+00 -0.00000000000E+00 -0.74505805969E-08  0.93827000000E+00  0.93827000000E+00 0.  1.
     999902    2    1    2    0    0 -0.16597788547E-01 -0.18053145546E-01 -0.27693017929E-02  0.10192506223E+01  0.10189517945E+01 0.  0.
     999903    2    3    3    0    0  0.95963884042E-01 -0.17860639528E-01  0.80197688194E-01  0.12820983281E+00  0.21863726874E-01 0.  0.
         14    1    1    2    0    0  0.16597788547E-01  0.18053145546E-01  0.27693017929E-02  0.24679377650E-01  0.00000000000E+00 0.  1.
     999901    1    3    3    0    0 -0.11256167259E+00 -0.19250601857E-03 -0.82966989987E-01  0.89104078954E+00  0.88000000000E+00 0.  1.
        -11    1    4    4    0    0  0.41169789468E-01 -0.98891246303E-02  0.48586365219E-01  0.64448757606E-01  0.51100000000E-03 0.  1.
         11    1    4    4    0    0  0.54794094574E-01 -0.79715148976E-02  0.31611322975E-01  0.63761075205E-01  0.51100000000E-03 0. -1.
</event>
<event>
 8    1  0.1177602E+005  0.1043930E+01  0.7957747E-01            NaN
         13   -1    0    0    0    0  0.00000000000E+00  0.00000000000E+00  0.74505805969E-08  0.10566000000E+00  0.10566000000E+00 0.  1.
     999900   -1    0    0    0    0 -0.00000000000E+00 -0.00000000000E+00 -0.74505805969E-08  0.93827000000E+00  0.93827000000E+00 0.  1.
     999902    2    1    2    0    0 -0.45132791765E-03 -0.14683833116E-01  0.18235747948E-01  0.10205128876E+01  0.10202441828E+01 0.  0.
     999903    2    3    3    0    0  0.54686961014E-02  0.64374178771E-01  0.11305608357E+00  0.13187566575E+00  0.20870353526E-01 0.  0.
         14    1    1    2    0    0  0.45132791765E-03  0.14683833116E-01 -0.18235747948E-01  0.23417112442E-01  0.00000000000E+00 0. -1.
     999901    1    3    3    0    0 -0.59200240191E-02 -0.79058011887E-01 -0.94820335622E-01  0.88863722180E+00  0.88000000000E+00 0.  1.
        -11    1    4    4    0    0 -0.62177049547E-02  0.93171702610E-02  0.13910357053E-01  0.17866971509E-01  0.51100000000E-03 0.  1.
         11    1    4    4    0    0  0.11686401056E-01  0.55057008510E-01  0.99145726518E-01  0.11400869424E+00  0.51100000000E-03 0. -1.
</event>
<event>
 8    1  0.1177602E+005  0.1043930E+01  0.7957747E-01            NaN
         13   -1    0    0    0    0  0.00000000000E+00  0.00000000000E+00  0.74505805969E-08  0.10566000000E+00  0.10566000000E+00 0.  1.
     999900   -1    0    0    0    0 -0.00000000000E+00 -0.00000000000E+00 -0.74505805969E-08  0.93827000000E+00  0.93827000000E+00 0. -1.
     999902    2    1    2    0    0 -0.11001853459E-01 -0.12911881103E-01 -0.95013829845E-02  0.10244869104E+01  0.10243023948E+01 0.  0.
     999903    2    3    3    0    0  0.83772201496E-01 -0.10335107555E+00 -0.10472791453E-01  0.13478903305E+00  0.18951979066E-01 0.  0.
         14    1    1    2    0    0  0.11001853459E-01  0.12911881103E-01  0.95013829845E-02  0.19443089563E-01  0.00000000000E+00 0. -1.
     999901    1    3    3    0    0 -0.94774054956E-01  0.90439194445E-01  0.97140846800E-03  0.88969787738E+00  0.88000000000E+00 0.  1.
        -11    1    4    4    0    0  0.26049995139E-01 -0.22995080330E-01  0.32448102120E-02  0.34902233173E-01  0.51100000000E-03 0. -1.
         11    1    4    4    0    0  0.57722206358E-01 -0.80355995217E-01 -0.13717601665E-01  0.99886799882E-01  0.51100000000E-03 0.  1.
</event>
<event>
 8    1  0.1177602E+005  0.1043930E+01  0.7957747E-01            NaN
         13   -1    0    0    0    0  0.00000000000E+00  0.00000000000E+00  0.74505805969E-08  0.10566000000E+00  0.10566000000E+00 0.  1.
     999900   -1    0    0    0    0 -0.00000000000E+00 -0.00000000000E+00 -0.74505805969E-08  0.93827000000E+00  0.93827000000E+00 0.  1.
     999902    2    1    2    0    0 -0.28484330476E-02  0.20032364601E-01  0.12123344644E-01  0.10203421920E+01  0.10200695094E+01 0.  0.
     999903    2    3    3    0    0 -0.75751957280E-01  0.70778790667E-01  0.81196080203E-01  0.13317751368E+00  0.19885936490E-01 0.  0.
         14    1    1    2    0    0  0.28484330476E-02 -0.20032364601E-01 -0.12123344644E-01  0.23587808031E-01  0.00000000000E+00 0. -1.
     999901    1    3    3    0    0  0.72903524232E-01 -0.50746426066E-01 -0.69072735559E-01  0.88716467829E+00  0.88000000000E+00 0.  1.
        -11    1    4    4    0    0 -0.36531052105E-01  0.32676606658E-01  0.26019538856E-01  0.55493746619E-01  0.51100000000E-03 0.  1.
         11    1    4    4    0    0 -0.39220905175E-01  0.38102184009E-01  0.55176541347E-01  0.77683767062E-01  0.51100000000E-03 0. -1.
</event>
<event>
 7    1  0.1177602E+005  0.1043930E+01  0.7957747E-01            NaN
         13   -1    0    0    0    0  0.00000000000E+00  0.00000000000E+00  0.74505805969E-08  0.10566000000E+00  0.10566000000E+00 0.  1.
     999900   -1    0    0    0    0 -0.00000000000E+00 -0.00000000000E+00 -0.74505805969E-08  0.93827000000E+00  0.93827000000E+00 0. -1.
     999903    2    1    2    0    0  0.46120413074E-01  0.40370168340E-01 -0.89789902995E-01  0.11005742348E+00  0.17133790887E-01 0.  0.
         14    1    1    2    0    0  0.35662185615E-01  0.23336811243E-01  0.12543121664E-01  0.44426660272E-01  0.00000000000E+00 0. -1.
     999901    1    1    2    0    0 -0.81782598690E-01 -0.63706979583E-01  0.77246781332E-01  0.88944591624E+00  0.88000000000E+00 0.  1.
        -11    1    3    3    0    0  0.18149509688E-01  0.16121856458E-01 -0.21753366884E-01  0.32600445540E-01  0.51100000000E-03 0. -1.
         11    1    3    3    0    0  0.27970903386E-01  0.24248311882E-01 -0.68036536111E-01  0.77456977945E-01  0.51100000000E-03 0.  1.
</event>
<event>
 8    1  0.1177602E+005  0.1043930E+01  0.7957747E-01            NaN
         13   -1    0    0    0    0  0.00000000000E+00  0.00000000000E+00  0.74505805969E-08  0.10566000000E+00  0.10566000000E+00 0.  1.
     999900   -1    0    0    0    0 -0.00000000000E+00 -0.00000000000E+00 -0.74505805969E-08  0.93827000000E+00  0.93827000000E+00 0.  1.
     999902    2    1    2    0    0 -0.17728463345E-01  0.11716181881E-01  0.10830225404E-01  0.10200791905E+01  0.10198003206E+01 0.  0.
     999903    2    3    3    0    0  0.15808805127E-01 -0.80276405903E-01 -0.96281933181E-01  0.12819332389E+00  0.21658669586E-01 0.  0.
         14    1    1    2    0    0  0.17728463345E-01 -0.11716181881E-01 -0.10830225404E-01  0.23850809478E-01  0.00000000000E+00 0.  1.
     999901    1    3    3    0    0 -0.33537268472E-01  0.91992587784E-01  0.10711215859E+00  0.89188586663E+00  0.88000000000E+00 0. -1.
        -11    1    4    4    0    0 -0.13143295701E-02 -0.32535880860E-01 -0.26846470391E-01  0.42205510292E-01  0.51100000000E-03 0.  1.
         11    1    4    4    0    0  0.17123134698E-01 -0.47740525043E-01 -0.69435462790E-01  0.85987813597E-01  0.51100000000E-03 0. -1.
</event>
<event>
 8    1  0.1177602E+005  0.1043930E+01  0.7957747E-01            NaN
         13   -1    0    0    0    0  0.00000000000E+00  0.00000000000E+00  0.74505805969E-08  0.10566000000E+00  0.10566000000E+00 0.  1.
     999900   -1    0    0    0    0 -0.00000000000E+00 -0.00000000000E+00 -0.74505805969E-08  0.93827000000E+00  0.93827000000E+00 0. -1.
     999902    2    1    2    0    0 -0.40898331124E-02  0.15008513202E-01 -0.16813042561E-01  0.10210245290E+01  0.10207675681E+01 0.  0.
     999903    2    3    3    0    0  0.12035719351E+00 -0.11185322570E-01  0.42945121174E-01  0.12987683211E+00  0.20316067917E-01 0.  0.
         14    1    1    2    0    0  0.40898331124E-02 -0.15008513202E-01  0.16813042561E-01  0.22905471040E-01  0.00000000000E+00 0.  1.
     999901    1    3    3    0    0 -0.12444702662E+00  0.26193835772E-01 -0.59758163736E-01  0.89114769685E+00  0.88000000000E+00 0. -1.
        -11    1    4    4    0    0  0.14619585709E-01 -0.36053553282E-02  0.12513549604E-01  0.19585221929E-01  0.51100000000E-03 0. -1.
         11    1    4    4    0    0  0.10573760780E+00 -0.75799672417E-02  0.30431571570E-01  0.11029161018E+00  0.51100000000E-03 0.  1.
</event>
<event>
 8    1  0.1177602E+005  0.1043930E+01  0.7957747E-01            NaN
         13   -1    0    0    0    0  0.00000000000E+00  0.00000000000E+00  0.74505805969E-08  0.10566000000E+00  0.10566000000E+00 0. -1.
     999900   -1    0    0    0    0 -0.00000000000E+00 -0.00000000000E+00 -0.74505805969E-08  0.93827000000E+00  0.93827000000E+00 0.  1.
     999902    2    1    2    0    0  0.72358150282E-02 -0.25954504159E-02  0.22406972804E-01  0.10202410614E+01  0.10199660080E+01 0.  0.
     999903    2    3    3    0    0 -0.12382917886E+00  0.64904032270E-02  0.35092915649E-01  0.13039752543E+00  0.19905050549E-01 0.  0.
         14    1    1    2    0    0 -0.72358150282E-02  0.25954504159E-02 -0.22406972804E-01  0.23688938605E-01  0.00000000000E+00 0.  1.
     999901    1    3    3    0    0  0.13106499389E+00 -0.90858536430E-02 -0.12685942845E-01  0.88984353597E+00  0.88000000000E+00 0.  1.
        -11    1    4    4    0    0 -0.84268324408E-01 -0.49093500381E-02  0.23497110744E-01  0.87622072280E-01  0.51100000000E-03 0. -1.
         11    1    4    4    0    0 -0.39560854453E-01  0.11399753265E-01  0.11595804904E-01  0.42775453147E-01  0.51100000000E-03 0.  1.
</event>
<event>
 8    1  0.1177602E+005  0.1043930E+01  0.7957747E-01            NaN
         13   -1    0    0    0    0  0.00000000000E+00  0.00000000000E+00  0.74505805969E-08  0.10566000000E+00  0.10566000000E+00 0.  1.
     999900   -1    0    0    0    0 -0.00000000000E+00 -0.00000000000E+00 -0.74505805969E-08  0.93827000000E+00  0.93827000000E+00 0. -1.
     999902    2    1    2    0    0 -0.26359128254E-02  0.17700000110E-03 -0.23328459657E-01  0.10204524278E+01  0.10201823176E+01 0.  0.
     999903    2    3    3    0    0 -0.76242503562E-01 -0.68796111278E-01 -0.81580010413E-01  0.13277655035E+00  0.20699998732E-01 0.  0.
         14    1    1    2    0    0  0.26359128254E-02 -0.17700000110E-03  0.23328459657E-01  0.23477572178E-01  0.00000000000E+00 0.  1.
     999901    1    3    3    0    0  0.73606590737E-01  0.68973111279E-01  0.58251550757E-01  0.88767587747E+00  0.88000000000E+00 0.  1.
        -11    1    4    4    0    0 -0.40444781051E-01 -0.24141349635E-01 -0.30955776422E-01  0.56365825563E-01  0.51100000000E-03 0.  1.
         11    1    4    4    0    0 -0.35797722511E-01 -0.44654761643E-01 -0.50624233991E-01  0.76410724788E-01  0.51100000000E-03 0. -1.
</event>
<event>
 8    1  0.1183312E+005  0.1043930E+01  0.7957747E-01            NaN
         13   -1    0    0    0    0  0.00000000000E+00  0.00000000000E+00  0.74505805969E-08  0.10566000000E+00  0.10566000000E+00 0.  1.
     999900   -1    0    0    0    0 -0.00000000000E+00 -0.00000000000E+00 -0.74505805969E-08  0.93827000000E+00  0.93827000000E+00 0. -1.
     999902    2    1    2    0    0 -0.78496391075E-02  0.21764686388E-01  0.32545465966E-02  0.10205652727E+01  0.10202977827E+01 0.  0.
     999903    2    3    3    0    0  0.10098962979E+00 -0.12815872926E-01 -0.77409931067E-01  0.12952736135E+00  0.20539912024E-01 0.  0.
         14    1    1    2    0    0  0.78496391075E-02 -0.21764686388E-01 -0.32545465966E-02  0.23364727288E-01  0.00000000000E+00 0. -1.
     999901    1    3    3    0    0 -0.10883926889E+00  0.34580559314E-01  0.80664477664E-01  0.89103791137E+00  0.88000000000E+00 0. -1.
        -11    1    4    4    0    0  0.47083182151E-01 -0.42568769801E-02 -0.23451032119E-01  0.52774606314E-01  0.51100000000E-03 0.  1.
         11    1    4    4    0    0  0.53906447635E-01 -0.85589959458E-02 -0.53958898948E-01  0.76752755031E-01  0.51100000000E-03 0. -1.
</event>
<event>
 8    1  0.1177602E+005  0.1043930E+01  0.7957747E-01            NaN
         13   -1    0    0    0    0  0.00000000000E+00  0.00000000000E+00  0.74505805969E-08  0.10566000000E+00  0.10566000000E+00 0. -1.
     999900   -1    0    0    0    0 -0.00000000000E+00 -0.00000000000E+00 -0.74505805969E-08  0.93827000000E+00  0.93827000000E+00 0.  1.
     999902    2    1    2    0    0 -0.13914291746E-01 -0.16082115870E-01 -0.84583042801E-02  0.10210436530E+01  0.10207871260E+01 0.  0.
     999903    2    3    3    0    0 -0.11216083315E+00  0.65337396183E-02  0.66830486144E-01  0.13209356346E+00  0.18964529563E-01 0.  0.
         14    1    1    2    0    0  0.13914291746E-01  0.16082115870E-01  0.84583042801E-02  0.22886346955E-01  0.00000000000E+00 0.  1.
     999901    1    3    3    0    0  0.98246541405E-01 -0.22615855489E-01 -0.75288790424E-01  0.88895008959E+00  0.88000000000E+00 0. -1.
        -11    1    4    4    0    0 -0.53478547374E-01  0.35888068204E-02  0.42875848297E-01  0.68639886741E-01  0.51100000000E-03 0. -1.
         11    1    4    4    0    0 -0.58682285777E-01  0.29449327979E-02  0.23954637847E-01  0.63453676714E-01  0.51100000000E-03 0.  1.
</event>
<event>
 8    1  0.1177602E+005  0.1043930E+01  0.7957747E-01            NaN
         13   -1    0    0    0    0  0.00000000000E+00  0.00000000000E+00  0.74505805969E-08  0.10566000000E+00  0.10566000000E+00 0. -1.
     999900   -1    0    0    0    0 -0.00000000000E+00 -0.00000000000E+00 -0.74505805969E-08  0.93827000000E+00  0.93827000000E+00 0.  1.
     999902    2    1    2    0    0  0.17442136863E-01 -0.11036059254E-01 -0.69923749464E-02  0.10221374313E+01  0.10219050898E+01 0.  0.
     999903    2    3    3    0    0  0.54174022926E-01  0.10830780153E+00  0.47590304470E-01  0.13164798307E+00  0.20023729246E-01 0.  0.
         14    1    1    2    0    0 -0.17442136863E-01  0.11036059254E-01  0.69923749464E-02  0.21792568679E-01  0.00000000000E+00 0. -1.
     999901    1    3    3    0    0 -0.36731886063E-01 -0.11934386079E+00 -0.54582679416E-01  0.89048944826E+00  0.88000000000E+00 0. -1.
        -11    1    4    4    0    0  0.11920653903E-01  0.44275298464E-01  0.14453838320E-01  0.48078879008E-01  0.51100000000E-03 0.  1.
         11    1    4    4    0    0  0.42253369023E-01  0.64032503070E-01  0.33136466150E-01  0.83569104058E-01  0.51100000000E-03 0. -1.
</event>
<event>
 8    1  0.1177602E+005  0.1043930E+01  0.7957747E-01            NaN
         13   -1    0    0    0    0  0.00000000000E+00  0.00000000000E+00  0.74505805969E-08  0.10566000000E+00  0.10566000000E+00 0. -1.
     999900   -1    0    0    0    0 -0.00000000000E+00 -0.00000000000E+00 -0.74505805969E-08  0.93827000000E+00  0.93827000000E+00 0.  1.
     999902    2    1    2    0    0 -0.16218668941E-02  0.10719997358E-01 -0.19494824432E-01  0.10216231182E+01  0.10213795566E+01 0.  0.
     999903    2    3    3    0    0 -0.89444505772E-01  0.93675659796E-01  0.19330070908E-01  0.13252141968E+00  0.20318124466E-01 0.  0.
         14    1    1    2    0    0  0.16218668941E-02 -0.10719997358E-01  0.19494824432E-01  0.22306881790E-01  0.00000000000E+00 0. -1.
     999901    1    3    3    0    0  0.87822638878E-01 -0.82955662439E-01 -0.38824895340E-01  0.88910169853E+00  0.88000000000E+00 0. -1.
        -11    1    4    4    0    0 -0.46870446359E-01  0.53848916075E-01  0.20267669699E-01  0.74213098981E-01  0.51100000000E-03 0.  1.
         11    1    4    4    0    0 -0.42574059412E-01  0.39826743722E-01 -0.93759879039E-03  0.58308320700E-01  0.51100000000E-03 0. -1.
</event>
<event>
 8    1  0.1177602E+005  0.1043930E+01  0.7957747E-01            NaN
         13   -1    0    0    0    0  0.00000000000E+00  0.00000000000E+00  0.74505805969E-08  0.10566000000E+00  0.10566000000E+00 0.  1.
     999900   -1    0    0    0    0 -0.00000000000E+00 -0.00000000000E+00 -0.74505805969E-08  0.93827000000E+00  0.93827000000E+00 0.  1.
     999902    2    1    2    0    0  0.20702761517E-02 -0.11590349218E-01  0.19936430497E-01  0.10207765230E+01  0.10205139030E+01 0.  0.
     999903    2    3    3    0    0  0.88788033038E-01  0.39079361724E-01 -0.83003786177E-01  0.12910165106E+00  0.19159761545E-01 0.  0.
         14    1    1    2    0    0 -0.20702761517E-02  0.11590349218E-01 -0.19936430497E-01  0.23153477045E-01  0.00000000000E+00 0. -1.
     999901    1    3    3    0    0 -0.86717756886E-01 -0.50669710941E-01  0.10294021667E+00  0.89167487190E+00  0.88000000000E+00 0. -1.
        -11    1    4    4    0    0  0.69130540387E-01  0.27525576791E-01 -0.72854945894E-01  0.10413833710E+00  0.51100000000E-03 0. -1.
         11    1    4    4    0    0  0.19657492650E-01  0.11553784933E-01 -0.10148840283E-01  0.24963313956E-01  0.51100000000E-03 0.  1.
</event>
<event>
 7    1  0.1177602E+005  0.1043930E+01  0.7957747E-01            NaN
         13   -1    0    0    0    0  0.00000000000E+00  0.00000000000E+00  0.74505805969E-08  0.10566000000E+00  0.10566000000E+00 0.  1.
     999900   -1    0    0    0    0 -0.00000000000E+00 -0.00000000000E+00 -0.74505805969E-08  0.93827000000E+00  0.93827000000E+00 0. -1.
     999903    2    1    2    0    0  0.84907511315E-01 -0.10437084117E+00  0.51799782307E-01  0.14496821267E+00  0.15165990710E-01 0.  0.
         14    1    1    2    0    0  0.57107816559E-03  0.65791572756E-02  0.39290564868E-02  0.76843298735E-02  0.00000000000E+00 0. -1.
     999901    1    1    2    0    0 -0.85478589480E-01  0.97791683890E-01 -0.55728838794E-01  0.89127745746E+00  0.88000000000E+00 0.  1.
        -11    1    3    3    0    0  0.85851777624E-02 -0.18872082626E-01  0.65497821361E-02  0.21749058529E-01  0.51100000000E-03 0.  1.
         11    1    3    3    0    0  0.76322333552E-01 -0.85498758540E-01  0.45250000171E-01  0.12321915414E+00  0.51100000000E-03 0. -1.
</event>
<event>
 8    1  0.1177602E+005  0.1043930E+01  0.7957747E-01            NaN
         13   -1    0    0    0    0  0.00000000000E+00  0.00000000000E+00  0.74505805969E-08  0.10566000000E+00  0.10566000000E+00 0.  1.
     999900   -1    0    0    0    0 -0.00000000000E+00 -0.00000000000E+00 -0.74505805969E-08  0.93827000000E+00  0.93827000000E+00 0. -1.
     999902    2    1    2    0    0 -0.10606684105E-01 -0.61974432039E-02  0.13438621482E-01  0.10257226774E+01  0.10255610680E+01 0.  0.
     999903    2    3    3    0    0  0.63440569017E-02  0.11344051859E+00  0.71011968372E-01  0.13560175312E+00  0.20883904811E-01 0.  0.
         14    1    1    2    0    0  0.10606684105E-01  0.61974432039E-02 -0.13438621482E-01  0.18207322628E-01  0.00000000000E+00 0.  1.
     999901    1    3    3    0    0 -0.16950741006E-01 -0.11963796180E+00 -0.57573346890E-01  0.89012092425E+00  0.88000000000E+00 0. -1.
        -11    1    4    4    0    0 -0.19821266427E-02  0.96965229270E-01  0.57925004520E-01  0.11296792369E+00  0.51100000000E-03 0.  1.
         11    1    4    4    0    0  0.83261835444E-02  0.16475289322E-01  0.13086963851E-01  0.22633829426E-01  0.51100000000E-03 0. -1.
</event>
<event>
 8    1  0.1177602E+005  0.1043930E+01  0.7957747E-01            NaN
         13   -1    0    0    0    0  0.00000000000E+00  0.00000000000E+00  0.74505805969E-08  0.10566000000E+00  0.10566000000E+00 0.  1.
     999900   -1    0    0    0    0 -0.00000000000E+00 -0.00000000000E+00 -0.74505805969E-08  0.93827000000E+00  0.93827000000E+00 0.  1.
     999902    2    1    2    0    0  0.16667603157E-01  0.12080546717E-01  0.13410295121E-01  0.10193620408E+01  0.10190659378E+01 0.  0.
     999903    2    3    3    0    0 -0.81794253436E-01 -0.86921668215E-01  0.41964051620E-01  0.12789611729E+00  0.18728558139E-01 0.  0.
         14    1    1    2    0    0 -0.16667603157E-01 -0.12080546717E-01 -0.13410295121E-01  0.24567959199E-01  0.00000000000E+00 0.  1.
     999901    1    3    3    0    0  0.98461856593E-01  0.99002214932E-01 -0.28553756499E-01  0.89146592351E+00  0.88000000000E+00 0.  1.
        -11    1    4    4    0    0 -0.40967123048E-01 -0.32497840120E-01  0.23930301171E-01  0.57509435908E-01  0.51100000000E-03 0.  1.
         11    1    4    4    0    0 -0.40827130388E-01 -0.54423828095E-01  0.18033750449E-01  0.70386681385E-01  0.51100000000E-03 0. -1.
</event>
<event>
 8    1  0.1177602E+005  0.1043930E+01  0.7957747E-01            NaN
         13   -1    0    0    0    0  0.00000000000E+00  0.00000000000E+00  0.74505805969E-08  0.10566000000E+00  0.10566000000E+00 0.  1.
     999900   -1    0    0    0    0 -0.00000000000E+00 -0.00000000000E+00 -0.74505805969E-08  0.93827000000E+00  0.93827000000E+00 0.  1.
     999902    2    1    2    0    0  0.24045675188E-02 -0.17006921193E-01  0.16211722316E-01  0.10203114214E+01  0.10200380186E+01 0.  0.
     999903    2    3    3    0    0  0.12182650683E+00 -0.31096048623E-01  0.34584523519E-01  0.13194344422E+00  0.20107739813E-01 0.  0.
         14    1    1    2    0    0 -0.24045675188E-02  0.17006921193E-01 -0.16211722316E-01  0.23618578574E-01  0.00000000000E+00 0. -1.
     999901    1    3    3    0    0 -0.11942193931E+00  0.14089127430E-01 -0.18372801203E-01  0.88836797721E+00  0.88000000000E+00 0.  1.
        -11    1    4    4    0    0  0.70749673057E-01 -0.23252170503E-01  0.29166605024E-01  0.79982070744E-01  0.51100000000E-03 0. -1.
         11    1    4    4    0    0  0.51076833769E-01 -0.78438781192E-02  0.54179184953E-02  0.51961373477E-01  0.51100000000E-03 0.  1.
</event>
<event>
 8    1  0.1177602E+005  0.1043930E+01  0.7957747E-01            NaN
         13   -1    0    0    0    0  0.00000000000E+00  0.00000000000E+00  0.74505805969E-08  0.10566000000E+00  0.10566000000E+00 0. -1.
     999900   -1    0    0    0    0 -0.00000000000E+00 -0.00000000000E+00 -0.74505805969E-08  0.93827000000E+00  0.93827000000E+00 0. -1.
     999902    2    1    2    0    0 -0.19548490990E-01 -0.29744234474E-01 -0.61946320693E-02  0.10078019437E+01  0.10071541696E+01 0.  0.
     999903    2    3    3    0    0  0.65046893255E-01  0.39533988293E-01 -0.87110247513E-01  0.11735082883E+00  0.19722759741E-01 0.  0.
         14    1    1    2    0    0  0.19548490990E-01  0.29744234474E-01  0.61946320693E-02  0.36128056285E-01  0.00000000000E+00 0. -1.
     999901    1    3    3    0    0 -0.84595384245E-01 -0.69278222767E-01  0.80915615444E-01  0.89045111489E+00  0.88000000000E+00 0.  1.
        -11    1    4    4    0    0  0.46698705582E-01  0.20783952995E-01 -0.47126359667E-01  0.69526230313E-01  0.51100000000E-03 0. -1.
         11    1    4    4    0    0  0.18348187673E-01  0.18750035297E-01 -0.39983887846E-01  0.47824598512E-01  0.51100000000E-03 0.  1.
</event>
<event>
 8    1  0.1177602E+005  0.1043930E+01  0.7957747E-01            NaN
         13   -1    0    0    0    0  0.00000000000E+00  0.00000000000E+00  0.74505805969E-08  0.10566000000E+00  0.10566000000E+00 0.  1.
     999900   -1    0    0    0    0 -0.00000000000E+00 -0.00000000000E+00 -0.74505805969E-08  0.93827000000E+00  0.93827000000E+00 0. -1.
     999902    2    1    2    0    0  0.11602065040E-01  0.73802980202E-02 -0.19152289601E-01  0.10203527459E+01  0.10200803102E+01 0.  0.
     999903    2    3    3    0    0 -0.10704171030E+00 -0.30178649969E-01 -0.65210896074E-01  0.13040419954E+00  0.19598868174E-01 0.  0.
         14    1    1    2    0    0 -0.11602065040E-01 -0.73802980202E-02  0.19152289601E-01  0.23577254060E-01  0.00000000000E+00 0.  1.
     999901    1    3    3    0    0  0.11864377534E+00  0.37558947989E-01  0.46058606473E-01  0.88994854640E+00  0.88000000000E+00 0. -1.
        -11    1    4    4    0    0 -0.68655179472E-01 -0.22886450958E-01 -0.52148827774E-01  0.89202492482E-01  0.51100000000E-03 0. -1.
         11    1    4    4    0    0 -0.38386530830E-01 -0.72921990114E-02 -0.13062068299E-01  0.41201707062E-01  0.51100000000E-03 0.  1.
</event>
<event>
 8    1  0.1177602E+005  0.1043930E+01  0.7957747E-01            NaN
         13   -1    0    0    0    0  0.00000000000E+00  0.00000000000E+00  0.74505805969E-08  0.10566000000E+00  0.10566000000E+00 0. -1.
     999900   -1    0    0    0    0 -0.00000000000E+00 -0.00000000000E+00 -0.74505805969E-08  0.93827000000E+00  0.93827000000E+00 0.  1.
     999902    2    1    2    0    0 -0.16926700620E-01 -0.26671962396E-02  0.17078907228E-01  0.10197366910E+01  0.10194496568E+01 0.  0.
     999903    2    3    3    0    0  0.10665103534E+00  0.17280987109E-01 -0.64093553995E-01  0.12717949095E+00  0.19838432448E-01 0.  0.
         14    1    1    2    0    0  0.16926700620E-01  0.26671962396E-02 -0.17078907228E-01  0.24193309029E-01  0.00000000000E+00 0.  1.
     999901    1    3    3    0    0 -0.12357773596E+00 -0.19948183348E-01  0.81172461222E-01  0.89255720002E+00  0.88000000000E+00 0. -1.
        -11    1    4    4    0    0  0.56254722923E-01  0.73453605015E-02 -0.44862512128E-01  0.72328792935E-01  0.51100000000E-03 0. -1.
         11    1    4    4    0    0  0.50396312412E-01  0.99356266073E-02 -0.19231041867E-01  0.54850698018E-01  0.51100000000E-03 0.  1.
</event>
<event>
 8    1  0.1177602E+005  0.1043930E+01  0.7957747E-01            NaN
         13   -1    0    0    0    0  0.00000000000E+00  0.00000000000E+00  0.74505805969E-08  0.10566000000E+00  0.10566000000E+00 0.  1.
     999900   -1    0    0    0    0 -0.00000000000E+00 -0.00000000000E+00 -0.74505805969E-08  0.93827000000E+00  0.93827000000E+00 0.  1.
     999902    2    1    2    0    0  0.45031402876E-03 -0.96927377927E-02  0.21486443266E-01  0.10203541820E+01  0.10200817799E+01 0.  0.
     999903    2    3    3    0    0  0.38488726030E-01 -0.11605412419E+00 -0.41427897221E-01  0.13090610623E+00  0.21684008106E-01 0.  0.
         14    1    1    2    0    0 -0.45031402876E-03  0.96927377927E-02 -0.21486443266E-01  0.23575817968E-01  0.00000000000E+00 0. -1.
     999901    1    3    3    0    0 -0.38038412001E-01  0.10636138640E+00  0.62914340487E-01  0.88944807580E+00  0.88000000000E+00 0. -1.
        -11    1    4    4    0    0  0.15339147824E-01 -0.74914628440E-01 -0.19878942820E-01  0.79012179434E-01  0.51100000000E-03 0.  1.
         11    1    4    4    0    0  0.23149578206E-01 -0.41139495752E-01 -0.21548954401E-01  0.51893926799E-01  0.51100000000E-03 0. -1.
</event>
<event>
 8    1  0.1177602E+005  0.1043930E+01  0.7957747E-01            NaN
         13   -1    0    0    0    0  0.00000000000E+00  0.00000000000E+00  0.74505805969E-08  0.10566000000E+00  0.10566000000E+00 0. -1.
     999900   -1    0    0    0    0 -0.00000000000E+00 -0.00000000000E+00 -0.74505805969E-08  0.93827000000E+00  0.93827000000E+00 0. -1.
     999902    2    1    2    0    0 -0.56216608224E-02 -0.91404158563E-03 -0.22585916707E-01  0.10206370359E+01  0.10203712054E+01 0.  0.
     999903    2    3    3    0    0  0.80558700532E-01 -0.92174978434E-01 -0.44367808124E-01  0.13146322609E+00  0.18114815388E-01 0.  0.
         14    1    1    2    0    0  0.56216608224E-02  0.91404158563E-03  0.22585916707E-01  0.23292964086E-01  0.00000000000E+00 0. -1.
     999901    1    3    3    0    0 -0.86180361354E-01  0.91260936848E-01  0.21781891417E-01  0.88917380982E+00  0.88000000000E+00 0.  1.
        -11    1    4    4    0    0  0.52771785390E-01 -0.62187911472E-01 -0.38381566966E-01  0.90142129275E-01  0.51100000000E-03 0. -1.
         11    1    4    4    0    0  0.27786915141E-01 -0.29987066962E-01 -0.59862411579E-02  0.41321096818E-01  0.51100000000E-03 0.  1.
</event>
<event>
 8    1  0.1177602E+005  0.1043930E+01  0.7957747E-01            NaN
         13   -1    0    0    0    0  0.00000000000E+00  0.00000000000E+00  0.74505805969E-08  0.10566000000E+00  0.10566000000E+00 0. -1.
     999900   -1    0    0    0    0 -0.00000000000E+00 -0.00000000000E+00 -0.74505805969E-08  0.93827000000E+00  0.93827000000E+00 0. -1.
     999902    2    1    2    0    0 -0.33999381535E-02 -0.22819072191E-01 -0.34475204591E-04  0.10208590047E+01  0.10205982739E+01 0.  0.
     999903    2    3    3    0    0  0.68596339983E-01  0.22491100203E-01  0.10640086998E+00  0.13037320556E+00  0.21557368730E-01 0.  0.
         14    1    1    2    0    0  0.33999381535E-02  0.22819072191E-01  0.34475204591E-04  0.23070995290E-01  0.00000000000E+00 0. -1.
     999901    1    3    3    0    0 -0.71996278136E-01 -0.45310172395E-01 -0.10643534519E+00  0.89048579915E+00  0.88000000000E+00 0. -1.
        -11    1    4    4    0    0  0.30364694109E-01  0.16090394030E-01  0.65810517453E-01  0.74244196789E-01  0.51100000000E-03 0.  1.
         11    1    4    4    0    0  0.38231645874E-01  0.64007061731E-02  0.40590352530E-01  0.56129008768E-01  0.51100000000E-03 0. -1.
</event>
<event>
 7    1  0.1177602E+005  0.1043930E+01  0.7957747E-01            NaN
         13   -1    0    0    0    0  0.00000000000E+00  0.00000000000E+00  0.74505805969E-08  0.10566000000E+00  0.10566000000E+00 0. -1.
     999900   -1    0    0    0    0 -0.00000000000E+00 -0.00000000000E+00 -0.74505805969E-08  0.93827000000E+00  0.93827000000E+00 0.  1.
     999903    2    1    2    0    0  0.38862431697E-01 -0.83985175256E-02  0.97859683783E-01  0.10768107984E+00  0.20925428342E-01 0.  0.
         14    1    1    2    0    0 -0.50599348643E-02 -0.46876602024E-01 -0.17199122497E-01  0.50187932542E-01  0.00000000000E+00 0.  1.
     999901    1    1    2    0    0 -0.33802496833E-01  0.55275119549E-01 -0.80660561286E-01  0.88606098762E+00  0.88000000000E+00 0.  1.
        -11    1    3    3    0    0  0.14295781567E-01 -0.98033952717E-02  0.60551952586E-01  0.62986316073E-01  0.51100000000E-03 0.  1.
         11    1    3    3    0    0  0.24566650130E-01  0.14048777461E-02  0.37307731197E-01  0.44694763767E-01  0.51100000000E-03 0. -1.
</event>
<event>
 8    1  0.1177602E+005  0.1043930E+01  0.7957747E-01            NaN
         13   -1    0    0    0    0  0.00000000000E+00  0.00000000000E+00  0.74505805969E-08  0.10566000000E+00  0.10566000000E+00 0. -1.
     999900   -1    0    0    0    0 -0.00000000000E+00 -0.00000000000E+00 -0.74505805969E-08  0.93827000000E+00  0.93827000000E+00 0.  1.
     999902    2    1    2    0    0  0.17748011805E-02  0.23792741586E-01  0.22449616979E-02  0.10199657699E+01  0.10196842097E+01 0.  0.
     999903    2    3    3    0    0 -0.83920486144E-01  0.57744346604E-01 -0.80452075560E-01  0.13129530582E+00  0.19719617363E-01 0.  0.
         14    1    1    2    0    0 -0.17748011805E-02 -0.23792741586E-01 -0.22449616979E-02  0.23964230103E-01  0.00000000000E+00 0.  1.
     999901    1    3    3    0    0  0.85695287325E-01 -0.33951605018E-01  0.82697037258E-01  0.88867046408E+00  0.88000000000E+00 0. -1.
        -11    1    4    4    0    0 -0.42625300586E-01  0.17752624384E-01 -0.33073980716E-01  0.56799834894E-01  0.51100000000E-03 0.  1.
         11    1    4    4    0    0 -0.41295185559E-01  0.39991722220E-01 -0.47378094844E-01  0.74495470926E-01  0.51100000000E-03 0. -1.
</event>
<event>
 8    1  0.1177602E+005  0.1043930E+01  0.7957747E-01            NaN
         13   -1    0    0    0    0  0.00000000000E+00  0.00000000000E+00  0.74505805969E-08  0.10566000000E+00  0.10566000000E+00 0.  1.
     999900   -1    0    0    0    0 -0.00000000000E+00 -0.00000000000E+00 -0.74505805969E-08  0.93827000000E+00  0.93827000000E+00 0. -1.
     999902    2    1    2    0    0  0.18877753002E-01 -0.12312476901E-01  0.86153431093E-02  0.10198013701E+01  0.10195158869E+01 0.  0.
     999903    2    3    3    0    0 -0.18765922745E-01 -0.12582776659E+00 -0.24570610326E-01  0.13109215169E+00  0.19916090008E-01 0.  0.
         14    1    1    2    0    0 -0.18877753002E-01  0.12312476901E-01 -0.86153431093E-02  0.24128629939E-01  0.00000000000E+00 0. -1.
     999901    1    3    3    0    0  0.37643675748E-01  0.11351528969E+00  0.33185953435E-01  0.88870921837E+00  0.88000000000E+00 0.  1.
        -11    1    4    4    0    0 -0.13608398422E-01 -0.67703118165E-01 -0.38463835680E-02  0.69166151436E-01  0.51100000000E-03 0. -1.
         11    1    4    4    0    0 -0.51575243231E-02 -0.58124648423E-01 -0.20724226758E-01  0.61926000252E-01  0.51100000000E-03 0.  1.
</event>
<event>
 8    1  0.1177602E+005  0.1043930E+01  0.7957747E-01            NaN
         13   -1    0    0    0    0  0.00000000000E+00  0.00000000000E+00  0.74505805969E-08  0.10566000000E+00  0.10566000000E+00 0.  1.
     999900   -1    0    0    0    0 -0.00000000000E+00 -0.00000000000E+00 -0.74505805969E-08  0.93827000000E+00  0.93827000000E+00 0.  1.
     999902    2    1    2    0    0  0.65312761805E-02  0.68207203653E-02 -0.21176460953E-01  0.10207433165E+01  0.10204799341E+01 0.  0.
     999903    2    3    3    0    0  0.36502386302E-01 -0.94587902747E-01  0.77469451329E-01  0.12894009137E+00  0.18567060108E-01 0.  0.
         14    1    1    2    0    0 -0.65312761805E-02 -0.68207203653E-02  0.21176460953E-01  0.23186683535E-01  0.00000000000E+00 0.  1.
     999901    1    3    3    0    0 -0.29971110122E-01  0.10140862311E+00 -0.98645912282E-01  0.89180322510E+00  0.88000000000E+00 0.  1.
        -11    1    4    4    0    0  0.18658924568E-01 -0.68187303217E-01  0.59174757897E-01  0.92193149849E-01  0.51100000000E-03 0. -1.
         11    1    4    4    0    0  0.17843461735E-01 -0.26400599530E-01  0.18294693432E-01  0.36746941519E-01  0.51100000000E-03 0.  1.
</event>
<event>
 8    1  0.1177602E+005  0.1043930E+01  0.7957747E-01            NaN
         13   -1    0    0    0    0  0.00000000000E+00  0.00000000000E+00  0.74505805969E-08  0.10566000000E+00  0.10566000000E+00 0. -1.
     999900   -1    0    0    0    0 -0.00000000000E+00 -0.00000000000E+00 -0.74505805969E-08  0.93827000000E+00  0.93827000000E+00 0.  1.
     999902    2    1    2    0    0  0.42578926275E-02  0.18835317839E-01  0.11473224376E-01  0.10214681718E+01  0.10212211770E+01 0.  0.
     999903    2    3    3    0    0 -0.10694441904E+00 -0.49264550659E-01  0.53540771749E-01  0.13086544066E+00  0.19875729002E-01 0.  0.
         14    1    1    2    0    0 -0.42578926275E-02 -0.18835317839E-01 -0.11473224376E-01  0.22461828182E-01  0.00000000000E+00 0.  1.
     999901    1    3    3    0    0  0.11120231167E+00  0.68099868498E-01 -0.42067547373E-01  0.89060273116E+00  0.88000000000E+00 0.  1.
        -11    1    4    4    0    0 -0.52122256762E-01 -0.14827792682E-01  0.18599705004E-01  0.57295752312E-01  0.51100000000E-03 0. -1.
         11    1    4    4    0    0 -0.54822162278E-01 -0.34436757977E-01  0.34941066745E-01  0.73569688344E-01  0.51100000000E-03 0.  1.
</event>
<event>
 8    1  0.1177602E+005  0.1043930E+01  0.7957747E-01            NaN
         13   -1    0    0    0    0  0.00000000000E+00  0.00000000000E+00  0.74505805969E-08  0.10566000000E+00  0.10566000000E+00 0. -1.
     999900   -1    0    0    0    0 -0.00000000000E+00 -0.00000000000E+00 -0.74505805969E-08  0.93827000000E+00  0.93827000000E+00 0.  1.
     999902    2    1    2    0    0  0.84175444375E-02  0.66913671320E-02 -0.21344829864E-01  0.10200295563E+01  0.10197495106E+01 0.  0.
     999903    2    3    3    0    0 -0.12501710555E+00  0.65717044202E-02  0.15279486732E-01  0.12921747693E+00  0.28128804643E-01 0.  0.
         14    1    1    2    0    0 -0.84175444375E-02 -0.66913671320E-02  0.21344829864E-01  0.23900443728E-01  0.00000000000E+00 0. -1.
     999901    1    3    3    0    0  0.13343464999E+00  0.11966271183E-03 -0.36624316596E-01  0.89081207934E+00  0.88000000000E+00 0.  1.
        -11    1    4    4    0    0 -0.97296564197E-01  0.13478758206E-01  0.20041271436E-01  0.10025074568E+00  0.51100000000E-03 0.  1.
         11    1    4    4    0    0 -0.27720541352E-01 -0.69070537859E-02 -0.47617847043E-02  0.28966731252E-01  0.51100000000E-03 0. -1.
</event>
<event>
 8    1  0.1177602E+005  0.1043930E+01  0.7957747E-01            NaN
         13   -1    0    0    0    0  0.00000000000E+00  0.00000000000E+00  0.74505805969E-08  0.10566000000E+00  0.10566000000E+00 0.  1.
     999900   -1    0    0    0    0 -0.00000000000E+00 -0.00000000000E+00 -0.74505805969E-08  0.93827000000E+00  0.93827000000E+00 0.  1.
     999902    2    1    2    0    0 -0.18219231683E-01  0.24921847608E-01 -0.41677431759E-02  0.10127786120E+01  0.10122994162E+01 0.  0.
     999903    2    3    3    0    0  0.50504433418E-01  0.87428923356E-01  0.70362929574E-01  0.12475558423E+00  0.20457260435E-01 0.  0.
         14    1    1    2    0    0  0.18219231683E-01 -0.24921847608E-01  0.41677431759E-02  0.31151388003E-01  0.00000000000E+00 0.  1.
     999901    1    3    3    0    0 -0.68723665101E-01 -0.62507075747E-01 -0.74530672749E-01  0.88802302777E+00  0.88000000000E+00 0.  1.
        -11    1    4    4    0    0  0.25384638009E-01  0.53931567400E-01  0.30572079533E-01  0.66991842616E-01  0.51100000000E-03 0.  1.
         11    1    4    4    0    0  0.25119795409E-01  0.33497355956E-01  0.39790850040E-01  0.57763741615E-01  0.51100000000E-03 0. -1.
</event>
<event>
 8    1  0.1177602E+005  0.1043930E+01  0.7957747E-01            NaN
         13   -1    0    0    0    0  0.00000000000E+00  0.00000000000E+00  0.74505805969E-08  0.10566000000E+00  0.10566000000E+00 0. -1.
     999900   -1    0    0    0    0 -0.00000000000E+00 -0.00000000000E+00 -0.74505805969E-08  0.93827000000E+00  0.93827000000E+00 0. -1.
     999902    2    1    2    0    0  0.86151554438E-02  0.11036910432E-01  0.18969705125E-01  0.10203528075E+01  0.10200803732E+01 0.  0.
     999903    2    3    3    0    0  0.71261591100E-01 -0.39596671265E-01  0.10281045567E+00  0.13270557633E+00  0.19866289319E-01 0.  0.
         14    1    1    2    0    0 -0.86151554438E-02 -0.11036910432E-01 -0.18969705125E-01  0.23577192532E-01  0.00000000000E+00 0.  1.
     999901    1    3    3    0    0 -0.62646435656E-01  0.50633581697E-01 -0.83840750550E-01  0.88764723114E+00  0.88000000000E+00 0.  1.
        -11    1    4    4    0    0  0.31721594306E-02 -0.68106748797E-02  0.15486780995E-01  0.17220609581E-01  0.51100000000E-03 0. -1.
         11    1    4    4    0    0  0.68089431670E-01 -0.32785996385E-01  0.87323674680E-01  0.11548496675E+00  0.51100000000E-03 0.  1.
</event>
<event>
 8    1  0.1177602E+005  0.1043930E+01  0.7957747E-01            NaN
         13   -1    0    0    0    0  0.00000000000E+00  0.00000000000E+00  0.74505805969E-08  0.10566000000E+00  0.10566000000E+00 0. -1.
     999900   -1    0    0    0    0 -0.00000000000E+00 -0.00000000000E+00 -0.74505805969E-08  0.93827000000E+00  0.93827000000E+00 0. -1.
     999902    2    1    2    0    0 -0.24579972989E-01  0.21184470996E-03  0.50266759967E-03  0.10193439750E+01  0.10190474311E+01 0.  0.
     999903    2    3    3    0    0  0.10473680171E+00 -0.40887276660E-01  0.56298248358E-01  0.12719762332E+00  0.19187902009E-01 0.  0.
         14    1    1    2    0    0  0.24579972989E-01 -0.21184470996E-03 -0.50266759967E-03  0.24586024994E-01  0.00000000000E+00 0. -1.
     999901    1    3    3    0    0 -0.12931677470E+00  0.41099121370E-01 -0.55795580758E-01  0.89214635169E+00  0.88000000000E+00 0. -1.
        -11    1    4    4    0    0  0.90211927710E-01 -0.33828083888E-01  0.40225461451E-01  0.10440727959E+00  0.51100000000E-03 0.  1.
         11    1    4    4    0    0  0.14524874004E-01 -0.70591927720E-02  0.16072786907E-01  0.22790343731E-01  0.51100000000E-03 0. -1.
</event>
<event>
 8    1  0.1177602E+005  0.1043930E+01  0.7957747E-01            NaN
         13   -1    0    0    0    0  0.00000000000E+00  0.00000000000E+00  0.74505805969E-08  0.10566000000E+00  0.10566000000E+00 0. -1.
     999900   -1    0    0    0    0 -0.00000000000E+00 -0.00000000000E+00 -0.74505805969E-08  0.93827000000E+00  0.93827000000E+00 0.  1.
     999902    2    1    2    0    0 -0.14282750309E-01 -0.16680640070E-01 -0.83864328801E-02  0.10204231294E+01  0.10201523367E+01 0.  0.
     999903    2    3    3    0    0  0.11053019470E+00  0.19607842084E-01  0.59094008674E-01  0.12831958429E+00  0.19298249646E-01 0.  0.
         14    1    1    2    0    0  0.14282750309E-01  0.16680640070E-01  0.83864328801E-02  0.23506870613E-01  0.00000000000E+00 0.  1.
     999901    1    3    3    0    0 -0.12481294501E+00 -0.36288482154E-01 -0.67480441554E-01  0.89210354510E+00  0.88000000000E+00 0.  1.
        -11    1    4    4    0    0  0.25964394003E-01  0.11552636175E-01  0.20315905902E-01  0.34937233894E-01  0.51100000000E-03 0.  1.
         11    1    4    4    0    0  0.84565800700E-01  0.80552059091E-02  0.38778102772E-01  0.93382350398E-01  0.51100000000E-03 0. -1.
</event>
<event>
 8    1  0.1177602E+005  0.1043930E+01  0.7957747E-01            NaN
         13   -1    0    0    0    0  0.00000000000E+00  0.00000000000E+00  0.74505805969E-08  0.10566000000E+00  0.10566000000E+00 0. -1.
     999900   -1    0    0    0    0 -0.00000000000E+00 -0.00000000000E+00 -0.74505805969E-08  0.93827000000E+00  0.93827000000E+00 0.  1.
     999902    2    1    2    0    0  0.47475025982E-02 -0.20461924069E-01  0.11937219672E-01  0.10197695710E+01  0.10194833258E+01 0.  0.
     999903    2    3    3    0    0 -0.20307303350E-01 -0.37511587647E-01 -0.12048336269E+00  0.12934627558E+00  0.19867373885E-01 0.  0.
         14    1    1    2    0    0 -0.47475025982E-02  0.20461924069E-01 -0.11937219672E-01  0.24160429032E-01  0.00000000000E+00 0.  1.
     999901    1    3    3    0    0  0.25054805948E-01  0.17049663578E-01  0.13242058236E+00  0.89042329538E+00  0.88000000000E+00 0. -1.
        -11    1    4    4    0    0 -0.27222214294E-02 -0.21148200692E-01 -0.39712432699E-01  0.45077658700E-01  0.51100000000E-03 0.  1.
         11    1    4    4    0    0 -0.17585081921E-01 -0.16363386955E-01 -0.80770929992E-01  0.84268616884E-01  0.51100000000E-03 0. -1.
</event>
<event>
 8    1  0.1177602E+005  0.1043930E+01  0.7957747E-01            NaN
         13   -1    0    0    0    0  0.00000000000E+00  0.00000000000E+00  0.74505805969E-08  0.10566000000E+00  0.10566000000E+00 0. -1.
     999900   -1    0    0    0    0 -0.00000000000E+00 -0.00000000000E+00 -0.74505805969E-08  0.93827000000E+00  0.93827000000E+00 0.  1.
     999902    2    1    2    0    0  0.13641023703E-01  0.18784366745E-01 -0.63163202616E-02  0.10198711999E+01  0.10195873864E+01 0.  0.
     999903    2    3    3    0    0  0.30520838214E-01  0.95575591438E-01  0.82603167463E-01  0.13190245289E+00  0.22555676886E-01 0.  0.
         14    1    1    2    0    0 -0.13641023703E-01 -0.18784366745E-01  0.63163202616E-02  0.24058800122E-01  0.00000000000E+00 0. -1.
     999901    1    3    3    0    0 -0.16879814511E-01 -0.76791224693E-01 -0.88919487725E-01  0.88796874699E+00  0.88000000000E+00 0.  1.
        -11    1    4    4    0    0  0.80288706931E-02  0.61348640536E-01  0.50090075271E-01  0.79607758553E-01  0.51100000000E-03 0.  1.
         11    1    4    4    0    0  0.22491967521E-01  0.34226950902E-01  0.32513092193E-01  0.52294694338E-01  0.51100000000E-03 0. -1.
</event>
<event>
 8    1  0.1177602E+005  0.1043930E+01  0.7957747E-01            NaN
         13   -1    0    0    0    0  0.00000000000E+00  0.00000000000E+00  0.74505805969E-08  0.10566000000E+00  0.10566000000E+00 0. -1.
     999900   -1    0    0    0    0 -0.00000000000E+00 -0.00000000000E+00 -0.74505805969E-08  0.93827000000E+00  0.93827000000E+00 0. -1.
     999902    2    1    2    0    0 -0.96930312781E-02 -0.13846716345E-01 -0.18209595059E-01  0.10190849651E+01  0.10187820622E+01 0.  0.
     999903    2    3    3    0    0 -0.15079220870E-01  0.87208887125E-01 -0.93311169206E-01  0.13010718555E+00  0.19701079580E-01 0.  0.
         14    1    1    2    0    0  0.96930312781E-02  0.13846716345E-01  0.18209595059E-01  0.24845034939E-01  0.00000000000E+00 0. -1.
     999901    1    3    3    0    0  0.53861895921E-02 -0.10105560347E+00  0.75101574147E-01  0.88897777951E+00  0.88000000000E+00 0. -1.
        -11    1    4    4    0    0 -0.44883379333E-03  0.38695124009E-01 -0.51436660978E-01  0.64370065150E-01  0.51100000000E-03 0. -1.
         11    1    4    4    0    0 -0.14630387077E-01  0.48513763116E-01 -0.41874508229E-01  0.65737120397E-01  0.51100000000E-03 0.  1.
</event>
<event>
 8    1  0.1177602E+005  0.1043930E+01  0.7957747E-01            NaN
         13   -1    0    0    0    0  0.00000000000E+00  0.00000000000E+00  0.74505805969E-08  0.10566000000E+00  0.10566000000E+00 0.  1.
     999900   -1    0    0    0    0 -0.00000000000E+00 -0.00000000000E+00 -0.74505805969E-08  0.93827000000E+00  0.93827000000E+00 0. -1.
     999902    2    1    2    0    0  0.25746629560E-01 -0.64070399640E-02 -0.30999419555E-02  0.10172176670E+01  0.10168668710E+01 0.  0.
     999903    2    3    3    0    0  0.56849779332E-01  0.74208280764E-01 -0.86676459603E-01  0.12904467136E+00  0.20023791174E-01 0.  0.
         14    1    1    2    0    0 -0.25746629560E-01  0.64070399640E-02  0.30999419555E-02  0.26712333012E-01  0.00000000000E+00 0.  1.
     999901    1    3    3    0    0 -0.31103149772E-01 -0.80615320728E-01  0.83576517647E-01  0.88817299563E+00  0.88000000000E+00 0.  1.
        -11    1    4    4    0    0  0.20101901765E-01  0.40900096832E-01 -0.35439794790E-01  0.57733391994E-01  0.51100000000E-03 0.  1.
         11    1    4    4    0    0  0.36747877567E-01  0.33308183932E-01 -0.51236664813E-01  0.71311279365E-01  0.51100000000E-03 0. -1.
</event>
<event>
 8    1  0.1177602E+005  0.1043930E+01  0.7957747E-01            NaN
         13   -1    0    0    0    0  0.00000000000E+00  0.00000000000E+00  0.74505805969E-08  0.10566000000E+00  0.10566000000E+00 0. -1.
     999900   -1    0    0    0    0 -0.00000000000E+00 -0.00000000000E+00 -0.74505805969E-08  0.93827000000E+00  0.93827000000E+00 0. -1.
     999902    2    1    2    0    0  0.64326749557E-02 -0.24661951788E-01 -0.18505839220E-03  0.10184422496E+01  0.10181232688E+01 0.  0.
     999903    2    3    3    0    0 -0.39091581829E-01 -0.10146299559E+00  0.70650648482E-01  0.13109307615E+00  0.19261080915E-01 0.  0.
         14    1    1    2    0    0 -0.64326749557E-02  0.24661951788E-01  0.18505839220E-03  0.25487750385E-01  0.00000000000E+00 0. -1.
     999901    1    3    3    0    0  0.45524256785E-01  0.76801043806E-01 -0.70835706874E-01  0.88734917347E+00  0.88000000000E+00 0. -1.
        -11    1    4    4    0    0 -0.21002846658E-01 -0.30213673805E-01  0.26406560179E-01  0.45294074602E-01  0.51100000000E-03 0. -1.
         11    1    4    4    0    0 -0.18088735171E-01 -0.71249321788E-01  0.44244088303E-01  0.85799001545E-01  0.51100000000E-03 0.  1.
</event>
<event>
 8    1  0.1177602E+005  0.1043930E+01  0.7957747E-01            NaN
         13   -1    0    0    0    0  0.00000000000E+00  0.00000000000E+00  0.74505805969E-08  0.10566000000E+00  0.10566000000E+00 0. -1.
     999900   -1    0    0    0    0 -0.00000000000E+00 -0.00000000000E+00 -0.74505805969E-08  0.93827000000E+00  0.93827000000E+00 0.  1.
     999902    2    1    2    0    0 -0.23330067676E-01  0.90198212820E-02  0.25416665919E-03  0.10189157274E+01  0.10186086322E+01 0.  0.
     999903    2    3    3    0    0 -0.86518111013E-01  0.97507097833E-01  0.82711456118E-02  0.13218747201E+00  0.20300203085E-01 0.  0.
         14    1    1    2    0    0  0.23330067676E-01 -0.90198212820E-02 -0.25416665919E-03  0.25014272615E-01  0.00000000000E+00 0.  1.
     999901    1    3    3    0    0  0.63188043336E-01 -0.88487276551E-01 -0.80169789526E-02  0.88672825538E+00  0.88000000000E+00 0. -1.
        -11    1    4    4    0    0 -0.45126159481E-01  0.37144203008E-01 -0.64800497474E-03  0.58452913683E-01  0.51100000000E-03 0. -1.
         11    1    4    4    0    0 -0.41391951531E-01  0.60362894825E-01  0.89191505865E-02  0.73734558325E-01  0.51100000000E-03 0.  1.
</event>
<event>
 8    1  0.1177602E+005  0.1043930E+01  0.7957747E-01            NaN
         13   -1    0    0    0    0  0.00000000000E+00  0.00000000000E+00  0.74505805969E-08  0.10566000000E+00  0.10566000000E+00 0.  1.
     999900   -1    0    0    0    0 -0.00000000000E+00 -0.00000000000E+00 -0.74505805969E-08  0.93827000000E+00  0.93827000000E+00 0. -1.
     999902    2    1    2    0    0  0.18921602103E-01 -0.12265283735E-01  0.76715544988E-02  0.10201115836E+01  0.10198334796E+01 0.  0.
     999903    2    3    3    0    0  0.59301577425E-01  0.50683897044E-01 -0.10219896553E+00  0.13013143049E+00  0.20100401530E-01 0.  0.
         14    1    1    2    0    0 -0.18921602103E-01  0.12265283735E-01 -0.76715544988E-02  0.23818416398E-01  0.00000000000E+00 0.  1.
     999901    1    3    3    0    0 -0.40379975322E-01 -0.62949180779E-01  0.10987052002E+00  0.88998015311E+00  0.88000000000E+00 0.  1.
        -11    1    4    4    0    0  0.17600296602E-01  0.86823478213E-02 -0.38253216372E-01  0.42996782298E-01  0.51100000000E-03 0.  1.
         11    1    4    4    0    0  0.41701280823E-01  0.42001549223E-01 -0.63945749153E-01  0.87134648190E-01  0.51100000000E-03 0. -1.
</event>
<event>
 8    1  0.1177602E+005  0.1043930E+01  0.7957747E-01            NaN
         13   -1    0    0    0    0  0.00000000000E+00  0.00000000000E+00  0.74505805969E-08  0.10566000000E+00  0.10566000000E+00 0.  1.
     999900   -1    0    0    0    0 -0.00000000000E+00 -0.00000000000E+00 -0.74505805969E-08  0.93827000000E+00  0.93827000000E+00 0.  1.
     999902    2    1    2    0    0  0.18104551150E-01 -0.14147472694E-01  0.47278665170E-02  0.10204719848E+01  0.10202023296E+01 0.  0.
     999903    2    3    3    0    0 -0.24317747606E-01  0.11933038862E+00  0.36940593710E-01  0.12881417448E+00  0.19934632815E-01 0.  0.
         14    1    1    2    0    0 -0.18104551150E-01  0.14147472694E-01 -0.47278665170E-02  0.23458015214E-01  0.00000000000E+00 0. -1.
     999901    1    3    3    0    0  0.42422298756E-01 -0.13347786131E+00 -0.32212727193E-01  0.89165781031E+00  0.88000000000E+00 0.  1.
        -11    1    4    4    0    0 -0.92343850659E-02  0.16773700071E-01  0.13052633762E-02  0.19198846712E-01  0.51100000000E-03 0.  1.
         11    1    4    4    0    0 -0.15083362540E-01  0.10255668855E+00  0.35635330334E-01  0.10961532776E+00  0.51100000000E-03 0. -1.
</event>
<event>
 8    1  0.1177602E+005  0.1043930E+01  0.7957747E-01            NaN
         13   -1    0    0    0    0  0.00000000000E+00  0.00000000000E+00  0.74505805969E-08  0.10566000000E+00  0.10566000000E+00 0.  1.
     999900   -1    0    0    0    0 -0.00000000000E+00 -0.00000000000E+00 -0.74505805969E-08  0.93827000000E+00  0.93827000000E+00 0.  1.
     999902    2    1    2    0    0  0.52351141651E-02 -0.12716735979E-02  0.23705472462E-01  0.10196200638E+01  0.10193302220E+01 0.  0.
     999903    2    3    3    0    0  0.46753940243E-01 -0.11649578393E+00 -0.26227548007E-01  0.12973596175E+00  0.19655454625E-01 0.  0.
         14    1    1    2    0    0 -0.52351141651E-02  0.12716735979E-02 -0.23705472462E-01  0.24309936214E-01  0.00000000000E+00 0. -1.
     999901    1    3    3    0    0 -0.41518826078E-01  0.11522411033E+00  0.49933020469E-01  0.88988410203E+00  0.88000000000E+00 0. -1.
        -11    1    4    4    0    0  0.48725319546E-02 -0.34966382938E-01 -0.94940966505E-02  0.36562118315E-01  0.51100000000E-03 0.  1.
         11    1    4    4    0    0  0.41881408288E-01 -0.81529400988E-01 -0.16733451356E-01  0.93173843437E-01  0.51100000000E-03 0. -1.
</event>
<event>
 8    1  0.1177602E+005  0.1043930E+01  0.7957747E-01            NaN
         13   -1    0    0    0    0  0.00000000000E+00  0.00000000000E+00  0.74505805969E-08  0.10566000000E+00  0.10566000000E+00 0.  1.
     999900   -1    0    0    0    0 -0.00000000000E+00 -0.00000000000E+00 -0.74505805969E-08  0.93827000000E+00  0.93827000000E+00 0.  1.
     999902    2    1    2    0    0  0.12509769824E-01 -0.22540937126E-01  0.42887423368E-02  0.10177960853E+01  0.10174605102E+01 0.  0.
     999903    2    3    3    0    0  0.24263537234E-02 -0.26842018042E-01  0.12500131630E+00  0.12948774913E+00  0.20380553771E-01 0.  0.
         14    1    1    2    0    0 -0.12509769824E-01  0.22540937126E-01 -0.42887423368E-02  0.26133914716E-01  0.00000000000E+00 0. -1.
     999901    1    3    3    0    0  0.10083416100E-01  0.43010809164E-02 -0.12071257396E+00  0.88830833616E+00  0.88000000000E+00 0.  1.
        -11    1    4    4    0    0 -0.35176531412E-02 -0.23925550729E-01  0.11476367314E+00  0.11728498478E+00  0.51100000000E-03 0.  1.
         11    1    4    4    0    0  0.59440068646E-02 -0.29164673133E-02  0.10237643156E-01  0.12202764342E-01  0.51100000000E-03 0. -1.
</event>
<event>
 8    1  0.1177602E+005  0.1043930E+01  0.7957747E-01            NaN
         13   -1    0    0    0    0  0.00000000000E+00  0.00000000000E+00  0.74505805969E-08  0.10566000000E+00  0.10566000000E+00 0. -1.
     999900   -1    0    0    0    0 -0.00000000000E+00 -0.00000000000E+00 -0.74505805969E-08  0.93827000000E+00  0.93827000000E+00 0. -1.
     999902    2    1    2    0    0 -0.17269572061E-01  0.15247122668E-01 -0.38401058987E-02  0.10205749303E+01  0.10203076639E+01 0.  0.
     999903    2    3    3    0    0 -0.61729743648E-01  0.66429857660E-01  0.94425610545E-01  0.13251382300E+00  0.20499515099E-01 0.  0.
         14    1    1    2    0    0  0.17269572061E-01 -0.15247122668E-01  0.38401058987E-02  0.23355069731E-01  0.00000000000E+00 0. -1.
     999901    1    3    3    0    0  0.44460171587E-01 -0.51182734992E-01 -0.98265716444E-01  0.88806110727E+00  0.88000000000E+00 0. -1.
        -11    1    4    4    0    0 -0.28367339891E-01  0.45063841303E-01  0.51100115145E-01  0.73803378339E-01  0.51100000000E-03 0. -1.
         11    1    4    4    0    0 -0.33362403757E-01  0.21366016357E-01  0.43325495401E-01  0.58710444660E-01  0.51100000000E-03 0.  1.
</event>
<event>
 8    1  0.1177602E+005  0.1043930E+01  0.7957747E-01            NaN
         13   -1    0    0    0    0  0.00000000000E+00  0.00000000000E+00  0.74505805969E-08  0.10566000000E+00  0.10566000000E+00 0.  1.
     999900   -1    0    0    0    0 -0.00000000000E+00 -0.00000000000E+00 -0.74505805969E-08  0.93827000000E+00  0.93827000000E+00 0.  1.
     999902    2    1    2    0    0 -0.15530865179E-02 -0.16418917246E-02  0.23419778568E-01  0.10204014235E+01  0.10201301246E+01 0.  0.
     999903    2    3    3    0    0  0.48150364099E-03 -0.11287774738E+00 -0.60152328677E-01  0.12946828777E+00  0.20052859983E-01 0.  0.
         14    1    1    2    0    0  0.15530865179E-02  0.16418917246E-02 -0.23419778568E-01  0.23528576547E-01  0.00000000000E+00 0. -1.
     999901    1    3    3    0    0 -0.20345901589E-02  0.11123585566E+00  0.83572107244E-01  0.89093313568E+00  0.88000000000E+00 0. -1.
        -11    1    4    4    0    0  0.71500327144E-02 -0.38396557707E-01 -0.13493003626E-01  0.41324821590E-01  0.51100000000E-03 0. -1.
         11    1    4    4    0    0 -0.66685290734E-02 -0.74481189678E-01 -0.46659325051E-01  0.88143466184E-01  0.51100000000E-03 0.  1.
</event>
<event>
 8    1  0.1177602E+005  0.1043930E+01  0.7957747E-01            NaN
         13   -1    0    0    0    0  0.00000000000E+00  0.00000000000E+00  0.74505805969E-08  0.10566000000E+00  0.10566000000E+00 0. -1.
     999900   -1    0    0    0    0 -0.00000000000E+00 -0.00000000000E+00 -0.74505805969E-08  0.93827000000E+00  0.93827000000E+00 0.  1.
     999902    2    1    2    0    0 -0.18838222879E-01  0.31285893140E-02  0.13336368451E-01  0.10206378246E+01  0.10203720123E+01 0.  0.
     999903    2    3    3    0    0  0.43676634370E-01 -0.90294774191E-01 -0.78544654679E-01  0.12874200407E+00  0.18559261786E-01 0.  0.
         14    1    1    2    0    0  0.18838222879E-01 -0.31285893140E-02 -0.13336368451E-01  0.23292175420E-01  0.00000000000E+00 0.  1.
     999901    1    3    3    0    0 -0.62514857249E-01  0.93423363505E-01  0.91881023130E-01  0.89189582051E+00  0.88000000000E+00 0. -1.
        -11    1    4    4    0    0  0.41125791353E-02 -0.12468352072E-01 -0.18853533615E-01  0.22980208034E-01  0.51100000000E-03 0. -1.
         11    1    4    4    0    0  0.39564055235E-01 -0.77826422120E-01 -0.59691121064E-01  0.10576179604E+00  0.51100000000E-03 0.  1.
</event>
<event>
 8    1  0.1177602E+005  0.1043930E+01  0.7957747E-01            NaN
         13   -1    0    0    0    0  0.00000000000E+00  0.00000000000E+00  0.74505805969E-08  0.10566000000E+00  0.10566000000E+00 0. -1.
     999900   -1    0    0    0    0 -0.00000000000E+00 -0.00000000000E+00 -0.74505805969E-08  0.93827000000E+00  0.93827000000E+00 0. -1.
     999902    2    1    2    0    0 -0.66975234862E-02 -0.12038673261E-01 -0.18066915944E-01  0.10212099664E+01  0.10209571958E+01 0.  0.
     999903    2    3    3    0    0 -0.82277113843E-01 -0.10208089515E+00 -0.12962373259E-01  0.13337781304E+00  0.20774630533E-01 0.  0.
         14    1    1    2    0    0  0.66975234862E-02  0.12038673261E-01  0.18066915944E-01  0.22720033593E-01  0.00000000000E+00 0. -1.
     999901    1    3    3    0    0  0.75579590356E-01  0.90042221886E-01 -0.51045426852E-02  0.88783215337E+00  0.88000000000E+00 0.  1.
        -11    1    4    4    0    0 -0.13773056397E-01 -0.67318745078E-02 -0.15884454819E-02  0.15420748910E-01  0.51100000000E-03 0. -1.
         11    1    4    4    0    0 -0.68504057446E-01 -0.95349020640E-01 -0.11373927777E-01  0.11795706413E+00  0.51100000000E-03 0.  1.
</event>
<event>
 8    1  0.1177602E+005  0.1043930E+01  0.7957747E-01            NaN
         13   -1    0    0    0    0  0.00000000000E+00  0.00000000000E+00  0.74505805969E-08  0.10566000000E+00  0.10566000000E+00 0. -1.
     999900   -1    0    0    0    0 -0.00000000000E+00 -0.00000000000E+00 -0.74505805969E-08  0.93827000000E+00  0.93827000000E+00 0.  1.
     999902    2    1    2    0    0  0.20225611073E-01 -0.10244756516E-01  0.66328332056E-02  0.10203074503E+01  0.10200339544E+01 0.  0.
     999903    2    3    3    0    0  0.19682798288E-01  0.77140041133E-01 -0.10064140380E+00  0.12949649421E+00  0.17396877866E-01 0.  0.
         14    1    1    2    0    0 -0.20225611073E-01  0.10244756516E-01 -0.66328332056E-02  0.23622549728E-01  0.00000000000E+00 0.  1.
     999901    1    3    3    0    0  0.54281278440E-03 -0.87384797649E-01  0.10727423701E+00  0.89081095606E+00  0.88000000000E+00 0. -1.
        -11    1    4    4    0    0  0.24429018072E-04  0.33775452437E-01 -0.38695065590E-01  0.51364881058E-01  0.51100000000E-03 0. -1.
         11    1    4    4    0    0  0.19658369270E-01  0.43364588697E-01 -0.61946338215E-01  0.78131613157E-01  0.51100000000E-03 0.  1.
</event>
<event>
 8    1  0.1177602E+005  0.1043930E+01  0.7957747E-01            NaN
         13   -1    0    0    0    0  0.00000000000E+00  0.00000000000E+00  0.74505805969E-08  0.10566000000E+00  0.10566000000E+00 0.  1.
     999900   -1    0    0    0    0 -0.00000000000E+00 -0.00000000000E+00 -0.74505805969E-08  0.93827000000E+00  0.93827000000E+00 0.  1.
     999902    2    1    2    0    0 -0.21552496955E-01 -0.83641794752E-02 -0.14432721253E-01  0.10166761367E+01  0.10163107762E+01 0.  0.
     999903    2    3    3    0    0  0.67185611080E-01  0.10324609318E+00  0.67175246786E-02  0.12494824226E+00  0.19831187851E-01 0.  0.
         14    1    1    2    0    0  0.21552496955E-01  0.83641794752E-02  0.14432721253E-01  0.27253863324E-01  0.00000000000E+00 0.  1.
     999901    1    3    3    0    0 -0.88738108035E-01 -0.11161027266E+00 -0.21150245932E-01  0.89172789442E+00  0.88000000000E+00 0.  1.
        -11    1    4    4    0    0  0.13851463311E-01  0.37088349832E-01 -0.11008890618E-02  0.39609112675E-01  0.51100000000E-03 0.  1.
         11    1    4    4    0    0  0.53334147769E-01  0.66157743352E-01  0.78184137404E-02  0.85339129583E-01  0.51100000000E-03 0. -1.
</event>
<event>
 8    1  0.1177602E+005  0.1043930E+01  0.7957747E-01            NaN
         13   -1    0    0    0    0  0.00000000000E+00  0.00000000000E+00  0.74505805969E-08  0.10566000000E+00  0.10566000000E+00 0. -1.
     999900   -1    0    0    0    0 -0.00000000000E+00 -0.00000000000E+00 -0.74505805969E-08  0.93827000000E+00  0.93827000000E+00 0. -1.
     999902    2    1    2    0    0  0.25274090444E-01 -0.24281834003E-02  0.59901680693E-02  0.10178424966E+01  0.10175081277E+01 0.  0.
     999903    2    3    3    0    0  0.10576160092E+00 -0.34917180455E-01 -0.65381906149E-01  0.13069665328E+00  0.20052326710E-01 0.  0.
         14    1    1    2    0    0 -0.25274090444E-01  0.24281834003E-02 -0.59901680693E-02  0.26087503443E-01  0.00000000000E+00 0. -1.
     999901    1    3    3    0    0 -0.80487510473E-01  0.32488997055E-01  0.71372074218E-01  0.88714584328E+00  0.88000000000E+00 0.  1.
        -11    1    4    4    0    0  0.50436935879E-01 -0.26834382181E-01 -0.30040979467E-01  0.64549904231E-01  0.51100000000E-03 0.  1.
         11    1    4    4    0    0  0.55324665038E-01 -0.80827982743E-02 -0.35340926682E-01  0.66146749046E-01  0.51100000000E-03 0. -1.
</event>
<event>
 8    1  0.1177602E+005  0.1043930E+01  0.7957747E-01            NaN
         13   -1    0    0    0    0  0.00000000000E+00  0.00000000000E+00  0.74505805969E-08  0.10566000000E+00  0.10566000000E+00 0.  1.
     999900   -1    0    0    0    0 -0.00000000000E+00 -0.00000000000E+00 -0.74505805969E-08  0.93827000000E+00  0.93827000000E+00 0.  1.
     999902    2    1    2    0    0  0.22042030839E-02 -0.12069731866E-02  0.22559235200E-01  0.10212312250E+01  0.10209789324E+01 0.  0.
     999903    2    3    3    0    0  0.29086509770E-01  0.20865062677E-01  0.12788683003E+00  0.13426801523E+00  0.19785922453E-01 0.  0.
         14    1    1    2    0    0 -0.22042030839E-02  0.12069731866E-02 -0.22559235200E-01  0.22698775040E-01  0.00000000000E+00 0. -1.
     999901    1    3    3    0    0 -0.26882306686E-01 -0.22072035864E-01 -0.10532759483E+00  0.88696320973E+00  0.88000000000E+00 0.  1.
        -11    1    4    4    0    0  0.25977155133E-01  0.22804627529E-01  0.93565735843E-01  0.99748040935E-01  0.51100000000E-03 0. -1.
         11    1    4    4    0    0  0.31093546373E-02 -0.19395648516E-02  0.34321094189E-01  0.34519974296E-01  0.51100000000E-03 0.  1.
</event>
<event>
 8    1  0.1177602E+005  0.1043930E+01  0.7957747E-01            NaN
         13   -1    0    0    0    0  0.00000000000E+00  0.00000000000E+00  0.74505805969E-08  0.10566000000E+00  0.10566000000E+00 0. -1.
     999900   -1    0    0    0    0 -0.00000000000E+00 -0.00000000000E+00 -0.74505805969E-08  0.93827000000E+00  0.93827000000E+00 0. -1.
     999902    2    1    2    0    0 -0.20857647071E-01 -0.12469836912E-01 -0.47309535739E-02  0.10191727749E+01  0.10188720356E+01 0.  0.
     999903    2    3    3    0    0 -0.10365873455E-01 -0.66360701284E-01 -0.11082913860E+00  0.13110119700E+00  0.19830075243E-01 0.  0.
         14    1    1    2    0    0  0.20857647071E-01  0.12469836912E-01  0.47309535739E-02  0.24757225120E-01  0.00000000000E+00 0.  1.
     999901    1    3    3    0    0 -0.10491773616E-01  0.53890864373E-01  0.10609818503E+00  0.88807157788E+00  0.88000000000E+00 0.  1.
        -11    1    4    4    0    0 -0.17090563487E-02 -0.53799297422E-01 -0.94449870248E-01  0.10871211702E+00  0.51100000000E-03 0.  1.
         11    1    4    4    0    0 -0.86568171063E-02 -0.12561403863E-01 -0.16379268351E-01  0.22389079975E-01  0.51100000000E-03 0. -1.
</event>
<event>
 8    1  0.1177602E+005  0.1043930E+01  0.7957747E-01            NaN
         13   -1    0    0    0    0  0.00000000000E+00  0.00000000000E+00  0.74505805969E-08  0.10566000000E+00  0.10566000000E+00 0. -1.
     999900   -1    0    0    0    0 -0.00000000000E+00 -0.00000000000E+00 -0.74505805969E-08  0.93827000000E+00  0.93827000000E+00 0.  1.
     999902    2    1    2    0    0  0.17315737428E-01  0.16554693546E-01 -0.12267193408E-02  0.10199425558E+01  0.10196604433E+01 0.  0.
     999903    2    3    3    0    0 -0.31132604081E-01 -0.11319239289E+00 -0.46545227916E-01  0.12795863468E+00  0.20620308033E-01 0.  0.
         14    1    1    2    0    0 -0.17315737428E-01 -0.16554693546E-01  0.12267193408E-02  0.23987444245E-01  0.00000000000E+00 0. -1.
     999901    1    3    3    0    0  0.48448341509E-01  0.12974708643E+00  0.45318508575E-01  0.89198392107E+00  0.88000000000E+00 0.  1.
        -11    1    4    4    0    0 -0.25844080161E-01 -0.79266754273E-01 -0.41885254451E-01  0.93304718389E-01  0.51100000000E-03 0.  1.
         11    1    4    4    0    0 -0.52885239202E-02 -0.33925638616E-01 -0.46599734642E-02  0.34653916293E-01  0.51100000000E-03 0. -1.
</event>
<event>
 8    1  0.1177602E+005  0.1043930E+01  0.7957747E-01            NaN
         13   -1    0    0    0    0  0.00000000000E+00  0.00000000000E+00  0.74505805969E-08  0.10566000000E+00  0.10566000000E+00 0.  1.
     999900   -1    0    0    0    0 -0.00000000000E+00 -0.00000000000E+00 -0.74505805969E-08  0.93827000000E+00  0.93827000000E+00 0. -1.
     999902    2    1    2    0    0  0.23871756793E-01 -0.65068061114E-02 -0.34566613459E-02  0.10189470497E+01  0.10186407327E+01 0.  0.
     999903    2    3    3    0    0 -0.22639127130E-01  0.77088692899E-01  0.97592056681E-01  0.12801365533E+00  0.20201232008E-01 0.  0.
         14    1    1    2    0    0 -0.23871756793E-01  0.65068061114E-02  0.34566613459E-02  0.24982950302E-01  0.00000000000E+00 0.  1.
     999901    1    3    3    0    0  0.46510883923E-01 -0.83595499010E-01 -0.10104871803E+00  0.89093339436E+00  0.88000000000E+00 0. -1.
        -11    1    4    4    0    0 -0.62224849419E-02  0.54631769508E-01  0.63025022926E-01  0.83640685042E-01  0.51100000000E-03 0. -1.
         11    1    4    4    0    0 -0.16416642188E-01  0.22456923390E-01  0.34567033755E-01  0.44372970292E-01  0.51100000000E-03 0.  1.
</event>
<event>
 8    1  0.1177602E+005  0.1043930E+01  0.7957747E-01            NaN
         13   -1    0    0    0    0  0.00000000000E+00  0.00000000000E+00  0.74505805969E-08  0.10566000000E+00  0.10566000000E+00 0. -1.
     999900   -1    0    0    0    0 -0.00000000000E+00 -0.00000000000E+00 -0.74505805969E-08  0.93827000000E+00  0.93827000000E+00 0.  1.
     999902    2    1    2    0    0 -0.11272822730E-01  0.21076983315E-01  0.34150957916E-02  0.10197850494E+01  0.10194991753E+01 0.  0.
     999903    2    3    3    0    0  0.41828349865E-01 -0.11715727250E+00 -0.17033426237E-01  0.12717842497E+00  0.20218229805E-01 0.  0.
         14    1    1    2    0    0  0.11272822730E-01 -0.21076983315E-01 -0.34150957916E-02  0.24144950553E-01  0.00000000000E+00 0.  1.
     999901    1    3    3    0    0 -0.53101172595E-01  0.13823425581E+00  0.20448522029E-01  0.89260662448E+00  0.88000000000E+00 0. -1.
        -11    1    4    4    0    0  0.29255449200E-01 -0.61152782026E-01 -0.16516633904E-01  0.69775385158E-01  0.51100000000E-03 0.  1.
         11    1    4    4    0    0  0.12572900665E-01 -0.56004490471E-01 -0.51679233312E-03  0.57403039810E-01  0.51100000000E-03 0. -1.
</event>
<event>
 8    1  0.1177602E+005  0.1043930E+01  0.7957747E-01            NaN
         13   -1    0    0    0    0  0.00000000000E+00  0.00000000000E+00  0.74505805969E-08  0.10566000000E+00  0.10566000000E+00 0.  1.
     999900   -1    0    0    0    0 -0.00000000000E+00 -0.00000000000E+00 -0.74505805969E-08  0.93827000000E+00  0.93827000000E+00 0. -1.
     999902    2    1    2    0    0  0.15130586146E-01 -0.13285456308E-01  0.12701196991E-01  0.10201233120E+01  0.10198454851E+01 0.  0.
     999903    2    3    3    0    0 -0.10750449679E+00  0.65225647280E-01 -0.87115311067E-02  0.12790032317E+00  0.21702534372E-01 0.  0.
         14    1    1    2    0    0 -0.15130586146E-01  0.13285456308E-01 -0.12701196991E-01  0.23806687956E-01  0.00000000000E+00 0.  1.
     999901    1    3    3    0    0  0.12263508294E+00 -0.78511103588E-01  0.21412728098E-01  0.89222298888E+00  0.88000000000E+00 0. -1.
        -11    1    4    4    0    0 -0.88738236989E-01  0.45283327753E-01 -0.17513353100E-02  0.99641270429E-01  0.51100000000E-03 0.  1.
         11    1    4    4    0    0 -0.18766259805E-01  0.19942319526E-01 -0.69601957968E-02  0.28259052739E-01  0.51100000000E-03 0. -1.
</event>
<event>
 8    1  0.1177602E+005  0.1043930E+01  0.7957747E-01            NaN
         13   -1    0    0    0    0  0.00000000000E+00  0.00000000000E+00  0.74505805969E-08  0.10566000000E+00  0.10566000000E+00 0. -1.
     999900   -1    0    0    0    0 -0.00000000000E+00 -0.00000000000E+00 -0.74505805969E-08  0.93827000000E+00  0.93827000000E+00 0.  1.
     999902    2    1    2    0    0 -0.18979760078E-01  0.98932613231E-02  0.11377526083E-01  0.10196904453E+01  0.10194022995E+01 0.  0.
     999903    2    3    3    0    0 -0.67577684801E-01 -0.89714962468E-01  0.64465235574E-01  0.13115127259E+00  0.20721286931E-01 0.  0.
         14    1    1    2    0    0  0.18979760078E-01 -0.98932613231E-02 -0.11377526083E-01  0.24239554699E-01  0.00000000000E+00 0. -1.
     999901    1    3    3    0    0  0.48597924723E-01  0.99608223791E-01 -0.53087709491E-01  0.88853917271E+00  0.88000000000E+00 0.  1.
        -11    1    4    4    0    0 -0.54967586806E-01 -0.78730363207E-01  0.46797344089E-01  0.10681834217E+00  0.51100000000E-03 0. -1.
         11    1    4    4    0    0 -0.12610097995E-01 -0.10984599260E-01  0.17667891485E-01  0.24332930421E-01  0.51100000000E-03 0.  1.
</event>
<event>
 8    1  0.1177602E+005  0.1043930E+01  0.7957747E-01            NaN
         13   -1    0    0    0    0  0.00000000000E+00  0.00000000000E+00  0.74505805969E-08  0.10566000000E+00  0.10566000000E+00 0. -1.
     999900   -1    0    0    0    0 -0.00000000000E+00 -0.00000000000E+00 -0.74505805969E-08  0.93827000000E+00  0.93827000000E+00 0.  1.
     999902    2    1    2    0    0  0.17104969721E-01  0.49220087448E-03  0.14519532845E-01  0.10214880953E+01  0.10212415433E+01 0.  0.
     999903    2    3    3    0    0  0.67912441206E-01 -0.56689004071E-01  0.98620994514E-01  0.13417521635E+00  0.21240180581E-01 0.  0.
         14    1    1    2    0    0 -0.17104969721E-01 -0.49220087448E-03 -0.14519532845E-01  0.22441904662E-01  0.00000000000E+00 0.  1.
     999901    1    3    3    0    0 -0.50807471485E-01  0.57181204946E-01 -0.84101461670E-01  0.88731287899E+00  0.88000000000E+00 0.  1.
        -11    1    4    4    0    0  0.46751243190E-01 -0.38768811420E-01  0.81278642755E-01  0.10146515839E+00  0.51100000000E-03 0. -1.
         11    1    4    4    0    0  0.21161198016E-01 -0.17920192651E-01  0.17342351759E-01  0.32710057959E-01  0.51100000000E-03 0.  1.
</event>
<event>
 8    1  0.1177602E+005  0.1043930E+01  0.7957747E-01            NaN
         13   -1    0    0    0    0  0.00000000000E+00  0.00000000000E+00  0.74505805969E-08  0.10566000000E+00  0.10566000000E+00 0.  1.
     999900   -1    0    0    0    0 -0.00000000000E+00 -0.00000000000E+00 -0.74505805969E-08  0.93827000000E+00  0.93827000000E+00 0.  1.
     999902    2    1    2    0    0 -0.27144233983E-01 -0.43673366707E-02 -0.94543867177E-02  0.10148564984E+01  0.10144399656E+01 0.  0.
     999903    2    3    3    0    0  0.11341799603E+00  0.26167919066E-01  0.31943048567E-01  0.12221777527E+00  0.19194385369E-01 0.  0.
         14    1    1    2    0    0  0.27144233983E-01  0.43673366707E-02  0.94543867177E-02  0.29073501618E-01  0.00000000000E+00 0. -1.
     999901    1    3    3    0    0 -0.14056223001E+00 -0.30535255736E-01 -0.41397435285E-01  0.89263872311E+00  0.88000000000E+00 0. -1.
        -11    1    4    4    0    0  0.41858585537E-01  0.79887383480E-03  0.81791680385E-02  0.42660746517E-01  0.51100000000E-03 0. -1.
         11    1    4    4    0    0  0.71559410489E-01  0.25369045231E-01  0.23763880528E-01  0.79557028754E-01  0.51100000000E-03 0.  1.
</event>
<event>
 8    1  0.1177602E+005  0.1043930E+01  0.7957747E-01            NaN
         13   -1    0    0    0    0  0.00000000000E+00  0.00000000000E+00  0.74505805969E-08  0.10566000000E+00  0.10566000000E+00 0.  1.
     999900   -1    0    0    0    0 -0.00000000000E+00 -0.00000000000E+00 -0.74505805969E-08  0.93827000000E+00  0.93827000000E+00 0. -1.
     999902    2    1    2    0    0  0.16808870349E-01  0.98263748836E-02  0.12958088099E-01  0.10205418018E+01  0.10202737679E+01 0.  0.
     999903    2    3    3    0    0 -0.83197208035E-01 -0.71033919789E-01 -0.63156486310E-01  0.12794277014E+00  0.20322831543E-01 0.  0.
         14    1    1    2    0    0 -0.16808870349E-01 -0.98263748836E-02 -0.12958088099E-01  0.23388198155E-01  0.00000000000E+00 0.  1.
     999901    1    3    3    0    0  0.10000607838E+00  0.80860294672E-01  0.76114574410E-01  0.89259903171E+00  0.88000000000E+00 0.  1.
        -11    1    4    4    0    0 -0.57619115586E-01 -0.50469848723E-01 -0.33128514384E-01  0.83456142358E-01  0.51100000000E-03 0.  1.
         11    1    4    4    0    0 -0.25578092449E-01 -0.20564071066E-01 -0.30027971926E-01  0.44486627779E-01  0.51100000000E-03 0. -1.
</event>
<event>
 8    1  0.1177602E+005  0.1043930E+01  0.7957747E-01            NaN
         13   -1    0    0    0    0  0.00000000000E+00  0.00000000000E+00  0.74505805969E-08  0.10566000000E+00  0.10566000000E+00 0.  1.
     999900   -1    0    0    0    0 -0.00000000000E+00 -0.00000000000E+00 -0.74505805969E-08  0.93827000000E+00  0.93827000000E+00 0. -1.
     999902    2    1    2    0    0 -0.22862460412E-01  0.20595989743E-03  0.53223809704E-02  0.10204552848E+01  0.10201852410E+01 0.  0.
     999903    2    3    3    0    0 -0.11324327804E+00  0.27461209837E-01  0.62199268169E-01  0.13358070450E+00  0.19922288717E-01 0.  0.
         14    1    1    2    0    0  0.22862460412E-01 -0.20595989743E-03 -0.53223809704E-02  0.23474715222E-01  0.00000000000E+00 0.  1.
     999901    1    3    3    0    0  0.90380817625E-01 -0.27255249940E-01 -0.56876887199E-01  0.88687458028E+00  0.88000000000E+00 0. -1.
        -11    1    4    4    0    0 -0.76374234196E-01  0.11939766090E-01  0.48669221714E-01  0.91348431440E-01  0.51100000000E-03 0. -1.
         11    1    4    4    0    0 -0.36869043842E-01  0.15521443747E-01  0.13530046455E-01  0.42232273061E-01  0.51100000000E-03 0.  1.
</event>
<event>
 8    1  0.1177602E+005  0.1043930E+01  0.7957747E-01            NaN
         13   -1    0    0    0    0  0.00000000000E+00  0.00000000000E+00  0.74505805969E-08  0.10566000000E+00  0.10566000000E+00 0. -1.
     999900   -1    0    0    0    0 -0.00000000000E+00 -0.00000000000E+00 -0.74505805969E-08  0.93827000000E+00  0.93827000000E+00 0.  1.
     999902    2    1    2    0    0 -0.18986079177E-02 -0.13056076045E-01  0.19004971340E-01  0.10207944263E+01  0.10205322171E+01 0.  0.
     999903    2    3    3    0    0  0.11898175092E+00 -0.74661447756E-03 -0.48243881306E-01  0.12990386504E+00  0.19756709829E-01 0.  0.
         14    1    1    2    0    0  0.18986079177E-02  0.13056076045E-01 -0.19004971340E-01  0.23135573677E-01  0.00000000000E+00 0.  1.
     999901    1    3    3    0    0 -0.12088035884E+00 -0.12309461568E-01  0.67248852646E-01  0.89089056128E+00  0.88000000000E+00 0. -1.
        -11    1    4    4    0    0  0.11118498551E+00 -0.49237670328E-03 -0.39072458470E-01  0.11785271134E+00  0.51100000000E-03 0.  1.
         11    1    4    4    0    0  0.77967654124E-02 -0.25423777428E-03 -0.91714228357E-02  0.12051153703E-01  0.51100000000E-03 0. -1.
</event>
<event>
 8    1  0.1177602E+005  0.1043930E+01  0.7957747E-01            NaN
         13   -1    0    0    0    0  0.00000000000E+00  0.00000000000E+00  0.74505805969E-08  0.10566000000E+00  0.10566000000E+00 0. -1.
     999900   -1    0    0    0    0 -0.00000000000E+00 -0.00000000000E+00 -0.74505805969E-08  0.93827000000E+00  0.93827000000E+00 0.  1.
     999902    2    1    2    0    0 -0.79246461057E-02 -0.19860736350E-01  0.93143640345E-02  0.10206060586E+01  0.10203395124E+01 0.  0.
     999903    2    3    3    0    0 -0.84594933306E-01 -0.10546104384E-01  0.99595278960E-01  0.13262197154E+00  0.20046064066E-01 0.  0.
         14    1    1    2    0    0  0.79246461057E-02  0.19860736350E-01 -0.93143640345E-02  0.23323941382E-01  0.00000000000E+00 0.  1.
     999901    1    3    3    0    0  0.76670287200E-01 -0.93146319656E-02 -0.90280914926E-01  0.88798408708E+00  0.88000000000E+00 0.  1.
        -11    1    4    4    0    0 -0.31166014743E-01  0.57218662425E-02  0.37756286570E-01  0.49293595170E-01  0.51100000000E-03 0.  1.
         11    1    4    4    0    0 -0.53428918563E-01 -0.16267970626E-01  0.61838992391E-01  0.83328376367E-01  0.51100000000E-03 0. -1.
</event>
<event>
 8    1  0.1177602E+005  0.1043930E+01  0.7957747E-01            NaN
         13   -1    0    0    0    0  0.00000000000E+00  0.00000000000E+00  0.74505805969E-08  0.10566000000E+00  0.10566000000E+00 0. -1.
     999900   -1    0    0    0    0 -0.00000000000E+00 -0.00000000000E+00 -0.74505805969E-08  0.93827000000E+00  0.93827000000E+00 0.  1.
     999902    2    1    2    0    0 -0.72352416867E-02  0.31194849515E-02 -0.17435334519E-01  0.10247970233E+01  0.10246184012E+01 0.  0.
     999903    2    3    3    0    0 -0.11608494836E+00 -0.50004669627E-01 -0.46387971623E-01  0.13602894912E+00  0.19386821999E-01 0.  0.
         14    1    1    2    0    0  0.72352416867E-02 -0.31194849515E-02  0.17435334519E-01  0.19132976727E-01  0.00000000000E+00 0. -1.
     999901    1    3    3    0    0  0.10884970667E+00  0.53124154578E-01  0.28952637104E-01  0.88876807416E+00  0.88000000000E+00 0.  1.
        -11    1    4    4    0    0 -0.50519928426E-01 -0.32115937566E-01 -0.23533959254E-01  0.64325772230E-01  0.51100000000E-03 0. -1.
         11    1    4    4    0    0 -0.65565019932E-01 -0.17888732061E-01 -0.22854012369E-01  0.71703176888E-01  0.51100000000E-03 0.  1.
</event>
<event>
 8    1  0.1177602E+005  0.1043930E+01  0.7957747E-01            NaN
         13   -1    0    0    0    0  0.00000000000E+00  0.00000000000E+00  0.74505805969E-08  0.10566000000E+00  0.10566000000E+00 0.  1.
     999900   -1    0    0    0    0 -0.00000000000E+00 -0.00000000000E+00 -0.74505805969E-08  0.93827000000E+00  0.93827000000E+00 0.  1.
     999902    2    1    2    0    0 -0.97075534368E-02 -0.20405680337E-01 -0.93989913193E-02  0.10194561482E+01  0.10191623368E+01 0.  0.
     999903    2    3    3    0    0 -0.11342859858E-02  0.12014616548E+00 -0.38930997320E-01  0.12777208888E+00  0.19331230162E-01 0.  0.
         14    1    1    2    0    0  0.97075534368E-02  0.20405680337E-01  0.93989913193E-02  0.24473851792E-01  0.00000000000E+00 0.  1.
     999901    1    3    3    0    0 -0.85732674510E-02 -0.14055184582E+00  0.29532006001E-01  0.89168405933E+00  0.88000000000E+00 0. -1.
        -11    1    4    4    0    0  0.80540586948E-02  0.52530527125E-01 -0.12529505967E-01  0.54603789084E-01  0.51100000000E-03 0.  1.
         11    1    4    4    0    0 -0.91883446806E-02  0.67615638359E-01 -0.26401491353E-01  0.73168299798E-01  0.51100000000E-03 0. -1.
</event>
<event>
 8    1  0.1177602E+005  0.1043930E+01  0.7957747E-01            NaN
         13   -1    0    0    0    0  0.00000000000E+00  0.00000000000E+00  0.74505805969E-08  0.10566000000E+00  0.10566000000E+00 0.  1.
     999900   -1    0    0    0    0 -0.00000000000E+00 -0.00000000000E+00 -0.74505805969E-08  0.93827000000E+00  0.93827000000E+00 0. -1.
     999902    2    1    2    0    0 -0.21045733304E-01 -0.11381853667E-01  0.21465640968E-01  0.10117858991E+01  0.10112751665E+01 0.  0.
     999903    2    3    3    0    0  0.52166380099E-01  0.10493948270E+00  0.23608285940E-01  0.12111465905E+00  0.19436646599E-01 0.  0.
         14    1    1    2    0    0  0.21045733304E-01  0.11381853667E-01 -0.21465640968E-01  0.32144100942E-01  0.00000000000E+00 0. -1.
     999901    1    3    3    0    0 -0.73212113403E-01 -0.11632133637E+00 -0.21426449716E-02  0.89067124000E+00  0.88000000000E+00 0.  1.
        -11    1    4    4    0    0  0.11519925046E-01  0.33504700683E-01 -0.58090878214E-03  0.35438287444E-01  0.51100000000E-03 0.  1.
         11    1    4    4    0    0  0.40646455053E-01  0.71434782015E-01  0.24189194722E-01  0.85676371610E-01  0.51100000000E-03 0. -1.
</event>
<event>
 8    1  0.1177602E+005  0.1043930E+01  0.7957747E-01            NaN
         13   -1    0    0    0    0  0.00000000000E+00  0.00000000000E+00  0.74505805969E-08  0.10566000000E+00  0.10566000000E+00 0.  1.
     999900   -1    0    0    0    0 -0.00000000000E+00 -0.00000000000E+00 -0.74505805969E-08  0.93827000000E+00  0.93827000000E+00 0.  1.
     999902    2    1    2    0    0  0.17041299008E-02  0.17968676153E-01 -0.16549453384E-01  0.10194420073E+01  0.10191478521E+01 0.  0.
     999903    2    3    3    0    0 -0.58373958332E-01 -0.10260057653E+00 -0.46598003717E-01  0.12868433159E+00  0.21304598841E-01 0.  0.
         14    1    1    2    0    0 -0.17041299008E-02 -0.17968676153E-01  0.16549453384E-01  0.24487992746E-01  0.00000000000E+00 0. -1.
     999901    1    3    3    0    0  0.60078088233E-01  0.12056925268E+00  0.30048550332E-01  0.89075767566E+00  0.88000000000E+00 0. -1.
        -11    1    4    4    0    0 -0.34762134195E-01 -0.53531799338E-01 -0.35742316221E-01  0.73156228744E-01  0.51100000000E-03 0.  1.
         11    1    4    4    0    0 -0.23611824137E-01 -0.49068777187E-01 -0.10855687496E-01  0.55528102847E-01  0.51100000000E-03 0. -1.
</event>
<event>
 8    1  0.1177602E+005  0.1043930E+01  0.7957747E-01            NaN
         13   -1    0    0    0    0  0.00000000000E+00  0.00000000000E+00  0.74505805969E-08  0.10566000000E+00  0.10566000000E+00 0.  1.
     999900   -1    0    0    0    0 -0.00000000000E+00 -0.00000000000E+00 -0.74505805969E-08  0.93827000000E+00  0.93827000000E+00 0.  1.
     999902    2    1    2    0    0 -0.17346372540E-01  0.25617004597E-02 -0.16417203261E-01  0.10199095189E+01  0.10196266195E+01 0.  0.
     999903    2    3    3    0    0  0.56366446911E-01  0.16534205493E-01  0.11144581057E+00  0.12750951836E+00  0.19696504509E-01 0.  0.
         14    1    1    2    0    0  0.17346372540E-01 -0.25617004597E-02  0.16417203261E-01  0.24020481104E-01  0.00000000000E+00 0.  1.
     999901    1    3    3    0    0 -0.73712819451E-01 -0.13972505033E-01 -0.12786301383E+00  0.89240000054E+00  0.88000000000E+00 0.  1.
        -11    1    4    4    0    0  0.25881400122E-01  0.57200475920E-02  0.70541654720E-01  0.75358821570E-01  0.51100000000E-03 0. -1.
         11    1    4    4    0    0  0.30485046789E-01  0.10814157901E-01  0.40904155853E-01  0.52150696792E-01  0.51100000000E-03 0.  1.
</event>
<event>
 8    1  0.1177602E+005  0.1043930E+01  0.7957747E-01            NaN
         13   -1    0    0    0    0  0.00000000000E+00  0.00000000000E+00  0.74505805969E-08  0.10566000000E+00  0.10566000000E+00 0. -1.
     999900   -1    0    0    0    0 -0.00000000000E+00 -0.00000000000E+00 -0.74505805969E-08  0.93827000000E+00  0.93827000000E+00 0. -1.
     999902    2    1    2    0    0 -0.12830257592E-01  0.17350547376E-01 -0.36822850895E-02  0.10220389921E+01  0.10218045239E+01 0.  0.
     999903    2    3    3    0    0  0.60491486305E-01  0.11826177213E-01 -0.11514659276E+00  0.13196546216E+00  0.18896216404E-01 0.  0.
         14    1    1    2    0    0  0.12830257592E-01 -0.17350547376E-01  0.36822850895E-02  0.21891007916E-01  0.00000000000E+00 0.  1.
     999901    1    3    3    0    0 -0.73321743896E-01  0.55243701627E-02  0.11146430767E+00  0.89007352993E+00  0.88000000000E+00 0.  1.
        -11    1    4    4    0    0  0.28287455077E-01  0.12549108293E-02 -0.35551076581E-01  0.45452118576E-01  0.51100000000E-03 0. -1.
         11    1    4    4    0    0  0.32204031227E-01  0.10571266384E-01 -0.79595516181E-01  0.86513343580E-01  0.51100000000E-03 0.  1.
</event>
<event>
 8    1  0.1177602E+005  0.1043930E+01  0.7957747E-01            NaN
         13   -1    0    0    0    0  0.00000000000E+00  0.00000000000E+00  0.74505805969E-08  0.10566000000E+00  0.10566000000E+00 0.  1.
     999900   -1    0    0    0    0 -0.00000000000E+00 -0.00000000000E+00 -0.74505805969E-08  0.93827000000E+00  0.93827000000E+00 0.  1.
     999902    2    1    2    0    0 -0.73179894548E-02 -0.20745514932E-01  0.66512067792E-02  0.10209480960E+01  0.10206893978E+01 0.  0.
     999903    2    3    3    0    0  0.62867452543E-02  0.92293860695E-01  0.88852500818E-01  0.12981396357E+00  0.19980449172E-01 0.  0.
         14    1    1    2    0    0  0.73179894548E-02  0.20745514932E-01 -0.66512067792E-02  0.22981903992E-01  0.00000000000E+00 0. -1.
     999901    1    3    3    0    0 -0.13604734709E-01 -0.11303937563E+00 -0.82201294039E-01  0.89113413243E+00  0.88000000000E+00 0.  1.
        -11    1    4    4    0    0 -0.84101035510E-03  0.48631980304E-01  0.34020595727E-01  0.59358561820E-01  0.51100000000E-03 0. -1.
         11    1    4    4    0    0  0.71277556094E-02  0.43661880391E-01  0.54831905091E-01  0.70455401753E-01  0.51100000000E-03 0.  1.
</event>
<event>
 8    1  0.1177602E+005  0.1043930E+01  0.7957747E-01            NaN
         13   -1    0    0    0    0  0.00000000000E+00  0.00000000000E+00  0.74505805969E-08  0.10566000000E+00  0.10566000000E+00 0.  1.
     999900   -1    0    0    0    0 -0.00000000000E+00 -0.00000000000E+00 -0.74505805969E-08  0.93827000000E+00  0.93827000000E+00 0.  1.
     999902    2    1    2    0    0 -0.16722413990E-01  0.25380127661E-02  0.17067822294E-01  0.10199010342E+01  0.10196179326E+01 0.  0.
     999903    2    3    3    0    0 -0.84232532474E-01 -0.41813503209E-01 -0.86518761198E-01  0.13015115176E+00  0.24705013402E-01 0.  0.
         14    1    1    2    0    0  0.16722413990E-01 -0.25380127661E-02 -0.17067822294E-01  0.24028965776E-01  0.00000000000E+00 0. -1.
     999901    1    3    3    0    0  0.67510118485E-01  0.44351515975E-01  0.10358658349E+00  0.88974988247E+00  0.88000000000E+00 0.  1.
        -11    1    4    4    0    0 -0.58164770769E-01 -0.38360395736E-01 -0.52989422623E-01  0.87537423714E-01  0.51100000000E-03 0.  1.
         11    1    4    4    0    0 -0.26067761705E-01 -0.34531074730E-02 -0.33529338575E-01  0.42613728044E-01  0.51100000000E-03 0. -1.
</event>
<event>
 8    1  0.1177602E+005  0.1043930E+01  0.7957747E-01            NaN
         13   -1    0    0    0    0  0.00000000000E+00  0.00000000000E+00  0.74505805969E-08  0.10566000000E+00  0.10566000000E+00 0. -1.
     999900   -1    0    0    0    0 -0.00000000000E+00 -0.00000000000E+00 -0.74505805969E-08  0.93827000000E+00  0.93827000000E+00 0. -1.
     999902    2    1    2    0    0  0.16034847945E-01 -0.13971189069E-01  0.11548007635E-01  0.10197294431E+01  0.10194422349E+01 0.  0.
     999903    2    3    3    0    0 -0.58059583565E-02 -0.73624641666E-02 -0.12652749153E+00  0.12867078090E+00  0.21425422136E-01 0.  0.
         14    1    1    2    0    0 -0.16034847945E-01  0.13971189069E-01 -0.11548007635E-01  0.24200556873E-01  0.00000000000E+00 0.  1.
     999901    1    3    3    0    0  0.21840806302E-01 -0.66087249028E-02  0.13807549916E+00  0.89105866223E+00  0.88000000000E+00 0.  1.
        -11    1    4    4    0    0  0.41826706164E-02  0.22101003990E-02 -0.79641749422E-01  0.79783761814E-01  0.51100000000E-03 0. -1.
         11    1    4    4    0    0 -0.99886289730E-02 -0.95725645656E-02 -0.46885742105E-01  0.48887019083E-01  0.51100000000E-03 0.  1.
</event>
<event>
 8    1  0.1177602E+005  0.1043930E+01  0.7957747E-01            NaN
         13   -1    0    0    0    0  0.00000000000E+00  0.00000000000E+00  0.74505805969E-08  0.10566000000E+00  0.10566000000E+00 0. -1.
     999900   -1    0    0    0    0 -0.00000000000E+00 -0.00000000000E+00 -0.74505805969E-08  0.93827000000E+00  0.93827000000E+00 0.  1.
     999902    2    1    2    0    0  0.46248545504E-02 -0.60965617244E-02 -0.24189102361E-01  0.10185593473E+01  0.10182433275E+01 0.  0.
     999903    2    3    3    0    0  0.11489543421E+00 -0.26214884129E-02 -0.59231128060E-01  0.13097857892E+00  0.20957781390E-01 0.  0.
         14    1    1    2    0    0 -0.46248545504E-02  0.60965617244E-02  0.24189102361E-01  0.25370652681E-01  0.00000000000E+00 0. -1.
     999901    1    3    3    0    0 -0.11027057966E+00 -0.34750733115E-02  0.35042025699E-01  0.88758076840E+00  0.88000000000E+00 0.  1.
        -11    1    4    4    0    0  0.83853984002E-01 -0.10253403965E-01 -0.47541375608E-01  0.96938467296E-01  0.51100000000E-03 0.  1.
         11    1    4    4    0    0  0.31041450204E-01  0.76319155525E-02 -0.11689752451E-01  0.34040111621E-01  0.51100000000E-03 0. -1.
</event>
<event>
 8    1  0.1177602E+005  0.1043930E+01  0.7957747E-01            NaN
         13   -1    0    0    0    0  0.00000000000E+00  0.00000000000E+00  0.74505805969E-08  0.10566000000E+00  0.10566000000E+00 0. -1.
     999900   -1    0    0    0    0 -0.00000000000E+00 -0.00000000000E+00 -0.74505805969E-08  0.93827000000E+00  0.93827000000E+00 0. -1.
     999902    2    1    2    0    0  0.19464650193E-01 -0.10372582154E-01 -0.78004204984E-02  0.10205353504E+01  0.10202671669E+01 0.  0.
     999903    2    3    3    0    0  0.10773394169E+00 -0.61035490632E-01 -0.46699293330E-01  0.13381593574E+00  0.19848107010E-01 0.  0.
         14    1    1    2    0    0 -0.19464650193E-01  0.10372582154E-01  0.78004204984E-02  0.23394649551E-01  0.00000000000E+00 0. -1.
     999901    1    3    3    0    0 -0.88269291495E-01  0.50662908478E-01  0.38898872831E-01  0.88671941471E+00  0.88000000000E+00 0.  1.
        -11    1    4    4    0    0  0.60904699349E-01 -0.40763257710E-01 -0.36090910789E-01  0.81693577131E-01  0.51100000000E-03 0. -1.
         11    1    4    4    0    0  0.46829242339E-01 -0.20272232922E-01 -0.10608382541E-01  0.52122358608E-01  0.51100000000E-03 0.  1.
</event>
<event>
 8    1  0.1177602E+005  0.1043930E+01  0.7957747E-01            NaN
         13   -1    0    0    0    0  0.00000000000E+00  0.00000000000E+00  0.74505805969E-08  0.10566000000E+00  0.10566000000E+00 0.  1.
     999900   -1    0    0    0    0 -0.00000000000E+00 -0.00000000000E+00 -0.74505805969E-08  0.93827000000E+00  0.93827000000E+00 0. -1.
     999902    2    1    2    0    0  0.28604743084E-02 -0.16761055085E-01  0.15202390903E-01  0.10211214935E+01  0.10208667281E+01 0.  0.
     999903    2    3    3    0    0 -0.57737544192E-01  0.11302174036E+00  0.16784452981E-01  0.12953964263E+00  0.19780377827E-01 0.  0.
         14    1    1    2    0    0 -0.28604743084E-02  0.16761055085E-01 -0.15202390903E-01  0.22808506527E-01  0.00000000000E+00 0. -1.
     999901    1    3    3    0    0  0.60598018500E-01 -0.12978279544E+00 -0.15820620771E-02  0.89158185085E+00  0.88000000000E+00 0. -1.
        -11    1    4    4    0    0 -0.11972831465E-01  0.41167049160E-01  0.93930201403E-03  0.42886105432E-01  0.51100000000E-03 0. -1.
         11    1    4    4    0    0 -0.45764712727E-01  0.71854691197E-01  0.15845150967E-01  0.86653537194E-01  0.51100000000E-03 0.  1.
</event>
<event>
 8    1  0.1177602E+005  0.1043930E+01  0.7957747E-01            NaN
         13   -1    0    0    0    0  0.00000000000E+00  0.00000000000E+00  0.74505805969E-08  0.10566000000E+00  0.10566000000E+00 0.  1.
     999900   -1    0    0    0    0 -0.00000000000E+00 -0.00000000000E+00 -0.74505805969E-08  0.93827000000E+00  0.93827000000E+00 0.  1.
     999902    2    1    2    0    0 -0.23429817671E-01 -0.23716367188E-02 -0.78083587297E-04  0.10203803267E+01  0.10201085354E+01 0.  0.
     999903    2    3    3    0    0  0.35961035861E-01  0.61464147699E-01 -0.10656838109E+00  0.12968258652E+00  0.19741221958E-01 0.  0.
         14    1    1    2    0    0  0.23429817671E-01  0.23716367188E-02  0.78083587297E-04  0.23549673328E-01  0.00000000000E+00 0.  1.
     999901    1    3    3    0    0 -0.59390853532E-01 -0.63835784418E-01  0.10649029750E+00  0.89069774016E+00  0.88000000000E+00 0. -1.
        -11    1    4    4    0    0  0.44550467742E-03  0.12548569309E-01 -0.26761255300E-01  0.29565029551E-01  0.51100000000E-03 0. -1.
         11    1    4    4    0    0  0.35515531184E-01  0.48915578390E-01 -0.79807125792E-01  0.10011755697E+00  0.51100000000E-03 0.  1.
</event>
<event>
 8    1  0.1177602E+005  0.1043930E+01  0.7957747E-01            NaN
         13   -1    0    0    0    0  0.00000000000E+00  0.00000000000E+00  0.74505805969E-08  0.10566000000E+00  0.10566000000E+00 0. -1.
     999900   -1    0    0    0    0 -0.00000000000E+00 -0.00000000000E+00 -0.74505805969E-08  0.93827000000E+00  0.93827000000E+00 0.  1.
     999902    2    1    2    0    0 -0.48159835510E-02  0.14649830057E-01 -0.17217170895E-01  0.10208163202E+01  0.10205546127E+01 0.  0.
     999903    2    3    3    0    0  0.30741867730E-01 -0.10872440898E+00 -0.61830551877E-01  0.13038051829E+00  0.20248527419E-01 0.  0.
         14    1    1    2    0    0  0.48159835510E-02 -0.14649830057E-01  0.17217170895E-01  0.23113679756E-01  0.00000000000E+00 0.  1.
     999901    1    3    3    0    0 -0.35557851281E-01  0.12337423904E+00  0.44613380982E-01  0.89043580196E+00  0.88000000000E+00 0.  1.
        -11    1    4    4    0    0  0.20316808741E-01 -0.52192919100E-01 -0.40266817878E-01  0.68982253258E-01  0.51100000000E-03 0. -1.
         11    1    4    4    0    0  0.10425058989E-01 -0.56531489883E-01 -0.21563734000E-01  0.61398265027E-01  0.51100000000E-03 0.  1.
</event>
<event>
 8    1  0.1177602E+005  0.1043930E+01  0.7957747E-01            NaN
         13   -1    0    0    0    0  0.00000000000E+00  0.00000000000E+00  0.74505805969E-08  0.10566000000E+00  0.10566000000E+00 0. -1.
     999900   -1    0    0    0    0 -0.00000000000E+00 -0.00000000000E+00 -0.74505805969E-08  0.93827000000E+00  0.93827000000E+00 0. -1.
     999902    2    1    2    0    0 -0.39884617873E-02 -0.26505857149E-02  0.23339754532E-01  0.10201040147E+01  0.10198257318E+01 0.  0.
     999903    2    3    3    0    0  0.46365213605E-01 -0.75238457016E-01 -0.90660625302E-01  0.12836381811E+00  0.21150942587E-01 0.  0.
         14    1    1    2    0    0  0.39884617873E-02  0.26505857149E-02 -0.23339754532E-01  0.23825985261E-01  0.00000000000E+00 0.  1.
     999901    1    3    3    0    0 -0.50353675392E-01  0.72587871301E-01  0.11400037983E+00  0.89174019663E+00  0.88000000000E+00 0.  1.
        -11    1    4    4    0    0  0.19631376491E-01 -0.49524756370E-01 -0.59975241992E-01  0.80220840244E-01  0.51100000000E-03 0. -1.
         11    1    4    4    0    0  0.26733837113E-01 -0.25713700645E-01 -0.30685383310E-01  0.48142977863E-01  0.51100000000E-03 0.  1.
</event>
<event>
 8    1  0.1177602E+005  0.1043930E+01  0.7957747E-01            NaN
         13   -1    0    0    0    0  0.00000000000E+00  0.00000000000E+00  0.74505805969E-08  0.10566000000E+00  0.10566000000E+00 0.  1.
     999900   -1    0    0    0    0 -0.00000000000E+00 -0.00000000000E+00 -0.74505805969E-08  0.93827000000E+00  0.93827000000E+00 0. -1.
     999902    2    1    2    0    0 -0.78641134254E-02  0.17328172703E-01  0.13718265831E-01  0.10204715118E+01  0.10202018456E+01 0.  0.
     999903    2    3    3    0    0 -0.12876858812E-01 -0.51853090684E-01  0.11839285859E+00  0.13155759858E+00  0.20880044883E-01 0.  0.
         14    1    1    2    0    0  0.78641134254E-02 -0.17328172703E-01 -0.13718265831E-01  0.23458488157E-01  0.00000000000E+00 0. -1.
     999901    1    3    3    0    0  0.50127453866E-02  0.69181263387E-01 -0.10467459275E+00  0.88891391326E+00  0.88000000000E+00 0. -1.
        -11    1    4    4    0    0 -0.17581213819E-01 -0.31436330704E-01  0.81960047894E-01  0.89526825808E-01  0.51100000000E-03 0.  1.
         11    1    4    4    0    0  0.47043550070E-02 -0.20416759980E-01  0.36432810692E-01  0.42030772774E-01  0.51100000000E-03 0. -1.
</event>
<event>
 8    1  0.1177602E+005  0.1043930E+01  0.7957747E-01            NaN
         13   -1    0    0    0    0  0.00000000000E+00  0.00000000000E+00  0.74505805969E-08  0.10566000000E+00  0.10566000000E+00 0.  1.
     999900   -1    0    0    0    0 -0.00000000000E+00 -0.00000000000E+00 -0.74505805969E-08  0.93827000000E+00  0.93827000000E+00 0.  1.
     999902    2    1    2    0    0 -0.11340410117E-01 -0.17185741299E-01 -0.12347310487E-01  0.10199214457E+01  0.10196388305E+01 0.  0.
     999903    2    3    3    0    0 -0.66069465240E-01 -0.10725780461E+00  0.35343164763E-01  0.13235024992E+00  0.19950901502E-01 0.  0.
         14    1    1    2    0    0  0.11340410117E-01  0.17185741299E-01  0.12347310487E-01  0.24008554347E-01  0.00000000000E+00 0.  1.
     999901    1    3    3    0    0  0.54729055124E-01  0.90072063315E-01 -0.47690475250E-01  0.88757119573E+00  0.88000000000E+00 0.  1.
        -11    1    4    4    0    0 -0.38297439959E-01 -0.48880327174E-01  0.99383559812E-02  0.62888888785E-01  0.51100000000E-03 0.  1.
         11    1    4    4    0    0 -0.27772025282E-01 -0.58377477439E-01  0.25404808782E-01  0.69461361135E-01  0.51100000000E-03 0. -1.
</event>
<event>
 8    1  0.1177602E+005  0.1043930E+01  0.7957747E-01            NaN
         13   -1    0    0    0    0  0.00000000000E+00  0.00000000000E+00  0.74505805969E-08  0.10566000000E+00  0.10566000000E+00 0. -1.
     999900   -1    0    0    0    0 -0.00000000000E+00 -0.00000000000E+00 -0.74505805969E-08  0.93827000000E+00  0.93827000000E+00 0. -1.
     999902    2    1    2    0    0 -0.35164621752E-02  0.14643159160E-01  0.17868738889E-01  0.10205616572E+01  0.10202940834E+01 0.  0.
     999903    2    3    3    0    0 -0.49976893229E-01 -0.37140441556E-01  0.11528906919E+00  0.13245646425E+00  0.19391833104E-01 0.  0.
         14    1    1    2    0    0  0.35164621752E-02 -0.14643159160E-01 -0.17868738889E-01  0.23368342815E-01  0.00000000000E+00 0.  1.
     999901    1    3    3    0    0  0.46460431054E-01  0.51783600715E-01 -0.97420330304E-01  0.88810519293E+00  0.88000000000E+00 0. -1.
        -11    1    4    4    0    0 -0.16048349278E-01 -0.35237705584E-02  0.40581626316E-01  0.43784654720E-01  0.51100000000E-03 0. -1.
         11    1    4    4    0    0 -0.33928543951E-01 -0.33616670997E-01  0.74707442877E-01  0.88671809533E-01  0.51100000000E-03 0.  1.
</event>
<event>
 8    1  0.1177602E+005  0.1043930E+01  0.7957747E-01            NaN
         13   -1    0    0    0    0  0.00000000000E+00  0.00000000000E+00  0.74505805969E-08  0.10566000000E+00  0.10566000000E+00 0.  1.
     999900   -1    0    0    0    0 -0.00000000000E+00 -0.00000000000E+00 -0.74505805969E-08  0.93827000000E+00  0.93827000000E+00 0.  1.
     999902    2    1    2    0    0  0.19406386278E-01  0.10935043691E-01  0.73458975325E-02  0.10204748253E+01  0.10202052362E+01 0.  0.
     999903    2    3    3    0    0 -0.92071552076E-01 -0.31736052017E-01 -0.79890973856E-01  0.12814168972E+00  0.23523971648E-01 0.  0.
         14    1    1    2    0    0 -0.19406386278E-01 -0.10935043691E-01 -0.73458975325E-02  0.23455174684E-01  0.00000000000E+00 0.  1.
     999901    1    3    3    0    0  0.11147793835E+00  0.42671095708E-01  0.87236871388E-01  0.89233313559E+00  0.88000000000E+00 0. -1.
        -11    1    4    4    0    0 -0.86699332100E-01 -0.26801016414E-01 -0.65235753465E-01  0.11176329146E+00  0.51100000000E-03 0.  1.
         11    1    4    4    0    0 -0.53722199759E-02 -0.49350356030E-02 -0.14655220390E-01  0.16378398260E-01  0.51100000000E-03 0. -1.
</event>
<event>
 8    1  0.1177602E+005  0.1043930E+01  0.7957747E-01            NaN
         13   -1    0    0    0    0  0.00000000000E+00  0.00000000000E+00  0.74505805969E-08  0.10566000000E+00  0.10566000000E+00 0.  1.
     999900   -1    0    0    0    0 -0.00000000000E+00 -0.00000000000E+00 -0.74505805969E-08  0.93827000000E+00  0.93827000000E+00 0. -1.
     999902    2    1    2    0    0  0.11383765864E-01  0.17246131373E-01  0.11128833311E-01  0.10204593779E+01  0.10201894294E+01 0.  0.
     999903    2    3    3    0    0  0.11873171961E+00  0.10627518175E-02  0.55459373241E-01  0.13268086848E+00  0.20739336977E-01 0.  0.
         14    1    1    2    0    0 -0.11383765864E-01 -0.17246131373E-01 -0.11128833311E-01  0.23470622136E-01  0.00000000000E+00 0.  1.
     999901    1    3    3    0    0 -0.10734795375E+00  0.16183379555E-01 -0.44330539929E-01  0.88777850938E+00  0.88000000000E+00 0.  1.
        -11    1    4    4    0    0  0.10116930662E+00  0.59170178537E-02  0.40638512224E-01  0.10918786333E+00  0.51100000000E-03 0.  1.
         11    1    4    4    0    0  0.17562412993E-01 -0.48542660362E-02  0.14820861016E-01  0.23493005154E-01  0.51100000000E-03 0. -1.
</event>
<event>
 8    1  0.1177602E+005  0.1043930E+01  0.7957747E-01            NaN
         13   -1    0    0    0    0  0.00000000000E+00  0.00000000000E+00  0.74505805969E-08  0.10566000000E+00  0.10566000000E+00 0. -1.
     999900   -1    0    0    0    0 -0.00000000000E+00 -0.00000000000E+00 -0.74505805969E-08  0.93827000000E+00  0.93827000000E+00 0. -1.
     999902    2    1    2    0    0  0.19923714706E-01 -0.68303160715E-02 -0.10186803091E-01  0.10205338768E+01  0.10202656591E+01 0.  0.
     999903    2    3    3    0    0  0.34893060170E-01 -0.12601059118E+00  0.26596285222E-02  0.13228106923E+00  0.19874931870E-01 0.  0.
         14    1    1    2    0    0 -0.19923714706E-01  0.68303160715E-02  0.10186803091E-01  0.23396123237E-01  0.00000000000E+00 0.  1.
     999901    1    3    3    0    0 -0.14969345464E-01  0.11918027511E+00 -0.12846431613E-01  0.88825280753E+00  0.88000000000E+00 0. -1.
        -11    1    4    4    0    0  0.30784944468E-01 -0.98319005372E-01 -0.53274612628E-02  0.10316483213E+00  0.51100000000E-03 0.  1.
         11    1    4    4    0    0  0.41081157019E-02 -0.27691585805E-01  0.79870897849E-02  0.29116237107E-01  0.51100000000E-03 0. -1.
</event>
<event>
 8    1  0.1177602E+005  0.1043930E+01  0.7957747E-01            NaN
         13   -1    0    0    0    0  0.00000000000E+00  0.00000000000E+00  0.74505805969E-08  0.10566000000E+00  0.10566000000E+00 0. -1.
     999900   -1    0    0    0    0 -0.00000000000E+00 -0.00000000000E+00 -0.74505805969E-08  0.93827000000E+00  0.93827000000E+00 0. -1.
     999902    2    1    2    0    0  0.66039933318E-02  0.27469624955E-02 -0.22597264827E-01  0.10202277868E+01  0.10199524215E+01 0.  0.
     999903    2    3    3    0    0  0.95599210129E-02 -0.12656417528E+00 -0.18192258617E-01  0.13076192918E+00  0.25648417051E-01 0.  0.
         14    1    1    2    0    0 -0.66039933318E-02 -0.27469624955E-02  0.22597264827E-01  0.23702213157E-01  0.00000000000E+00 0.  1.
     999901    1    3    3    0    0 -0.29559276811E-02  0.12931113777E+00 -0.44050062097E-02  0.88946585766E+00  0.88000000000E+00 0.  1.
        -11    1    4    4    0    0  0.15653192544E-01 -0.52733429453E-01 -0.12818720071E-01  0.56483782841E-01  0.51100000000E-03 0. -1.
         11    1    4    4    0    0 -0.60932715309E-02 -0.73830745823E-01 -0.53735385457E-02  0.74278146344E-01  0.51100000000E-03 0.  1.
</event>
<event>
 8    1  0.1177602E+005  0.1043930E+01  0.7957747E-01            NaN
         13   -1    0    0    0    0  0.00000000000E+00  0.00000000000E+00  0.74505805969E-08  0.10566000000E+00  0.10566000000E+00 0.  1.
     999900   -1    0    0    0    0 -0.00000000000E+00 -0.00000000000E+00 -0.74505805969E-08  0.93827000000E+00  0.93827000000E+00 0.  1.
     999902    2    1    2    0    0 -0.15472477578E-01 -0.61753447040E-02 -0.16325762887E-01  0.10206048424E+01  0.10203382681E+01 0.  0.
     999903    2    3    3    0    0  0.12608730817E+00 -0.50207173693E-02 -0.20947223973E-01  0.12927894013E+00  0.18736095734E-01 0.  0.
         14    1    1    2    0    0  0.15472477578E-01  0.61753447040E-02  0.16325762887E-01  0.23325157630E-01  0.00000000000E+00 0. -1.
     999901    1    3    3    0    0 -0.14155978575E+00 -0.11546273347E-02  0.46214610866E-02  0.89132590224E+00  0.88000000000E+00 0.  1.
        -11    1    4    4    0    0  0.92131683894E-01 -0.17938772398E-02 -0.23410311914E-01  0.95077699792E-01  0.51100000000E-03 0. -1.
         11    1    4    4    0    0  0.33955624278E-01 -0.32268401295E-02  0.24630879407E-02  0.34201240336E-01  0.51100000000E-03 0.  1.
</event>
<event>
 8    1  0.1177602E+005  0.1043930E+01  0.7957747E-01            NaN
         13   -1    0    0    0    0  0.00000000000E+00  0.00000000000E+00  0.74505805969E-08  0.10566000000E+00  0.10566000000E+00 0.  1.
     999900   -1    0    0    0    0 -0.00000000000E+00 -0.00000000000E+00 -0.74505805969E-08  0.93827000000E+00  0.93827000000E+00 0.  1.
     999902    2    1    2    0    0 -0.15836455065E-01  0.16043323746E-01  0.64448473250E-02  0.10204839427E+01  0.10202145655E+01 0.  0.
     999903    2    3    3    0    0  0.56519115659E-01  0.10726931174E+00 -0.46889819436E-01  0.13121340109E+00  0.17809710367E-01 0.  0.
         14    1    1    2    0    0  0.15836455065E-01 -0.16043323746E-01 -0.64448473250E-02  0.23446057299E-01  0.00000000000E+00 0. -1.
     999901    1    3    3    0    0 -0.72355570724E-01 -0.91225987991E-01  0.53334666761E-01  0.88927054161E+00  0.88000000000E+00 0. -1.
        -11    1    4    4    0    0  0.25884728055E-01  0.67027254408E-01 -0.24682940379E-01  0.75974868521E-01  0.51100000000E-03 0. -1.
         11    1    4    4    0    0  0.30634387603E-01  0.40242057328E-01 -0.22206879057E-01  0.55238532568E-01  0.51100000000E-03 0.  1.
</event>
<event>
 8    1  0.1177602E+005  0.1043930E+01  0.7957747E-01            NaN
         13   -1    0    0    0    0  0.00000000000E+00  0.00000000000E+00  0.74505805969E-08  0.10566000000E+00  0.10566000000E+00 0.  1.
     999900   -1    0    0    0    0 -0.00000000000E+00 -0.00000000000E+00 -0.74505805969E-08  0.93827000000E+00  0.93827000000E+00 0. -1.
     999902    2    1    2    0    0  0.15267847005E-01 -0.10298328541E-01 -0.15023145148E-01  0.10201632667E+01  0.10198863824E+01 0.  0.
     999903    2    3    3    0    0 -0.10413142696E+00 -0.74289231051E-01  0.27330291595E-02  0.12962056475E+00  0.20779254725E-01 0.  0.
         14    1    1    2    0    0 -0.15267847005E-01  0.10298328541E-01  0.15023145148E-01  0.23766733328E-01  0.00000000000E+00 0.  1.
     999901    1    3    3    0    0  0.11939927396E+00  0.63990902510E-01 -0.17756174308E-01  0.89054270193E+00  0.88000000000E+00 0. -1.
        -11    1    4    4    0    0 -0.47458062576E-01 -0.46361937978E-01 -0.59928409771E-03  0.66349960505E-01  0.51100000000E-03 0. -1.
         11    1    4    4    0    0 -0.56673364380E-01 -0.27927293073E-01  0.33323132572E-02  0.63270604242E-01  0.51100000000E-03 0.  1.
</event>
<event>
 8    1  0.1177602E+005  0.1043930E+01  0.7957747E-01            NaN
         13   -1    0    0    0    0  0.00000000000E+00  0.00000000000E+00  0.74505805969E-08  0.10566000000E+00  0.10566000000E+00 0.  1.
     999900   -1    0    0    0    0 -0.00000000000E+00 -0.00000000000E+00 -0.74505805969E-08  0.93827000000E+00  0.93827000000E+00 0. -1.
     999902    2    1    2    0    0 -0.31637674765E-02  0.18336464236E-01 -0.18590833489E-01  0.10176268740E+01  0.10172868820E+01 0.  0.
     999903    2    3    3    0    0  0.93411708914E-01 -0.57111265132E-01  0.58683078034E-01  0.12578022808E+00  0.19736214479E-01 0.  0.
         14    1    1    2    0    0  0.31637674765E-02 -0.18336464236E-01  0.18590833489E-01  0.26303125957E-01  0.00000000000E+00 0.  1.
     999901    1    3    3    0    0 -0.96575476390E-01  0.75447729368E-01 -0.77273911523E-01  0.89184664596E+00  0.88000000000E+00 0. -1.
        -11    1    4    4    0    0  0.12469657804E-01 -0.76911369106E-02  0.81694412919E-03  0.14682454544E-01  0.51100000000E-03 0.  1.
         11    1    4    4    0    0  0.80942051109E-01 -0.49420128221E-01  0.57866133905E-01  0.11109777354E+00  0.51100000000E-03 0. -1.
</event>
<event>
 8    1  0.1177602E+005  0.1043930E+01  0.7957747E-01            NaN
         13   -1    0    0    0    0  0.00000000000E+00  0.00000000000E+00  0.74505805969E-08  0.10566000000E+00  0.10566000000E+00 0.  1.
     999900   -1    0    0    0    0 -0.00000000000E+00 -0.00000000000E+00 -0.74505805969E-08  0.93827000000E+00  0.93827000000E+00 0.  1.
     999902    2    1    2    0    0 -0.12615147916E-01  0.11635015995E-01  0.16463367681E-01  0.10201485360E+01  0.10198713044E+01 0.  0.
     999903    2    3    3    0    0  0.61960813253E-01 -0.68057219883E-01 -0.85923517201E-01  0.12751451210E+00  0.20153720022E-01 0.  0.
         14    1    1    2    0    0  0.12615147916E-01 -0.11635015995E-01 -0.16463367681E-01  0.23781463991E-01  0.00000000000E+00 0.  1.
     999901    1    3    3    0    0 -0.74575961170E-01  0.79692235878E-01  0.10238688488E+00  0.89263402391E+00  0.88000000000E+00 0. -1.
        -11    1    4    4    0    0  0.48620497266E-01 -0.46301627223E-01 -0.71962670982E-01  0.98420935648E-01  0.51100000000E-03 0.  1.
         11    1    4    4    0    0  0.13340315987E-01 -0.21755592661E-01 -0.13960846218E-01  0.29093576452E-01  0.51100000000E-03 0. -1.
</event>
<event>
 8    1  0.1177602E+005  0.1043930E+01  0.7957747E-01            NaN
         13   -1    0    0    0    0  0.00000000000E+00  0.00000000000E+00  0.74505805969E-08  0.10566000000E+00  0.10566000000E+00 0.  1.
     999900   -1    0    0    0    0 -0.00000000000E+00 -0.00000000000E+00 -0.74505805969E-08  0.93827000000E+00  0.93827000000E+00 0.  1.
     999902    2    1    2    0    0 -0.22791119040E-01 -0.53812296973E-02 -0.11776862780E-01  0.10177176511E+01  0.10173800323E+01 0.  0.
     999903    2    3    3    0    0  0.11054110658E-01  0.61726440852E-01  0.10769120903E+00  0.12647045796E+00  0.21564632450E-01 0.  0.
         14    1    1    2    0    0  0.22791119040E-01  0.53812296973E-02  0.11776862780E-01  0.26212348943E-01  0.00000000000E+00 0.  1.
     999901    1    3    3    0    0 -0.33845229699E-01 -0.67107670550E-01 -0.11946807181E+00  0.89124719310E+00  0.88000000000E+00 0.  1.
        -11    1    4    4    0    0 -0.29991627071E-02  0.34289865829E-01  0.67949721894E-01  0.76172276466E-01  0.51100000000E-03 0. -1.
         11    1    4    4    0    0  0.14053273365E-01  0.27436575023E-01  0.39741487132E-01  0.50298181495E-01  0.51100000000E-03 0.  1.
</event>
<event>
 8    1  0.1177602E+005  0.1043930E+01  0.7957747E-01            NaN
         13   -1    0    0    0    0  0.00000000000E+00  0.00000000000E+00  0.74505805969E-08  0.10566000000E+00  0.10566000000E+00 0.  1.
     999900   -1    0    0    0    0 -0.00000000000E+00 -0.00000000000E+00 -0.74505805969E-08  0.93827000000E+00  0.93827000000E+00 0.  1.
     999902    2    1    2    0    0  0.89750090034E-02  0.16139552880E-01 -0.15032180898E-01  0.10201181875E+01  0.10198402394E+01 0.  0.
     999903    2    3    3    0    0 -0.28249669582E-01  0.82441681529E-01  0.94570472815E-01  0.13006516058E+00  0.19460138331E-01 0.  0.
         14    1    1    2    0    0 -0.89750090034E-02 -0.16139552880E-01  0.15032180898E-01  0.23811812538E-01  0.00000000000E+00 0.  1.
     999901    1    3    3    0    0  0.37224678586E-01 -0.66302128649E-01 -0.10960265371E+00  0.89005302688E+00  0.88000000000E+00 0.  1.
        -11    1    4    4    0    0 -0.26058710313E-02  0.24678658696E-01  0.37122667249E-01  0.44656245963E-01  0.51100000000E-03 0.  1.
         11    1    4    4    0    0 -0.25643798551E-01  0.57763022833E-01  0.57447805566E-01  0.85408914618E-01  0.51100000000E-03 0. -1.
</event>
<event>
 8    1  0.1177602E+005  0.1043930E+01  0.7957747E-01            NaN
         13   -1    0    0    0    0  0.00000000000E+00  0.00000000000E+00  0.74505805969E-08  0.10566000000E+00  0.10566000000E+00 0. -1.
     999900   -1    0    0    0    0 -0.00000000000E+00 -0.00000000000E+00 -0.74505805969E-08  0.93827000000E+00  0.93827000000E+00 0. -1.
     999902    2    1    2    0    0 -0.14355937150E-01  0.17866562274E-02  0.19264298607E-01  0.10198385436E+01  0.10195539499E+01 0.  0.
     999903    2    3    3    0    0 -0.55292337634E-01  0.18802319507E-01 -0.11284650149E+00  0.12887356941E+00  0.21524269411E-01 0.  0.
         14    1    1    2    0    0  0.14355937150E-01 -0.17866562274E-02 -0.19264298607E-01  0.24091456427E-01  0.00000000000E+00 0.  1.
     999901    1    3    3    0    0  0.40936400484E-01 -0.17015663280E-01  0.13211080010E+00  0.89096497416E+00  0.88000000000E+00 0.  1.
        -11    1    4    4    0    0 -0.28483053839E-01 -0.56166936376E-03 -0.61743946371E-01  0.68001293098E-01  0.51100000000E-03 0. -1.
         11    1    4    4    0    0 -0.26809283795E-01  0.19363988871E-01 -0.51102555121E-01  0.60872276313E-01  0.51100000000E-03 0.  1.
</event>
<event>
 8    1  0.1177602E+005  0.1043930E+01  0.7957747E-01            NaN
         13   -1    0    0    0    0  0.00000000000E+00  0.00000000000E+00  0.74505805969E-08  0.10566000000E+00  0.10566000000E+00 0. -1.
     999900   -1    0    0    0    0 -0.00000000000E+00 -0.00000000000E+00 -0.74505805969E-08  0.93827000000E+00  0.93827000000E+00 0. -1.
     999902    2    1    2    0    0 -0.23903264304E-01  0.72305869790E-03  0.92095214467E-03  0.10199980755E+01  0.10197172829E+01 0.  0.
     999903    2    3    3    0    0 -0.38177434406E-02  0.10833457948E+00 -0.69965706450E-01  0.13038659516E+00  0.18828378619E-01 0.  0.
         14    1    1    2    0    0  0.23903264304E-01 -0.72305869790E-03 -0.92095214467E-03  0.23931924517E-01  0.00000000000E+00 0. -1.
     999901    1    3    3    0    0 -0.20085520863E-01 -0.10761152079E+00  0.70886658594E-01  0.88961148032E+00  0.88000000000E+00 0.  1.
        -11    1    4    4    0    0  0.31871599332E-02  0.85428196903E-01 -0.48917728163E-01  0.98495380928E-01  0.51100000000E-03 0.  1.
         11    1    4    4    0    0 -0.70049033738E-02  0.22906382582E-01 -0.21047978287E-01  0.31891214232E-01  0.51100000000E-03 0. -1.
</event>
<event>
 8    1  0.1177602E+005  0.1043930E+01  0.7957747E-01            NaN
         13   -1    0    0    0    0  0.00000000000E+00  0.00000000000E+00  0.74505805969E-08  0.10566000000E+00  0.10566000000E+00 0.  1.
     999900   -1    0    0    0    0 -0.00000000000E+00 -0.00000000000E+00 -0.74505805969E-08  0.93827000000E+00  0.93827000000E+00 0. -1.
     999902    2    1    2    0    0  0.10995983800E-01 -0.18331862975E-01  0.79743806780E-03  0.10225383014E+01  0.10223145177E+01 0.  0.
     999903    2    3    3    0    0 -0.49573108921E-01  0.50347570000E-01 -0.10858545097E+00  0.13105072670E+00  0.19776801379E-01 0.  0.
         14    1    1    2    0    0 -0.10995983800E-01  0.18331862975E-01 -0.79743806780E-03  0.21391698561E-01  0.00000000000E+00 0.  1.
     999901    1    3    3    0    0  0.60569092721E-01 -0.68679432975E-01  0.10938288904E+00  0.89148757474E+00  0.88000000000E+00 0.  1.
        -11    1    4    4    0    0 -0.16281780626E-01  0.24154484277E-01 -0.30276938065E-01  0.42017729479E-01  0.51100000000E-03 0. -1.
         11    1    4    4    0    0 -0.33291328295E-01  0.26193085723E-01 -0.78308512903E-01  0.89032997217E-01  0.51100000000E-03 0.  1.
</event>
<event>
 8    1  0.1177602E+005  0.1043930E+01  0.7957747E-01            NaN
         13   -1    0    0    0    0  0.00000000000E+00  0.00000000000E+00  0.74505805969E-08  0.10566000000E+00  0.10566000000E+00 0. -1.
     999900   -1    0    0    0    0 -0.00000000000E+00 -0.00000000000E+00 -0.74505805969E-08  0.93827000000E+00  0.93827000000E+00 0.  1.
     999902    2    1    2    0    0  0.12128909932E-02 -0.25619946885E-02 -0.23378256142E-01  0.10203805248E+01  0.10201087381E+01 0.  0.
     999903    2    3    3    0    0  0.34258345350E-01  0.20383100530E-02  0.12177540300E+00  0.12786567921E+00  0.18509300659E-01 0.  0.
         14    1    1    2    0    0 -0.12128909932E-02  0.25619946885E-02  0.23378256142E-01  0.23549475187E-01  0.00000000000E+00 0. -1.
     999901    1    3    3    0    0 -0.33045454357E-01 -0.46003047416E-02 -0.14515365914E+00  0.89251484560E+00  0.88000000000E+00 0.  1.
        -11    1    4    4    0    0  0.17895331221E-01  0.58906344400E-02  0.89591719871E-01  0.91552606976E-01  0.51100000000E-03 0.  1.
         11    1    4    4    0    0  0.16363014129E-01 -0.38523243870E-02  0.32183683126E-01  0.36313072235E-01  0.51100000000E-03 0. -1.
</event>
<event>
 8    1  0.1177602E+005  0.1043930E+01  0.7957747E-01            NaN
         13   -1    0    0    0    0  0.00000000000E+00  0.00000000000E+00  0.74505805969E-08  0.10566000000E+00  0.10566000000E+00 0.  1.
     999900   -1    0    0    0    0 -0.00000000000E+00 -0.00000000000E+00 -0.74505805969E-08  0.93827000000E+00  0.93827000000E+00 0.  1.
     999902    2    1    2    0    0 -0.14749657397E-01 -0.12187957747E-01 -0.11889364624E-01  0.10214032226E+01  0.10211547814E+01 0.  0.
     999903    2    3    3    0    0 -0.62742798376E-01  0.70730558060E-01 -0.90603873135E-01  0.13271047725E+00  0.21529940861E-01 0.  0.
         14    1    1    2    0    0  0.14749657397E-01  0.12187957747E-01  0.11889364624E-01  0.22526777367E-01  0.00000000000E+00 0.  1.
     999901    1    3    3    0    0  0.47993140978E-01 -0.82918515808E-01  0.78714508511E-01  0.88869274538E+00  0.88000000000E+00 0. -1.
        -11    1    4    4    0    0 -0.17778378577E-01  0.11818136788E-01 -0.30796937522E-01  0.37476013444E-01  0.51100000000E-03 0.  1.
         11    1    4    4    0    0 -0.44964419798E-01  0.58912421273E-01 -0.59806935613E-01  0.95234463806E-01  0.51100000000E-03 0. -1.
</event>
<event>
 8    1  0.1177602E+005  0.1043930E+01  0.7957747E-01            NaN
         13   -1    0    0    0    0  0.00000000000E+00  0.00000000000E+00  0.74505805969E-08  0.10566000000E+00  0.10566000000E+00 0.  1.
     999900   -1    0    0    0    0 -0.00000000000E+00 -0.00000000000E+00 -0.74505805969E-08  0.93827000000E+00  0.93827000000E+00 0. -1.
     999902    2    1    2    0    0  0.22649640813E-01  0.73881770115E-02  0.29842940666E-02  0.10199196397E+01  0.10196369815E+01 0.  0.
     999903    2    3    3    0    0 -0.57256197161E-01  0.54521120450E-01  0.10067512338E+00  0.12966689168E+00  0.20668760054E-01 0.  0.
         14    1    1    2    0    0 -0.22649640813E-01 -0.73881770115E-02 -0.29842940666E-02  0.24010360256E-01  0.00000000000E+00 0.  1.
     999901    1    3    3    0    0  0.79905837975E-01 -0.47132943439E-01 -0.97690829315E-01  0.89025274806E+00  0.88000000000E+00 0. -1.
        -11    1    4    4    0    0 -0.99432019741E-02  0.17250254726E-01  0.36982140791E-01  0.42004504665E-01  0.51100000000E-03 0. -1.
         11    1    4    4    0    0 -0.47312995187E-01  0.37270865724E-01  0.63692982590E-01  0.87662387018E-01  0.51100000000E-03 0.  1.
</event>
<event>
 8    1  0.1177602E+005  0.1043930E+01  0.7957747E-01            NaN
         13   -1    0    0    0    0  0.00000000000E+00  0.00000000000E+00  0.74505805969E-08  0.10566000000E+00  0.10566000000E+00 0.  1.
     999900   -1    0    0    0    0 -0.00000000000E+00 -0.00000000000E+00 -0.74505805969E-08  0.93827000000E+00  0.93827000000E+00 0. -1.
     999902    2    1    2    0    0 -0.18685154983E-01 -0.62093331054E-02  0.12782058551E-01  0.10204550803E+01  0.10201850318E+01 0.  0.
     999903    2    3    3    0    0 -0.12792966304E+00 -0.81376824112E-02  0.31738938412E-01  0.13349541697E+00  0.19530631808E-01 0.  0.
         14    1    1    2    0    0  0.18685154983E-01  0.62093331054E-02 -0.12782058551E-01  0.23474919705E-01  0.00000000000E+00 0.  1.
     999901    1    3    3    0    0  0.10924450806E+00  0.19283493058E-02 -0.18956879861E-01  0.88695966333E+00  0.88000000000E+00 0.  1.
        -11    1    4    4    0    0 -0.65517985715E-01 -0.66857746560E-02  0.25981822900E-01  0.70799874838E-01  0.51100000000E-03 0.  1.
         11    1    4    4    0    0 -0.62411677329E-01 -0.14519077552E-02  0.57571155123E-02  0.62695542132E-01  0.51100000000E-03 0. -1.
</event>
<event>
 8    1  0.1177602E+005  0.1043930E+01  0.7957747E-01            NaN
         13   -1    0    0    0    0  0.00000000000E+00  0.00000000000E+00  0.74505805969E-08  0.10566000000E+00  0.10566000000E+00 0.  1.
     999900   -1    0    0    0    0 -0.00000000000E+00 -0.00000000000E+00 -0.74505805969E-08  0.93827000000E+00  0.93827000000E+00 0. -1.
     999902    2    1    2    0    0  0.11850595786E-01 -0.12722056840E-01 -0.15041878537E-01  0.10209398834E+01  0.10206809982E+01 0.  0.
     999903    2    3    3    0    0  0.24170569039E-01  0.73796795965E-01  0.10063285644E+00  0.12907782124E+00  0.22448354920E-01 0.  0.
         14    1    1    2    0    0 -0.11850595786E-01  0.12722056840E-01  0.15041878537E-01  0.22990116586E-01  0.00000000000E+00 0.  1.
     999901    1    3    3    0    0 -0.12319973253E-01 -0.86518852805E-01 -0.11567473498E+00  0.89186206217E+00  0.88000000000E+00 0.  1.
        -11    1    4    4    0    0  0.10874419418E-01  0.32911266061E-01  0.27525724628E-01  0.44264331789E-01  0.51100000000E-03 0. -1.
         11    1    4    4    0    0  0.13296149621E-01  0.40885529905E-01  0.73107131812E-01  0.84813489452E-01  0.51100000000E-03 0.  1.
</event>
<event>
 8    1  0.1177602E+005  0.1043930E+01  0.7957747E-01            NaN
         13   -1    0    0    0    0  0.00000000000E+00  0.00000000000E+00  0.74505805969E-08  0.10566000000E+00  0.10566000000E+00 0. -1.
     999900   -1    0    0    0    0 -0.00000000000E+00 -0.00000000000E+00 -0.74505805969E-08  0.93827000000E+00  0.93827000000E+00 0. -1.
     999902    2    1    2    0    0  0.10220096241E-01  0.11318957914E-01  0.16993743037E-01  0.10210967681E+01  0.10208414438E+01 0.  0.
     999903    2    3    3    0    0 -0.76882584191E-01  0.96250443277E-01  0.43536047107E-01  0.13233092267E+00  0.21000145564E-01 0.  0.
         14    1    1    2    0    0 -0.10220096241E-01 -0.11318957914E-01 -0.16993743037E-01  0.22833231874E-01  0.00000000000E+00 0. -1.
     999901    1    3    3    0    0  0.87102680433E-01 -0.84931485363E-01 -0.26542304071E-01  0.88876584546E+00  0.88000000000E+00 0. -1.
        -11    1    4    4    0    0 -0.33251862026E-01  0.41801406770E-01  0.79493372091E-02  0.54004601833E-01  0.51100000000E-03 0. -1.
         11    1    4    4    0    0 -0.43630722166E-01  0.54449036507E-01  0.35586709898E-01  0.78326320836E-01  0.51100000000E-03 0.  1.
</event>
<event>
 8    1  0.1177602E+005  0.1043930E+01  0.7957747E-01            NaN
         13   -1    0    0    0    0  0.00000000000E+00  0.00000000000E+00  0.74505805969E-08  0.10566000000E+00  0.10566000000E+00 0.  1.
     999900   -1    0    0    0    0 -0.00000000000E+00 -0.00000000000E+00 -0.74505805969E-08  0.93827000000E+00  0.93827000000E+00 0.  1.
     999902    2    1    2    0    0 -0.20872658021E-01 -0.17021786418E-02 -0.12477658332E-01  0.10195526084E+01  0.10192611363E+01 0.  0.
     999903    2    3    3    0    0  0.10129840096E+00  0.48436674402E-01 -0.59256476787E-01  0.12847015984E+00  0.19641142083E-01 0.  0.
         14    1    1    2    0    0  0.20872658021E-01  0.17021786418E-02  0.12477658332E-01  0.24377391625E-01  0.00000000000E+00 0.  1.
     999901    1    3    3    0    0 -0.12217105898E+00 -0.50138853044E-01  0.46778818455E-01  0.89108244854E+00  0.88000000000E+00 0. -1.
        -11    1    4    4    0    0  0.36384520182E-01  0.12783889714E-01 -0.11120060776E-01  0.40139482031E-01  0.51100000000E-03 0.  1.
         11    1    4    4    0    0  0.64913880781E-01  0.35652784688E-01 -0.48136416011E-01  0.88330677805E-01  0.51100000000E-03 0. -1.
</event>
<event>
 8    1  0.1177602E+005  0.1043930E+01  0.7957747E-01            NaN
         13   -1    0    0    0    0  0.00000000000E+00  0.00000000000E+00  0.74505805969E-08  0.10566000000E+00  0.10566000000E+00 0.  1.
     999900   -1    0    0    0    0 -0.00000000000E+00 -0.00000000000E+00 -0.74505805969E-08  0.93827000000E+00  0.93827000000E+00 0.  1.
     999902    2    1    2    0    0 -0.19265256071E-01  0.10464344331E-01 -0.89246337895E-02  0.10202593075E+01  0.10199846827E+01 0.  0.
     999903    2    3    3    0    0  0.38520627572E-01  0.71602301358E-01 -0.10127036273E+00  0.13143717021E+00  0.20231535716E-01 0.  0.
         14    1    1    2    0    0  0.19265256071E-01 -0.10464344331E-01  0.89246337895E-02  0.23670692470E-01  0.00000000000E+00 0.  1.
     999901    1    3    3    0    0 -0.57785883643E-01 -0.61137957027E-01  0.92345728938E-01  0.88882213732E+00  0.88000000000E+00 0. -1.
        -11    1    4    4    0    0  0.17394579914E-01  0.13776032546E-01 -0.28242989639E-01  0.35920440808E-01  0.51100000000E-03 0.  1.
         11    1    4    4    0    0  0.21126047658E-01  0.57826268812E-01 -0.73027373089E-01  0.95516729401E-01  0.51100000000E-03 0. -1.
</event>
<event>
 8    1  0.1177602E+005  0.1043930E+01  0.7957747E-01            NaN
         13   -1    0    0    0    0  0.00000000000E+00  0.00000000000E+00  0.74505805969E-08  0.10566000000E+00  0.10566000000E+00 0. -1.
     999900   -1    0    0    0    0 -0.00000000000E+00 -0.00000000000E+00 -0.74505805969E-08  0.93827000000E+00  0.93827000000E+00 0.  1.
     999902    2    1    2    0    0  0.22903048989E-01  0.75063879555E-02  0.10635137267E-01  0.10175860888E+01  0.10172450277E+01 0.  0.
     999903    2    3    3    0    0  0.83397674927E-01 -0.89538452122E-01  0.38346476759E-01  0.12975433722E+00  0.19835048699E-01 0.  0.
         14    1    1    2    0    0 -0.22903048989E-01 -0.75063879555E-02 -0.10635137267E-01  0.26343911210E-01  0.00000000000E+00 0.  1.
     999901    1    3    3    0    0 -0.60494625938E-01  0.97044840077E-01 -0.27711339492E-01  0.88783175157E+00  0.88000000000E+00 0. -1.
        -11    1    4    4    0    0  0.15088030719E-01 -0.17686179540E-01  0.15703617291E-01  0.28059122130E-01  0.51100000000E-03 0. -1.
         11    1    4    4    0    0  0.68309644208E-01 -0.71852272581E-01  0.22642859468E-01  0.10169521509E+00  0.51100000000E-03 0.  1.
</event>
<event>
 8    1  0.1177602E+005  0.1043930E+01  0.7957747E-01            NaN
         13   -1    0    0    0    0  0.00000000000E+00  0.00000000000E+00  0.74505805969E-08  0.10566000000E+00  0.10566000000E+00 0.  1.
     999900   -1    0    0    0    0 -0.00000000000E+00 -0.00000000000E+00 -0.74505805969E-08  0.93827000000E+00  0.93827000000E+00 0. -1.
     999902    2    1    2    0    0 -0.23593263162E-01  0.21231937106E-01  0.91159048873E-02  0.10109067212E+01  0.10103671917E+01 0.  0.
     999903    2    3    3    0    0  0.93381377825E-01 -0.69949119776E-01  0.19333408198E-02  0.11846700841E+00  0.20438522260E-01 0.  0.
         14    1    1    2    0    0  0.23593263162E-01 -0.21231937106E-01 -0.91159048873E-02  0.33023278787E-01  0.00000000000E+00 0.  1.
     999901    1    3    3    0    0 -0.11697464099E+00  0.91181056882E-01  0.71825640675E-02  0.89243971281E+00  0.88000000000E+00 0.  1.
        -11    1    4    4    0    0  0.48973160859E-01 -0.44097302386E-01 -0.71260263122E-02  0.66287132494E-01  0.51100000000E-03 0. -1.
         11    1    4    4    0    0  0.44408216966E-01 -0.25851817390E-01  0.90593671320E-02  0.52179875913E-01  0.51100000000E-03 0.  1.
</event>
<event>
 8    1  0.1177602E+005  0.1043930E+01  0.7957747E-01            NaN
         13   -1    0    0    0    0  0.00000000000E+00  0.00000000000E+00  0.74505805969E-08  0.10566000000E+00  0.10566000000E+00 0. -1.
     999900   -1    0    0    0    0 -0.00000000000E+00 -0.00000000000E+00 -0.74505805969E-08  0.93827000000E+00  0.93827000000E+00 0. -1.
     999902    2    1    2    0    0 -0.77095033620E-02  0.16948767019E-01  0.14817464316E-01  0.10201338996E+01  0.10198563226E+01 0.  0.
     999903    2    3    3    0    0  0.12387775207E+00 -0.20648095443E-01  0.24084977302E-01  0.12950793060E+00  0.20498211005E-01 0.  0.
         14    1    1    2    0    0  0.77095033620E-02 -0.16948767019E-01 -0.14817464316E-01  0.23796100402E-01  0.00000000000E+00 0.  1.
     999901    1    3    3    0    0 -0.13158725543E+00  0.37596862462E-01 -0.92675129854E-02  0.89062596900E+00  0.88000000000E+00 0. -1.
        -11    1    4    4    0    0  0.30366027208E-01  0.36979913751E-02  0.68601963695E-02  0.31354332457E-01  0.51100000000E-03 0.  1.
         11    1    4    4    0    0  0.93511724858E-01 -0.24346086818E-01  0.17224780932E-01  0.98153598143E-01  0.51100000000E-03 0. -1.
</event>
<event>
 8    1  0.1177602E+005  0.1043930E+01  0.7957747E-01            NaN
         13   -1    0    0    0    0  0.00000000000E+00  0.00000000000E+00  0.74505805969E-08  0.10566000000E+00  0.10566000000E+00 0. -1.
     999900   -1    0    0    0    0 -0.00000000000E+00 -0.00000000000E+00 -0.74505805969E-08  0.93827000000E+00  0.93827000000E+00 0. -1.
     999902    2    1    2    0    0 -0.14903364700E-01 -0.15030952219E-01  0.13176202613E-01  0.10189970475E+01  0.10186919705E+01 0.  0.
     999903    2    3    3    0    0 -0.51244330736E-01 -0.10768306781E-01 -0.11596694811E+00  0.12881909377E+00  0.20101940300E-01 0.  0.
         14    1    1    2    0    0  0.14903364700E-01  0.15030952219E-01 -0.13176202613E-01  0.24932952479E-01  0.00000000000E+00 0.  1.
     999901    1    3    3    0    0  0.36340966035E-01 -0.42626454378E-02  0.12914315072E+00  0.89017795375E+00  0.88000000000E+00 0.  1.
        -11    1    4    4    0    0 -0.31952631899E-01 -0.15229975959E-01 -0.62922970721E-01  0.72197536096E-01  0.51100000000E-03 0.  1.
         11    1    4    4    0    0 -0.19291698837E-01  0.44616691781E-02 -0.53043977387E-01  0.56621557678E-01  0.51100000000E-03 0. -1.
</event>
<event>
 8    1  0.1177602E+005  0.1043930E+01  0.7957747E-01            NaN
         13   -1    0    0    0    0  0.00000000000E+00  0.00000000000E+00  0.74505805969E-08  0.10566000000E+00  0.10566000000E+00 0.  1.
     999900   -1    0    0    0    0 -0.00000000000E+00 -0.00000000000E+00 -0.74505805969E-08  0.93827000000E+00  0.93827000000E+00 0. -1.
     999902    2    1    2    0    0 -0.14466591327E-01  0.18795354583E-01 -0.41154528065E-03  0.10202083435E+01  0.10199325209E+01 0.  0.
     999903    2    3    3    0    0 -0.10121839265E+00 -0.53320649090E-01 -0.60678160255E-01  0.13096222575E+00  0.19519498257E-01 0.  0.
         14    1    1    2    0    0  0.14466591327E-01 -0.18795354583E-01  0.41154528065E-03  0.23721656520E-01  0.00000000000E+00 0. -1.
     999901    1    3    3    0    0  0.86751801320E-01  0.72116003673E-01  0.60266614974E-01  0.88924611773E+00  0.88000000000E+00 0.  1.
        -11    1    4    4    0    0 -0.45752914200E-01 -0.34484534155E-01 -0.33678072583E-01  0.66460408873E-01  0.51100000000E-03 0.  1.
         11    1    4    4    0    0 -0.55465478446E-01 -0.18836114935E-01 -0.27000087672E-01  0.64501816877E-01  0.51100000000E-03 0. -1.
</event>
<event>
 8    1  0.1177602E+005  0.1043930E+01  0.7957747E-01            NaN
         13   -1    0    0    0    0  0.00000000000E+00  0.00000000000E+00  0.74505805969E-08  0.10566000000E+00  0.10566000000E+00 0. -1.
     999900   -1    0    0    0    0 -0.00000000000E+00 -0.00000000000E+00 -0.74505805969E-08  0.93827000000E+00  0.93827000000E+00 0.  1.
     999902    2    1    2    0    0  0.18327033912E-01  0.49007101325E-02 -0.13769578412E-01  0.10204886173E+01  0.10202193488E+01 0.  0.
     999903    2    3    3    0    0 -0.28996508896E-01 -0.88637026748E-01  0.86266777309E-01  0.12863879904E+00  0.20215432511E-01 0.  0.
         14    1    1    2    0    0 -0.18327033912E-01 -0.49007101325E-02  0.13769578412E-01  0.23441382669E-01  0.00000000000E+00 0. -1.
     999901    1    3    3    0    0  0.47323542808E-01  0.93537736880E-01 -0.10003635572E+00  0.89184981829E+00  0.88000000000E+00 0.  1.
        -11    1    4    4    0    0 -0.16210604203E-01 -0.74699812209E-01  0.67228301772E-01  0.10179759974E+00  0.51100000000E-03 0.  1.
         11    1    4    4    0    0 -0.12785904694E-01 -0.13937214539E-01  0.19038475537E-01  0.26841199297E-01  0.51100000000E-03 0. -1.
</event>
<event>
 8    1  0.1177602E+005  0.1043930E+01  0.7957747E-01            NaN
         13   -1    0    0    0    0  0.00000000000E+00  0.00000000000E+00  0.74505805969E-08  0.10566000000E+00  0.10566000000E+00 0.  1.
     999900   -1    0    0    0    0 -0.00000000000E+00 -0.00000000000E+00 -0.74505805969E-08  0.93827000000E+00  0.93827000000E+00 0.  1.
     999902    2    1    2    0    0 -0.15270884862E-01 -0.12552141937E-01 -0.13648442390E-01  0.10199084228E+01  0.10196254973E+01 0.  0.
     999903    2    3    3    0    0  0.77670138311E-02 -0.12927395578E+00  0.11804385834E-01  0.13153768202E+00  0.19767046318E-01 0.  0.
         14    1    1    2    0    0  0.15270884862E-01  0.12552141937E-01  0.13648442390E-01  0.24021577203E-01  0.00000000000E+00 0.  1.
     999901    1    3    3    0    0 -0.23037898693E-01  0.11672181384E+00 -0.25452828224E-01  0.88837074078E+00  0.88000000000E+00 0.  1.
        -11    1    4    4    0    0  0.49567912843E-02 -0.50550041970E-01  0.14143068089E-01  0.52727260681E-01  0.51100000000E-03 0. -1.
         11    1    4    4    0    0  0.28102225469E-02 -0.78723913808E-01 -0.23386822541E-02  0.78810421339E-01  0.51100000000E-03 0.  1.
</event>
<event>
 8    1  0.1177602E+005  0.1043930E+01  0.7957747E-01            NaN
         13   -1    0    0    0    0  0.00000000000E+00  0.00000000000E+00  0.74505805969E-08  0.10566000000E+00  0.10566000000E+00 0. -1.
     999900   -1    0    0    0    0 -0.00000000000E+00 -0.00000000000E+00 -0.74505805969E-08  0.93827000000E+00  0.93827000000E+00 0. -1.
     999902    2    1    2    0    0 -0.70550655232E-02 -0.57248941004E-02  0.22171642476E-01  0.10199689881E+01  0.10196875044E+01 0.  0.
     999903    2    3    3    0    0 -0.92775559983E-01 -0.49419500564E-01  0.78666827508E-01  0.13292393413E+00  0.20753576785E-01 0.  0.
         14    1    1    2    0    0  0.70550655232E-02  0.57248941004E-02 -0.22171642476E-01  0.23961011917E-01  0.00000000000E+00 0.  1.
     999901    1    3    3    0    0  0.85720494460E-01  0.43694606463E-01 -0.56495185032E-01  0.88704505395E+00  0.88000000000E+00 0. -1.
        -11    1    4    4    0    0 -0.33263170514E-01 -0.28799811752E-01  0.28808859084E-01  0.52593527666E-01  0.51100000000E-03 0.  1.
         11    1    4    4    0    0 -0.59512389468E-01 -0.20619688811E-01  0.49857968424E-01  0.80330406468E-01  0.51100000000E-03 0. -1.
</event>
<event>
 8    1  0.1177602E+005  0.1043930E+01  0.7957747E-01            NaN
         13   -1    0    0    0    0  0.00000000000E+00  0.00000000000E+00  0.74505805969E-08  0.10566000000E+00  0.10566000000E+00 0.  1.
     999900   -1    0    0    0    0 -0.00000000000E+00 -0.00000000000E+00 -0.74505805969E-08  0.93827000000E+00  0.93827000000E+00 0. -1.
     999902    2    1    2    0    0 -0.73393163597E-02  0.17322056150E-01 -0.11408449184E-01  0.10219283658E+01  0.10216914960E+01 0.  0.
     999903    2    3    3    0    0  0.43459975670E-01  0.12288051094E+00 -0.22629210243E-01  0.13409445065E+00  0.21928316953E-01 0.  0.
         14    1    1    2    0    0  0.73393163597E-02 -0.17322056150E-01  0.11408449184E-01  0.22001634182E-01  0.00000000000E+00 0.  1.
     999901    1    3    3    0    0 -0.50799292030E-01 -0.10555845479E+00  0.11220761059E-01  0.88783391517E+00  0.88000000000E+00 0. -1.
        -11    1    4    4    0    0  0.14428287683E-01  0.40513147546E-01  0.28937135479E-02  0.43105977644E-01  0.51100000000E-03 0.  1.
         11    1    4    4    0    0  0.29031687987E-01  0.82367363393E-01 -0.25522923791E-01  0.90988473004E-01  0.51100000000E-03 0. -1.
</event>
<event>
 8    1  0.1177602E+005  0.1043930E+01  0.7957747E-01            NaN
         13   -1    0    0    0    0  0.00000000000E+00  0.00000000000E+00  0.74505805969E-08  0.10566000000E+00  0.10566000000E+00 0. -1.
     999900   -1    0    0    0    0 -0.00000000000E+00 -0.00000000000E+00 -0.74505805969E-08  0.93827000000E+00  0.93827000000E+00 0.  1.
     999902    2    1    2    0    0  0.20787952888E-01 -0.53909251055E-03  0.17027512608E-01  0.10170531365E+01  0.10166979476E+01 0.  0.
     999903    2    3    3    0    0 -0.63156264989E-01 -0.54697413362E-01  0.93996200199E-01  0.12806273481E+00  0.24171420284E-01 0.  0.
         14    1    1    2    0    0 -0.20787952888E-01  0.53909251055E-03 -0.17027512608E-01  0.26876863500E-01  0.00000000000E+00 0. -1.
     999901    1    3    3    0    0  0.83944217877E-01  0.54158320851E-01 -0.76968687591E-01  0.88899040169E+00  0.88000000000E+00 0.  1.
        -11    1    4    4    0    0 -0.47099352825E-01 -0.35634650601E-01  0.49517127732E-01  0.77073889352E-01  0.51100000000E-03 0.  1.
         11    1    4    4    0    0 -0.16056912164E-01 -0.19062762761E-01  0.44479072467E-01  0.50988845455E-01  0.51100000000E-03 0. -1.
</event>
<event>
 8    1  0.1177602E+005  0.1043930E+01  0.7957747E-01            NaN
         13   -1    0    0    0    0  0.00000000000E+00  0.00000000000E+00  0.74505805969E-08  0.10566000000E+00  0.10566000000E+00 0. -1.
     999900   -1    0    0    0    0 -0.00000000000E+00 -0.00000000000E+00 -0.74505805969E-08  0.93827000000E+00  0.93827000000E+00 0.  1.
     999902    2    1    2    0    0 -0.31458441768E-02  0.14653923996E-01 -0.17447230521E-01  0.10209291375E+01  0.10206700074E+01 0.  0.
     999903    2    3    3    0    0 -0.11869466077E+00  0.47035907345E-01  0.25943715461E-01  0.13172561968E+00  0.19436137281E-01 0.  0.
         14    1    1    2    0    0  0.31458441768E-02 -0.14653923996E-01  0.17447230521E-01  0.23000862526E-01  0.00000000000E+00 0. -1.
     999901    1    3    3    0    0  0.11554881660E+00 -0.32381983348E-01 -0.43390945982E-01  0.88920351779E+00  0.88000000000E+00 0.  1.
        -11    1    4    4    0    0 -0.49399842927E-01  0.94116271102E-02  0.10513087191E-01  0.51378101652E-01  0.51100000000E-03 0. -1.
         11    1    4    4    0    0 -0.69294817847E-01  0.37624280234E-01  0.15430628270E-01  0.80347518029E-01  0.51100000000E-03 0.  1.
</event>
<event>
 8    1  0.1177602E+005  0.1043930E+01  0.7957747E-01            NaN
         13   -1    0    0    0    0  0.00000000000E+00  0.00000000000E+00  0.74505805969E-08  0.10566000000E+00  0.10566000000E+00 0. -1.
     999900   -1    0    0    0    0 -0.00000000000E+00 -0.00000000000E+00 -0.74505805969E-08  0.93827000000E+00  0.93827000000E+00 0. -1.
     999902    2    1    2    0    0  0.10387330962E-01 -0.17447961946E-01  0.12781680453E-01  0.10199362638E+01  0.10196540016E+01 0.  0.
     999903    2    3    3    0    0  0.48398627913E-01 -0.52109485567E-01 -0.10752432382E+00  0.13026227040E+00  0.18680289248E-01 0.  0.
         14    1    1    2    0    0 -0.10387330962E-01  0.17447961946E-01 -0.12781680453E-01  0.23993736178E-01  0.00000000000E+00 0.  1.
     999901    1    3    3    0    0 -0.38011296951E-01  0.34661523622E-01  0.12030600427E+00  0.88967399343E+00  0.88000000000E+00 0.  1.
        -11    1    4    4    0    0  0.28233559881E-01 -0.18048714532E-01 -0.56371384815E-01  0.65581126452E-01  0.51100000000E-03 0. -1.
         11    1    4    4    0    0  0.20165068032E-01 -0.34060771036E-01 -0.51152939002E-01  0.64681143943E-01  0.51100000000E-03 0.  1.
</event>
<event>
 8    1  0.1177602E+005  0.1043930E+01  0.7957747E-01            NaN
         13   -1    0    0    0    0  0.00000000000E+00  0.00000000000E+00  0.74505805969E-08  0.10566000000E+00  0.10566000000E+00 0. -1.
     999900   -1    0    0    0    0 -0.00000000000E+00 -0.00000000000E+00 -0.74505805969E-08  0.93827000000E+00  0.93827000000E+00 0.  1.
     999902    2    1    2    0    0 -0.76906274879E-02 -0.32643304564E-02 -0.24196526707E-01  0.10183316893E+01  0.10180098997E+01 0.  0.
     999903    2    3    3    0    0 -0.81622964497E-01  0.73208101201E-01 -0.68718972043E-01  0.13080914235E+00  0.19157248993E-01 0.  0.
         14    1    1    2    0    0  0.76906274879E-02  0.32643304564E-02  0.24196526707E-01  0.25598310670E-01  0.00000000000E+00 0. -1.
     999901    1    3    3    0    0  0.73932337009E-01 -0.76472431657E-01  0.44522445337E-01  0.88752254698E+00  0.88000000000E+00 0. -1.
        -11    1    4    4    0    0 -0.48444531372E-01  0.43400428251E-01 -0.51624519850E-01  0.83041085994E-01  0.51100000000E-03 0. -1.
         11    1    4    4    0    0 -0.33178433125E-01  0.29807672950E-01 -0.17094452193E-01  0.47768056356E-01  0.51100000000E-03 0.  1.
</event>
<event>
 8    1  0.1177602E+005  0.1043930E+01  0.7957747E-01            NaN
         13   -1    0    0    0    0  0.00000000000E+00  0.00000000000E+00  0.74505805969E-08  0.10566000000E+00  0.10566000000E+00 0. -1.
     999900   -1    0    0    0    0 -0.00000000000E+00 -0.00000000000E+00 -0.74505805969E-08  0.93827000000E+00  0.93827000000E+00 0. -1.
     999902    2    1    2    0    0 -0.16794649678E-01  0.14981455593E-01 -0.89142599193E-02  0.10197232179E+01  0.10194358601E+01 0.  0.
     999903    2    3    3    0    0 -0.10197571300E-01  0.22548788951E-01  0.12594600505E+00  0.12939289884E+00  0.16361165550E-01 0.  0.
         14    1    1    2    0    0  0.16794649678E-01 -0.14981455593E-01  0.89142599193E-02  0.24206782095E-01  0.00000000000E+00 0.  1.
     999901    1    3    3    0    0 -0.65970783783E-02 -0.75673333581E-02 -0.13486026497E+00  0.89033031906E+00  0.88000000000E+00 0. -1.
        -11    1    4    4    0    0 -0.81191204023E-02  0.20872582186E-01  0.72600008642E-01  0.75977675531E-01  0.51100000000E-03 0. -1.
         11    1    4    4    0    0 -0.20784508974E-02  0.16762067654E-02  0.53345996410E-01  0.53415223309E-01  0.51100000000E-03 0.  1.
</event>
<event>
 7    1  0.1177602E+005  0.1043930E+01  0.7957747E-01            NaN
         13   -1    0    0    0    0  0.00000000000E+00  0.00000000000E+00  0.74505805969E-08  0.10566000000E+00  0.10566000000E+00 0.  1.
     999900   -1    0    0    0    0 -0.00000000000E+00 -0.00000000000E+00 -0.74505805969E-08  0.93827000000E+00  0.93827000000E+00 0. -1.
     999903    2    1    2    0    0 -0.17823809503E-01  0.70165673830E-01  0.68123769793E-01  0.10133765970E+00  0.19686627281E-01 0.  0.
         14    1    1    2    0    0  0.47078787045E-01  0.25082012479E-01 -0.14834079764E-01  0.55367584940E-01  0.00000000000E+00 0. -1.
     999901    1    1    2    0    0 -0.29254977543E-01 -0.95247686309E-01 -0.53289690029E-01  0.88722475536E+00  0.88000000000E+00 0. -1.
        -11    1    3    3    0    0  0.42266058334E-02  0.13927545300E-01  0.14736535979E-01  0.20718767545E-01  0.51100000000E-03 0. -1.
         11    1    3    3    0    0 -0.22050415336E-01  0.56238128530E-01  0.53387233814E-01  0.80618892156E-01  0.51100000000E-03 0.  1.
</event>
<event>
 8    1  0.1177602E+005  0.1043930E+01  0.7957747E-01            NaN
         13   -1    0    0    0    0  0.00000000000E+00  0.00000000000E+00  0.74505805969E-08  0.10566000000E+00  0.10566000000E+00 0.  1.
     999900   -1    0    0    0    0 -0.00000000000E+00 -0.00000000000E+00 -0.74505805969E-08  0.93827000000E+00  0.93827000000E+00 0. -1.
     999902    2    1    2    0    0 -0.16658615661E-01  0.16137283888E-01  0.32312663966E-02  0.10205128591E+01  0.10202441536E+01 0.  0.
     999903    2    3    3    0    0  0.49230249551E-01  0.11770615624E+00  0.26991851868E-01  0.13190600347E+00  0.19805983830E-01 0.  0.
         14    1    1    2    0    0  0.16658615661E-01 -0.16137283888E-01 -0.32312663966E-02  0.23417140935E-01  0.00000000000E+00 0. -1.
     999901    1    3    3    0    0 -0.65888865213E-01 -0.10156887236E+00 -0.23760585472E-01  0.88860685560E+00  0.88000000000E+00 0. -1.
        -11    1    4    4    0    0  0.93763094275E-02  0.46859082828E-01  0.11480398519E-01  0.49150274598E-01  0.51100000000E-03 0.  1.
         11    1    4    4    0    0  0.39853940124E-01  0.70847073416E-01  0.15511453350E-01  0.82755728871E-01  0.51100000000E-03 0. -1.
</event>
<event>
 8    1  0.1177602E+005  0.1043930E+01  0.7957747E-01            NaN
         13   -1    0    0    0    0  0.00000000000E+00  0.00000000000E+00  0.74505805969E-08  0.10566000000E+00  0.10566000000E+00 0.  1.
     999900   -1    0    0    0    0 -0.00000000000E+00 -0.00000000000E+00 -0.74505805969E-08  0.93827000000E+00  0.93827000000E+00 0. -1.
     999902    2    1    2    0    0  0.42725987572E-02  0.82124830739E-03  0.24078320729E-01  0.10194617537E+01  0.10191680785E+01 0.  0.
     999903    2    3    3    0    0  0.55177743985E-02  0.86015608601E-01  0.98376475622E-01  0.13223019128E+00  0.19436094615E-01 0.  0.
         14    1    1    2    0    0 -0.42725987572E-02 -0.82124830739E-03 -0.24078320729E-01  0.24468246322E-01  0.00000000000E+00 0. -1.
     999901    1    3    3    0    0 -0.12451756413E-02 -0.85194360294E-01 -0.74298154893E-01  0.88723156239E+00  0.88000000000E+00 0. -1.
        -11    1    4    4    0    0 -0.39573011931E-03  0.60784448337E-01  0.79918249671E-01  0.10040962859E+00  0.51100000000E-03 0. -1.
         11    1    4    4    0    0  0.59135045178E-02  0.25231160265E-01  0.18458225951E-01  0.31820562695E-01  0.51100000000E-03 0.  1.
</event>
<event>
 8    1  0.1177602E+005  0.1043930E+01  0.7957747E-01            NaN
         13   -1    0    0    0    0  0.00000000000E+00  0.00000000000E+00  0.74505805969E-08  0.10566000000E+00  0.10566000000E+00 0. -1.
     999900   -1    0    0    0    0 -0.00000000000E+00 -0.00000000000E+00 -0.74505805969E-08  0.93827000000E+00  0.93827000000E+00 0.  1.
     999902    2    1    2    0    0  0.22498302717E-01 -0.66371271714E-02 -0.22489094468E-03  0.10204720449E+01  0.10202023911E+01 0.  0.
     999903    2    3    3    0    0  0.70242486435E-01  0.10907682109E+00  0.50212429539E-02  0.13159818048E+00  0.21473435361E-01 0.  0.
         14    1    1    2    0    0 -0.22498302717E-01  0.66371271714E-02  0.22489094468E-03  0.23457955115E-01  0.00000000000E+00 0.  1.
     999901    1    3    3    0    0 -0.47744183718E-01 -0.11571394826E+00 -0.52461338986E-02  0.88887386440E+00  0.88000000000E+00 0.  1.
        -11    1    4    4    0    0  0.53210118513E-01  0.89315963361E-01  0.11814797879E-01  0.10463512122E+00  0.51100000000E-03 0. -1.
         11    1    4    4    0    0  0.17032367922E-01  0.19760857725E-01 -0.67935549247E-02  0.26963059259E-01  0.51100000000E-03 0.  1.
</event>
<event>
 8    1  0.1177602E+005  0.1043930E+01  0.7957747E-01            NaN
         13   -1    0    0    0    0  0.00000000000E+00  0.00000000000E+00  0.74505805969E-08  0.10566000000E+00  0.10566000000E+00 0.  1.
     999900   -1    0    0    0    0 -0.00000000000E+00 -0.00000000000E+00 -0.74505805969E-08  0.93827000000E+00  0.93827000000E+00 0. -1.
     999902    2    1    2    0    0 -0.49830572792E-02 -0.96289853405E-02  0.21322871423E-01  0.10200090246E+01  0.10197284919E+01 0.  0.
     999903    2    3    3    0    0  0.11308016471E+00 -0.15320233035E-02 -0.57895120525E-01  0.12856077852E+00  0.19661079482E-01 0.  0.
         14    1    1    2    0    0  0.49830572792E-02  0.96289853405E-02 -0.21322871423E-01  0.23920975403E-01  0.00000000000E+00 0. -1.
     999901    1    3    3    0    0 -0.11806322199E+00 -0.80969620369E-02  0.79217991947E-01  0.89144824607E+00  0.88000000000E+00 0.  1.
        -11    1    4    4    0    0  0.55909528177E-01 -0.38700943908E-02 -0.18227665688E-01  0.58935234699E-01  0.51100000000E-03 0. -1.
         11    1    4    4    0    0  0.57170636538E-01  0.23380710872E-02 -0.39667454836E-01  0.69625543823E-01  0.51100000000E-03 0.  1.
</event>
<event>
 8    1  0.1177602E+005  0.1043930E+01  0.7957747E-01            NaN
         13   -1    0    0    0    0  0.00000000000E+00  0.00000000000E+00  0.74505805969E-08  0.10566000000E+00  0.10566000000E+00 0.  1.
     999900   -1    0    0    0    0 -0.00000000000E+00 -0.00000000000E+00 -0.74505805969E-08  0.93827000000E+00  0.93827000000E+00 0. -1.
     999902    2    1    2    0    0  0.49066040706E-02  0.13755732322E-01 -0.19690536889E-01  0.10194144503E+01  0.10191196246E+01 0.  0.
     999903    2    3    3    0    0  0.84754923872E-01  0.11268184842E-01  0.94062851933E-01  0.12850380631E+00  0.18842478924E-01 0.  0.
         14    1    1    2    0    0 -0.49066040706E-02 -0.13755732322E-01  0.19690536889E-01  0.24515549722E-01  0.00000000000E+00 0.  1.
     999901    1    3    3    0    0 -0.79848319801E-01  0.24875474797E-02 -0.11375338882E+00  0.89091064397E+00  0.88000000000E+00 0. -1.
        -11    1    4    4    0    0  0.64808536504E-01  0.41749542098E-02  0.60138273625E-01  0.88512426935E-01  0.51100000000E-03 0. -1.
         11    1    4    4    0    0  0.19946387368E-01  0.70932306325E-02  0.33924578308E-01  0.39991379374E-01  0.51100000000E-03 0.  1.
</event>
<event>
 8    1  0.1177602E+005  0.1043930E+01  0.7957747E-01            NaN
         13   -1    0    0    0    0  0.00000000000E+00  0.00000000000E+00  0.74505805969E-08  0.10566000000E+00  0.10566000000E+00 0.  1.
     999900   -1    0    0    0    0 -0.00000000000E+00 -0.00000000000E+00 -0.74505805969E-08  0.93827000000E+00  0.93827000000E+00 0. -1.
     999902    2    1    2    0    0 -0.18319903655E-01  0.84330609824E-02 -0.11575831338E-01  0.10206762851E+01  0.10204113600E+01 0.  0.
     999903    2    3    3    0    0 -0.56601944924E-01  0.28624768042E-02  0.11588220349E+00  0.13065263552E+00  0.20723227064E-01 0.  0.
         14    1    1    2    0    0  0.18319903655E-01 -0.84330609824E-02  0.11575831338E-01  0.23253714943E-01  0.00000000000E+00 0.  1.
     999901    1    3    3    0    0  0.38282041269E-01  0.55705841782E-02 -0.12745803483E+00  0.89002364954E+00  0.88000000000E+00 0. -1.
        -11    1    4    4    0    0 -0.29599323519E-01  0.42398850881E-02  0.38954544626E-01  0.49110225476E-01  0.51100000000E-03 0.  1.
         11    1    4    4    0    0 -0.27002621405E-01 -0.13774082839E-02  0.76927658865E-01  0.81542410044E-01  0.51100000000E-03 0. -1.
</event>
<event>
 8    1  0.1177602E+005  0.1043930E+01  0.7957747E-01            NaN
         13   -1    0    0    0    0  0.00000000000E+00  0.00000000000E+00  0.74505805969E-08  0.10566000000E+00  0.10566000000E+00 0.  1.
     999900   -1    0    0    0    0 -0.00000000000E+00 -0.00000000000E+00 -0.74505805969E-08  0.93827000000E+00  0.93827000000E+00 0. -1.
     999902    2    1    2    0    0  0.31407371812E-02 -0.15470852222E-01  0.17947127202E-01  0.10200278898E+01  0.10197478046E+01 0.  0.
     999903    2    3    3    0    0 -0.10064030502E-02 -0.10807202540E+00  0.75252484201E-01  0.13330579126E+00  0.20662092956E-01 0.  0.
         14    1    1    2    0    0 -0.31407371812E-02  0.15470852222E-01 -0.17947127202E-01  0.23902110228E-01  0.00000000000E+00 0. -1.
     999901    1    3    3    0    0  0.41471402314E-02  0.92601173174E-01 -0.57305356998E-01  0.88672209851E+00  0.88000000000E+00 0. -1.
        -11    1    4    4    0    0  0.19906511082E-02 -0.49784129602E-01  0.22651659145E-01  0.54733728496E-01  0.51100000000E-03 0. -1.
         11    1    4    4    0    0 -0.29970541584E-02 -0.58287895794E-01  0.52600825056E-01  0.78572062766E-01  0.51100000000E-03 0.  1.
</event>
<event>
 8    1  0.1177602E+005  0.1043930E+01  0.7957747E-01            NaN
         13   -1    0    0    0    0  0.00000000000E+00  0.00000000000E+00  0.74505805969E-08  0.10566000000E+00  0.10566000000E+00 0.  1.
     999900   -1    0    0    0    0 -0.00000000000E+00 -0.00000000000E+00 -0.74505805969E-08  0.93827000000E+00  0.93827000000E+00 0. -1.
     999902    2    1    2    0    0  0.27928870907E-02  0.21192549403E-01 -0.10902625529E-01  0.10199343418E+01  0.10196520338E+01 0.  0.
     999903    2    3    3    0    0  0.87637250051E-01  0.82967911763E-01 -0.51751761679E-01  0.13275712544E+00  0.19551151874E-01 0.  0.
         14    1    1    2    0    0 -0.27928870907E-02 -0.21192549403E-01  0.10902625529E-01  0.23995658189E-01  0.00000000000E+00 0.  1.
     999901    1    3    3    0    0 -0.84844362961E-01 -0.61775362360E-01  0.40849136150E-01  0.88717721637E+00  0.88000000000E+00 0. -1.
        -11    1    4    4    0    0  0.60707047932E-01  0.66509146238E-01 -0.44140355195E-01  0.10028681010E+00  0.51100000000E-03 0. -1.
         11    1    4    4    0    0  0.26930202119E-01  0.16458765525E-01 -0.76114064835E-02  0.32470315343E-01  0.51100000000E-03 0.  1.
</event>
<event>
 8    1  0.1177602E+005  0.1043930E+01  0.7957747E-01            NaN
         13   -1    0    0    0    0  0.00000000000E+00  0.00000000000E+00  0.74505805969E-08  0.10566000000E+00  0.10566000000E+00 0. -1.
     999900   -1    0    0    0    0 -0.00000000000E+00 -0.00000000000E+00 -0.74505805969E-08  0.93827000000E+00  0.93827000000E+00 0.  1.
     999902    2    1    2    0    0  0.11570983357E-01  0.54945027461E-02 -0.20095304809E-01  0.10200993791E+01  0.10198209866E+01 0.  0.
     999903    2    3    3    0    0 -0.22357496287E-01 -0.93146044810E-01  0.82922570308E-01  0.12797058688E+00  0.18007641013E-01 0.  0.
         14    1    1    2    0    0 -0.11570983357E-01 -0.54945027461E-02  0.20095304809E-01  0.23830620883E-01  0.00000000000E+00 0. -1.
     999901    1    3    3    0    0  0.33928479643E-01  0.98640547556E-01 -0.10301787512E+00  0.89212879224E+00  0.88000000000E+00 0.  1.
        -11    1    4    4    0    0 -0.12652370544E-01 -0.69084987982E-01  0.50829919388E-01  0.86699249540E-01  0.51100000000E-03 0.  1.
         11    1    4    4    0    0 -0.97051257423E-02 -0.24061056827E-01  0.32092650921E-01  0.41271337335E-01  0.51100000000E-03 0. -1.
</event>
<event>
 8    1  0.1177602E+005  0.1043930E+01  0.7957747E-01            NaN
         13   -1    0    0    0    0  0.00000000000E+00  0.00000000000E+00  0.74505805969E-08  0.10566000000E+00  0.10566000000E+00 0. -1.
     999900   -1    0    0    0    0 -0.00000000000E+00 -0.00000000000E+00 -0.74505805969E-08  0.93827000000E+00  0.93827000000E+00 0. -1.
     999902    2    1    2    0    0  0.10584981328E-01  0.20635522122E-01  0.35051612829E-02  0.10204746646E+01  0.10202050717E+01 0.  0.
     999903    2    3    3    0    0  0.29615550792E-01 -0.84956584325E-01  0.90966157647E-01  0.12965409827E+00  0.20991457600E-01 0.  0.
         14    1    1    2    0    0 -0.10584981328E-01 -0.20635522122E-01 -0.35051612829E-02  0.23455335397E-01  0.00000000000E+00 0. -1.
     999901    1    3    3    0    0 -0.19030569464E-01  0.10559210645E+00 -0.87460996364E-01  0.89082056633E+00  0.88000000000E+00 0. -1.
        -11    1    4    4    0    0  0.18039343748E-01 -0.74896630989E-01  0.75565895379E-01  0.10791380320E+00  0.51100000000E-03 0.  1.
         11    1    4    4    0    0  0.11576207044E-01 -0.10059953336E-01  0.15400262267E-01  0.21740295065E-01  0.51100000000E-03 0. -1.
</event>
<event>
 8    1  0.1177602E+005  0.1043930E+01  0.7957747E-01            NaN
         13   -1    0    0    0    0  0.00000000000E+00  0.00000000000E+00  0.74505805969E-08  0.10566000000E+00  0.10566000000E+00 0. -1.
     999900   -1    0    0    0    0 -0.00000000000E+00 -0.00000000000E+00 -0.74505805969E-08  0.93827000000E+00  0.93827000000E+00 0.  1.
     999902    2    1    2    0    0  0.80245778082E-02  0.30423010608E-01 -0.10282870174E-01  0.10108287788E+01  0.10102866570E+01 0.  0.
     999903    2    3    3    0    0 -0.59279624503E-01 -0.30070744750E-01 -0.99830671847E-01  0.12166728683E+00  0.20455856666E-01 0.  0.
         14    1    1    2    0    0 -0.80245778082E-02 -0.30423010608E-01  0.10282870174E-01  0.33101221163E-01  0.00000000000E+00 0.  1.
     999901    1    3    3    0    0  0.67304202311E-01  0.60493755357E-01  0.89547801673E-01  0.88916149201E+00  0.88000000000E+00 0. -1.
        -11    1    4    4    0    0 -0.26962259958E-01 -0.24381821823E-01 -0.46152513224E-01  0.58751615258E-01  0.51100000000E-03 0.  1.
         11    1    4    4    0    0 -0.32317364545E-01 -0.56889229267E-02 -0.53678158622E-01  0.62915671571E-01  0.51100000000E-03 0. -1.
</event>
<event>
 8    1  0.1177602E+005  0.1043930E+01  0.7957747E-01            NaN
         13   -1    0    0    0    0  0.00000000000E+00  0.00000000000E+00  0.74505805969E-08  0.10566000000E+00  0.10566000000E+00 0. -1.
     999900   -1    0    0    0    0 -0.00000000000E+00 -0.00000000000E+00 -0.74505805969E-08  0.93827000000E+00  0.93827000000E+00 0. -1.
     999902    2    1    2    0    0  0.98061429171E-03  0.22002416217E-01 -0.86018783711E-02  0.10202855454E+01  0.10200115361E+01 0.  0.
     999903    2    3    3    0    0  0.80379940913E-01 -0.80586455696E-01  0.56031931546E-01  0.12843003066E+00  0.19989589307E-01 0.  0.
         14    1    1    2    0    0 -0.98061429171E-03 -0.22002416217E-01  0.86018783711E-02  0.23644454641E-01  0.00000000000E+00 0.  1.
     999901    1    3    3    0    0 -0.79399326621E-01  0.10258887191E+00 -0.64633809917E-01  0.89185551470E+00  0.88000000000E+00 0. -1.
        -11    1    4    4    0    0  0.63423773190E-01 -0.73231189047E-01  0.49715379199E-01  0.10889105613E+00  0.51100000000E-03 0. -1.
         11    1    4    4    0    0  0.16956167723E-01 -0.73552666487E-02  0.63165523475E-02  0.19538974535E-01  0.51100000000E-03 0.  1.
</event>
<event>
 8    1  0.1222420E+005  0.1043930E+01  0.7957747E-01            NaN
         13   -1    0    0    0    0  0.00000000000E+00  0.00000000000E+00  0.74505805969E-08  0.10566000000E+00  0.10566000000E+00 0.  1.
     999900   -1    0    0    0    0 -0.00000000000E+00 -0.00000000000E+00 -0.74505805969E-08  0.93827000000E+00  0.93827000000E+00 0. -1.
     999902    2    1    2    0    0 -0.11628611920E-01 -0.18661179834E-01 -0.79842573320E-02  0.10205374240E+01  0.10202692885E+01 0.  0.
     999903    2    3    3    0    0  0.12344357386E+00 -0.12905505959E-01  0.30270856023E-01  0.12939148932E+00  0.20517426064E-01 0.  0.
         14    1    1    2    0    0  0.11628611920E-01  0.18661179834E-01  0.79842573320E-02  0.23392576026E-01  0.00000000000E+00 0.  1.
     999901    1    3    3    0    0 -0.13507218578E+00 -0.57556738752E-02 -0.38255113355E-01  0.89114593465E+00  0.88000000000E+00 0. -1.
        -11    1    4    4    0    0  0.48807045168E-01 -0.10538822999E-01  0.20892758429E-01  0.54129131935E-01  0.51100000000E-03 0.  1.
         11    1    4    4    0    0  0.74636528694E-01 -0.23666829592E-02  0.93780975937E-02  0.75262357385E-01  0.51100000000E-03 0. -1.
</event>
<event>
 8    1  0.1177602E+005  0.1043930E+01  0.7957747E-01            NaN
         13   -1    0    0    0    0  0.00000000000E+00  0.00000000000E+00  0.74505805969E-08  0.10566000000E+00  0.10566000000E+00 0. -1.
     999900   -1    0    0    0    0 -0.00000000000E+00 -0.00000000000E+00 -0.74505805969E-08  0.93827000000E+00  0.93827000000E+00 0. -1.
     999902    2    1    2    0    0  0.53472757857E-02  0.14799188631E-01 -0.17676050591E-01  0.10202645799E+01  0.10199900789E+01 0.  0.
     999903    2    3    3    0    0  0.78390773311E-01  0.11299175773E-01  0.97692578408E-01  0.12972680803E+00  0.31818550144E-01 0.  0.
         14    1    1    2    0    0 -0.53472757857E-02 -0.14799188631E-01  0.17676050591E-01  0.23665420067E-01  0.00000000000E+00 0. -1.
     999901    1    3    3    0    0 -0.73043497526E-01  0.35000128579E-02 -0.11536862900E+00  0.89053777190E+00  0.88000000000E+00 0. -1.
        -11    1    4    4    0    0  0.61881146283E-01  0.19512810977E-01  0.86562967655E-01  0.10818241330E+00  0.51100000000E-03 0. -1.
         11    1    4    4    0    0  0.16509627028E-01 -0.82136352046E-02  0.11129610754E-01  0.21544394733E-01  0.51100000000E-03 0.  1.
</event>
<event>
 8    1  0.1177602E+005  0.1043930E+01  0.7957747E-01            NaN
         13   -1    0    0    0    0  0.00000000000E+00  0.00000000000E+00  0.74505805969E-08  0.10566000000E+00  0.10566000000E+00 0. -1.
     999900   -1    0    0    0    0 -0.00000000000E+00 -0.00000000000E+00 -0.74505805969E-08  0.93827000000E+00  0.93827000000E+00 0.  1.
     999902    2    1    2    0    0  0.10993298063E-02  0.16427564182E-01  0.16779715501E-01  0.10204218686E+01  0.10201510465E+01 0.  0.
     999903    2    3    3    0    0 -0.27099299268E-01 -0.12346006316E+00 -0.13562644313E-01  0.12841045062E+00  0.18125652847E-01 0.  0.
         14    1    1    2    0    0 -0.10993298063E-02 -0.16427564182E-01 -0.16779715501E-01  0.23508131429E-01  0.00000000000E+00 0.  1.
     999901    1    3    3    0    0  0.28198629075E-01  0.13988762734E+00  0.30342359814E-01  0.89201141796E+00  0.88000000000E+00 0. -1.
        -11    1    4    4    0    0 -0.28559286185E-01 -0.10800132056E+00 -0.15380500871E-01  0.11276851953E+00  0.51100000000E-03 0.  1.
         11    1    4    4    0    0  0.14599869167E-02 -0.15458742599E-01  0.18178565582E-02  0.15641931083E-01  0.51100000000E-03 0. -1.
</event>
<event>
 8    1  0.1177602E+005  0.1043930E+01  0.7957747E-01            NaN
         13   -1    0    0    0    0  0.00000000000E+00  0.00000000000E+00  0.74505805969E-08  0.10566000000E+00  0.10566000000E+00 0. -1.
     999900   -1    0    0    0    0 -0.00000000000E+00 -0.00000000000E+00 -0.74505805969E-08  0.93827000000E+00  0.93827000000E+00 0.  1.
     999902    2    1    2    0    0 -0.17723612081E-01  0.13141457442E-01 -0.90309135838E-02  0.10200892423E+01  0.10198106101E+01 0.  0.
     999903    2    3    3    0    0  0.42456145350E-01  0.75022930177E-01 -0.97267726268E-01  0.13147422159E+00  0.19836734577E-01 0.  0.
         14    1    1    2    0    0  0.17723612081E-01 -0.13141457442E-01  0.90309135838E-02  0.23840757728E-01  0.00000000000E+00 0. -1.
     999901    1    3    3    0    0 -0.60179757431E-01 -0.61881472734E-01  0.88236812684E-01  0.88861502068E+00  0.88000000000E+00 0. -1.
        -11    1    4    4    0    0  0.36908104640E-01  0.61071509124E-01 -0.67973193388E-01  0.98552288432E-01  0.51100000000E-03 0. -1.
         11    1    4    4    0    0  0.55480407097E-02  0.13951421052E-01 -0.29294532879E-01  0.32921933156E-01  0.51100000000E-03 0.  1.
</event>
<event>
 8    1  0.1177602E+005  0.1043930E+01  0.7957747E-01            NaN
         13   -1    0    0    0    0  0.00000000000E+00  0.00000000000E+00  0.74505805969E-08  0.10566000000E+00  0.10566000000E+00 0. -1.
     999900   -1    0    0    0    0 -0.00000000000E+00 -0.00000000000E+00 -0.74505805969E-08  0.93827000000E+00  0.93827000000E+00 0. -1.
     999902    2    1    2    0    0 -0.15258881067E-01 -0.16279985335E-01  0.68241701891E-02  0.10205967475E+01  0.10203299860E+01 0.  0.
     999903    2    3    3    0    0 -0.42797933856E-01  0.37424520367E-01  0.11676287913E+00  0.13170468819E+00  0.21915681158E-01 0.  0.
         14    1    1    2    0    0  0.15258881067E-01  0.16279985335E-01 -0.68241701891E-02  0.23333252510E-01  0.00000000000E+00 0.  1.
     999901    1    3    3    0    0  0.27539052789E-01 -0.53704505703E-01 -0.10993870894E+00  0.88889205930E+00  0.88000000000E+00 0. -1.
        -11    1    4    4    0    0 -0.28768524632E-01  0.22481594647E-01  0.50334792863E-01  0.62184424102E-01  0.51100000000E-03 0. -1.
         11    1    4    4    0    0 -0.14029409224E-01  0.14942925720E-01  0.66428086271E-01  0.69520264088E-01  0.51100000000E-03 0.  1.
</event>
<event>
 8    1  0.1177602E+005  0.1043930E+01  0.7957747E-01            NaN
         13   -1    0    0    0    0  0.00000000000E+00  0.00000000000E+00  0.74505805969E-08  0.10566000000E+00  0.10566000000E+00 0.  1.
     999900   -1    0    0    0    0 -0.00000000000E+00 -0.00000000000E+00 -0.74505805969E-08  0.93827000000E+00  0.93827000000E+00 0.  1.
     999902    2    1    2    0    0  0.17276842300E-01 -0.24577829231E-02  0.14896233887E-01  0.10209859864E+01  0.10207281502E+01 0.  0.
     999903    2    3    3    0    0 -0.46913684857E-01  0.11855292691E+00 -0.14108816088E-01  0.12991623121E+00  0.20578584351E-01 0.  0.
         14    1    1    2    0    0 -0.17276842300E-01  0.24577829231E-02 -0.14896233887E-01  0.22944013616E-01  0.00000000000E+00 0. -1.
     999901    1    3    3    0    0  0.64190527158E-01 -0.12101070983E+00  0.29005049976E-01  0.89106975518E+00  0.88000000000E+00 0.  1.
        -11    1    4    4    0    0 -0.13044199942E-01  0.16602500267E-01 -0.70041895658E-02  0.22251156368E-01  0.51100000000E-03 0.  1.
         11    1    4    4    0    0 -0.33869484915E-01  0.10195042664E+00 -0.71046265224E-02  0.10766507484E+00  0.51100000000E-03 0. -1.
</event>
<event>
 8    1  0.1177602E+005  0.1043930E+01  0.7957747E-01            NaN
         13   -1    0    0    0    0  0.00000000000E+00  0.00000000000E+00  0.74505805969E-08  0.10566000000E+00  0.10566000000E+00 0.  1.
     999900   -1    0    0    0    0 -0.00000000000E+00 -0.00000000000E+00 -0.74505805969E-08  0.93827000000E+00  0.93827000000E+00 0. -1.
     999902    2    1    2    0    0  0.17938854488E-01 -0.10987030097E-01 -0.60510320238E-02  0.10220409087E+01  0.10218064820E+01 0.  0.
     999903    2    3    3    0    0  0.11975762292E+00 -0.54391673206E-01 -0.24368500009E-01  0.13491828226E+00  0.17572044097E-01 0.  0.
         14    1    1    2    0    0 -0.17938854488E-01  0.10987030097E-01  0.60510320238E-02  0.21889091330E-01  0.00000000000E+00 0. -1.
     999901    1    3    3    0    0 -0.10181876844E+00  0.43404643109E-01  0.18317467985E-01  0.88712262641E+00  0.88000000000E+00 0. -1.
        -11    1    4    4    0    0  0.68366785922E-01 -0.23740753339E-01 -0.75850927950E-02  0.72769743302E-01  0.51100000000E-03 0. -1.
         11    1    4    4    0    0  0.51390837001E-01 -0.30650919867E-01 -0.16783407214E-01  0.62148538962E-01  0.51100000000E-03 0.  1.
</event>
<event>
 8    1  0.1177602E+005  0.1043930E+01  0.7957747E-01            NaN
         13   -1    0    0    0    0  0.00000000000E+00  0.00000000000E+00  0.74505805969E-08  0.10566000000E+00  0.10566000000E+00 0.  1.
     999900   -1    0    0    0    0 -0.00000000000E+00 -0.00000000000E+00 -0.74505805969E-08  0.93827000000E+00  0.93827000000E+00 0. -1.
     999902    2    1    2    0    0 -0.12766962938E-01 -0.20782633670E-01  0.25177127110E-02  0.10194095579E+01  0.10191146131E+01 0.  0.
     999903    2    3    3    0    0  0.54413656452E-01  0.10722455138E-01 -0.11431181790E+00  0.12859254778E+00  0.19825099770E-01 0.  0.
         14    1    1    2    0    0  0.12766962938E-01  0.20782633670E-01 -0.25177127110E-02  0.24520442129E-01  0.00000000000E+00 0. -1.
     999901    1    3    3    0    0 -0.67180619390E-01 -0.31505088808E-01  0.11682953061E+00  0.89081701009E+00  0.88000000000E+00 0. -1.
        -11    1    4    4    0    0  0.25252364920E-01  0.30903710128E-02 -0.31686715881E-01  0.40639161057E-01  0.51100000000E-03 0.  1.
         11    1    4    4    0    0  0.29161291532E-01  0.76320841253E-02 -0.82625102018E-01  0.87953386725E-01  0.51100000000E-03 0. -1.
</event>
<event>
 8    1  0.1177602E+005  0.1043930E+01  0.7957747E-01            NaN
         13   -1    0    0    0    0  0.00000000000E+00  0.00000000000E+00  0.74505805969E-08  0.10566000000E+00  0.10566000000E+00 0.  1.
     999900   -1    0    0    0    0 -0.00000000000E+00 -0.00000000000E+00 -0.74505805969E-08  0.93827000000E+00  0.93827000000E+00 0.  1.
     999902    2    1    2    0    0  0.84872939586E-02 -0.22984965119E-01 -0.24566575287E-02  0.10193052574E+01  0.10190077673E+01 0.  0.
     999903    2    3    3    0    0  0.34546042541E-02  0.10589043416E+00 -0.68151700613E-01  0.12748126404E+00  0.19547379554E-01 0.  0.
         14    1    1    2    0    0 -0.84872939586E-02  0.22984965119E-01  0.24566575287E-02  0.24624742567E-01  0.00000000000E+00 0. -1.
     999901    1    3    3    0    0  0.50326897045E-02 -0.12887539928E+00  0.65695043084E-01  0.89182399339E+00  0.88000000000E+00 0. -1.
        -11    1    4    4    0    0  0.37322611411E-02  0.81284511689E-01 -0.42010283048E-01  0.91576343105E-01  0.51100000000E-03 0. -1.
         11    1    4    4    0    0 -0.27765688707E-03  0.24605922473E-01 -0.26141417564E-01  0.35904920935E-01  0.51100000000E-03 0.  1.
</event>
<event>
 8    1  0.1177602E+005  0.1043930E+01  0.7957747E-01            NaN
         13   -1    0    0    0    0  0.00000000000E+00  0.00000000000E+00  0.74505805969E-08  0.10566000000E+00  0.10566000000E+00 0. -1.
     999900   -1    0    0    0    0 -0.00000000000E+00 -0.00000000000E+00 -0.74505805969E-08  0.93827000000E+00  0.93827000000E+00 0.  1.
     999902    2    1    2    0    0 -0.26310519346E-02  0.99068831169E-02 -0.20314344939E-01  0.10211760690E+01  0.10209225350E+01 0.  0.
     999903    2    3    3    0    0 -0.77362184130E-01  0.10532166829E+00  0.91126690361E-02  0.13238212631E+00  0.19089926232E-01 0.  0.
         14    1    1    2    0    0  0.26310519346E-02 -0.99068831169E-02  0.20314344939E-01  0.22753931038E-01  0.00000000000E+00 0. -1.
     999901    1    3    3    0    0  0.74731132195E-01 -0.95414785175E-01 -0.29427013975E-01  0.88879394266E+00  0.88000000000E+00 0. -1.
        -11    1    4    4    0    0 -0.46823297632E-01  0.47685025985E-01  0.52714137804E-02  0.67039777957E-01  0.51100000000E-03 0. -1.
         11    1    4    4    0    0 -0.30538886498E-01  0.57636642307E-01  0.38412552557E-02  0.65342348350E-01  0.51100000000E-03 0.  1.
</event>
<event>
 8    1  0.1177602E+005  0.1043930E+01  0.7957747E-01            NaN
         13   -1    0    0    0    0  0.00000000000E+00  0.00000000000E+00  0.74505805969E-08  0.10566000000E+00  0.10566000000E+00 0. -1.
     999900   -1    0    0    0    0 -0.00000000000E+00 -0.00000000000E+00 -0.74505805969E-08  0.93827000000E+00  0.93827000000E+00 0. -1.
     999902    2    1    2    0    0 -0.12122983959E-01  0.21591542970E-01 -0.15413762105E-01  0.10147624576E+01  0.10143431864E+01 0.  0.
     999903    2    3    3    0    0  0.78682262308E-01  0.42444055841E-01 -0.87819392996E-01  0.12688690582E+00  0.19890822137E-01 0.  0.
         14    1    1    2    0    0  0.12122983959E-01 -0.21591542970E-01  0.15413762105E-01  0.29167542408E-01  0.00000000000E+00 0. -1.
     999901    1    3    3    0    0 -0.90805246267E-01 -0.20852512871E-01  0.72405630891E-01  0.88787555177E+00  0.88000000000E+00 0. -1.
        -11    1    4    4    0    0  0.22691125264E-01  0.97671433324E-02 -0.37091513870E-01  0.44568214871E-01  0.51100000000E-03 0.  1.
         11    1    4    4    0    0  0.55991137044E-01  0.32676912509E-01 -0.50727879126E-01  0.82318690953E-01  0.51100000000E-03 0. -1.
</event>
<event>
 8    1  0.1177602E+005  0.1043930E+01  0.7957747E-01            NaN
         13   -1    0    0    0    0  0.00000000000E+00  0.00000000000E+00  0.74505805969E-08  0.10566000000E+00  0.10566000000E+00 0. -1.
     999900   -1    0    0    0    0 -0.00000000000E+00 -0.00000000000E+00 -0.74505805969E-08  0.93827000000E+00  0.93827000000E+00 0. -1.
     999902    2    1    2    0    0  0.18533102819E-01  0.12253501118E-01  0.60912612113E-02  0.10208924729E+01  0.10206325067E+01 0.  0.
     999903    2    3    3    0    0  0.21438323146E-01 -0.74105901261E-01 -0.10270391663E+00  0.12999249124E+00  0.19966646822E-01 0.  0.
         14    1    1    2    0    0 -0.18533102819E-01 -0.12253501118E-01 -0.60912612113E-02  0.23037527057E-01  0.00000000000E+00 0.  1.
     999901    1    3    3    0    0 -0.29052203271E-02  0.86359402379E-01  0.10879517784E+00  0.89089998171E+00  0.88000000000E+00 0.  1.
        -11    1    4    4    0    0  0.14454791975E-01 -0.70188002648E-01 -0.92393748196E-01  0.11692802296E+00  0.51100000000E-03 0.  1.
         11    1    4    4    0    0  0.69835311710E-02 -0.39178986135E-02 -0.10310168435E-01  0.13064468275E-01  0.51100000000E-03 0. -1.
</event>
<event>
 8    1  0.1177602E+005  0.1043930E+01  0.7957747E-01            NaN
         13   -1    0    0    0    0  0.00000000000E+00  0.00000000000E+00  0.74505805969E-08  0.10566000000E+00  0.10566000000E+00 0.  1.
     999900   -1    0    0    0    0 -0.00000000000E+00 -0.00000000000E+00 -0.74505805969E-08  0.93827000000E+00  0.93827000000E+00 0.  1.
     999902    2    1    2    0    0  0.97199401618E-02 -0.20905385984E-01  0.29137897638E-02  0.10206920446E+01  0.10204274827E+01 0.  0.
     999903    2    3    3    0    0 -0.24399905304E-01  0.44429655646E-01 -0.11690611482E+00  0.12951886220E+00  0.23210909122E-01 0.  0.
         14    1    1    2    0    0 -0.97199401618E-02  0.20905385984E-01 -0.29137897638E-02  0.23237955390E-01  0.00000000000E+00 0. -1.
     999901    1    3    3    0    0  0.34119845466E-01 -0.65335041631E-01  0.11981990458E+00  0.89117318241E+00  0.88000000000E+00 0. -1.
        -11    1    4    4    0    0 -0.11661731826E-01  0.28461565459E-01 -0.43203992388E-01  0.53036805869E-01  0.51100000000E-03 0. -1.
         11    1    4    4    0    0 -0.12738173478E-01  0.15968090187E-01 -0.73702122433E-01  0.76482056327E-01  0.51100000000E-03 0.  1.
</event>
<event>
 8    1  0.1177602E+005  0.1043930E+01  0.7957747E-01            NaN
         13   -1    0    0    0    0  0.00000000000E+00  0.00000000000E+00  0.74505805969E-08  0.10566000000E+00  0.10566000000E+00 0. -1.
     999900   -1    0    0    0    0 -0.00000000000E+00 -0.00000000000E+00 -0.74505805969E-08  0.93827000000E+00  0.93827000000E+00 0.  1.
     999902    2    1    2    0    0 -0.15781368726E-01  0.71244390066E-02 -0.16391526611E-01  0.10200869428E+01  0.10198082563E+01 0.  0.
     999903    2    3    3    0    0 -0.66136843138E-01 -0.39750039806E-01  0.10205681496E+00  0.12949000809E+00  0.19947958043E-01 0.  0.
         14    1    1    2    0    0  0.15781368726E-01 -0.71244390066E-02  0.16391526611E-01  0.23843057158E-01  0.00000000000E+00 0. -1.
     999901    1    3    3    0    0  0.50355474412E-01  0.46874478812E-01 -0.11844834157E+00  0.89059693475E+00  0.88000000000E+00 0.  1.
        -11    1    4    4    0    0 -0.34428266588E-01 -0.31583026674E-01  0.64781973193E-01  0.79873389098E-01  0.51100000000E-03 0. -1.
         11    1    4    4    0    0 -0.31708576550E-01 -0.81670131320E-02  0.37274841769E-01  0.49616618992E-01  0.51100000000E-03 0.  1.
</event>
<event>
 8    1  0.1177602E+005  0.1043930E+01  0.7957747E-01            NaN
         13   -1    0    0    0    0  0.00000000000E+00  0.00000000000E+00  0.74505805969E-08  0.10566000000E+00  0.10566000000E+00 0.  1.
     999900   -1    0    0    0    0 -0.00000000000E+00 -0.00000000000E+00 -0.74505805969E-08  0.93827000000E+00  0.93827000000E+00 0.  1.
     999902    2    1    2    0    0  0.22361785027E-01  0.44318413496E-02  0.14566917630E-02  0.10210867822E+01  0.10208312320E+01 0.  0.
     999903    2    3    3    0    0  0.10496093441E-02  0.11737089037E+00  0.56607407523E-01  0.13190117783E+00  0.20408197820E-01 0.  0.
         14    1    1    2    0    0 -0.22361785027E-01 -0.44318413496E-02 -0.14566917630E-02  0.22843217773E-01  0.00000000000E+00 0. -1.
     999901    1    3    3    0    0  0.21312175682E-01 -0.11293904902E+00 -0.55150715760E-01  0.88918560440E+00  0.88000000000E+00 0.  1.
        -11    1    4    4    0    0  0.95652881058E-02  0.76683412994E-01  0.41115825591E-01  0.87536351306E-01  0.51100000000E-03 0.  1.
         11    1    4    4    0    0 -0.85156787618E-02  0.40687477380E-01  0.15491581932E-01  0.44364826519E-01  0.51100000000E-03 0. -1.
</event>
<event>
 8    1  0.1177602E+005  0.1043930E+01  0.7957747E-01            NaN
         13   -1    0    0    0    0  0.00000000000E+00  0.00000000000E+00  0.74505805969E-08  0.10566000000E+00  0.10566000000E+00 0. -1.
     999900   -1    0    0    0    0 -0.00000000000E+00 -0.00000000000E+00 -0.74505805969E-08  0.93827000000E+00  0.93827000000E+00 0.  1.
     999902    2    1    2    0    0 -0.62896543744E-02  0.17300783934E-01 -0.14706284238E-01  0.10203683432E+01  0.10200962720E+01 0.  0.
     999903    2    3    3    0    0  0.77596411304E-01 -0.99879332027E-01 -0.11395230770E-01  0.12864023737E+00  0.20527429740E-01 0.  0.
         14    1    1    2    0    0  0.62896543744E-02 -0.17300783934E-01  0.14706284238E-01  0.23561656838E-01  0.00000000000E+00 0. -1.
     999901    1    3    3    0    0 -0.83886065678E-01  0.11718011596E+00 -0.33110534687E-02  0.89172810580E+00  0.88000000000E+00 0. -1.
        -11    1    4    4    0    0  0.71186354963E-02 -0.69195389337E-02 -0.65064362015E-02  0.11880649116E-01  0.51100000000E-03 0.  1.
         11    1    4    4    0    0  0.70477775807E-01 -0.92959793094E-01 -0.48887945683E-02  0.11675958825E+00  0.51100000000E-03 0. -1.
</event>
<event>
 8    1  0.1177602E+005  0.1043930E+01  0.7957747E-01            NaN
         13   -1    0    0    0    0  0.00000000000E+00  0.00000000000E+00  0.74505805969E-08  0.10566000000E+00  0.10566000000E+00 0.  1.
     999900   -1    0    0    0    0 -0.00000000000E+00 -0.00000000000E+00 -0.74505805969E-08  0.93827000000E+00  0.93827000000E+00 0.  1.
     999902    2    1    2    0    0  0.37328570399E-02 -0.21212840678E-01 -0.99038438565E-02  0.10202233563E+01  0.10199478868E+01 0.  0.
     999903    2    3    3    0    0 -0.10582839954E+00 -0.90069365679E-02  0.71644223016E-01  0.12960405480E+00  0.19584209791E-01 0.  0.
         14    1    1    2    0    0 -0.37328570399E-02  0.21212840678E-01  0.99038438565E-02  0.23706643677E-01  0.00000000000E+00 0.  1.
     999901    1    3    3    0    0  0.10956125658E+00 -0.12205904110E-01 -0.81548066873E-01  0.89061930153E+00  0.88000000000E+00 0. -1.
        -11    1    4    4    0    0 -0.92535315424E-01 -0.56851223528E-02  0.69169790598E-01  0.11567119896E+00  0.51100000000E-03 0. -1.
         11    1    4    4    0    0 -0.13293084115E-01 -0.33218142151E-02  0.24744324181E-02  0.13932855836E-01  0.51100000000E-03 0.  1.
</event>
<event>
 8    1  0.1177602E+005  0.1043930E+01  0.7957747E-01            NaN
         13   -1    0    0    0    0  0.00000000000E+00  0.00000000000E+00  0.74505805969E-08  0.10566000000E+00  0.10566000000E+00 0.  1.
     999900   -1    0    0    0    0 -0.00000000000E+00 -0.00000000000E+00 -0.74505805969E-08  0.93827000000E+00  0.93827000000E+00 0.  1.
     999902    2    1    2    0    0  0.23767818370E-01 -0.48729114702E-02 -0.96958785309E-02  0.10178021506E+01  0.10174667332E+01 0.  0.
     999903    2    3    3    0    0  0.20294039776E-01  0.11732558804E+00  0.41957966356E-01  0.12785121926E+00  0.20206970731E-01 0.  0.
         14    1    1    2    0    0 -0.23767818370E-01  0.48729114702E-02  0.96958785309E-02  0.26127849447E-01  0.00000000000E+00 0. -1.
     999901    1    3    3    0    0  0.34737785942E-02 -0.12219849951E+00 -0.51653844886E-01  0.88995093129E+00  0.88000000000E+00 0. -1.
        -11    1    4    4    0    0  0.11608512466E-01  0.45190411935E-01  0.68663327367E-02  0.47162893664E-01  0.51100000000E-03 0.  1.
         11    1    4    4    0    0  0.86855273097E-02  0.72135176104E-01  0.35091633619E-01  0.80688325595E-01  0.51100000000E-03 0. -1.
</event>
<event>
 8    1  0.1177602E+005  0.1043930E+01  0.7957747E-01            NaN
         13   -1    0    0    0    0  0.00000000000E+00  0.00000000000E+00  0.74505805969E-08  0.10566000000E+00  0.10566000000E+00 0. -1.
     999900   -1    0    0    0    0 -0.00000000000E+00 -0.00000000000E+00 -0.74505805969E-08  0.93827000000E+00  0.93827000000E+00 0.  1.
     999902    2    1    2    0    0  0.93813204245E-02  0.14365167185E-01 -0.16485091472E-01  0.10201366093E+01  0.10198590962E+01 0.  0.
     999903    2    3    3    0    0 -0.36131828202E-01  0.74813979878E-01  0.97333062048E-01  0.12958617403E+00  0.20401248428E-01 0.  0.
         14    1    1    2    0    0 -0.93813204245E-02 -0.14365167185E-01  0.16485091472E-01  0.23793390720E-01  0.00000000000E+00 0. -1.
     999901    1    3    3    0    0  0.45513148627E-01 -0.60448812693E-01 -0.11381815352E+00  0.89055043525E+00  0.88000000000E+00 0.  1.
        -11    1    4    4    0    0 -0.32059082875E-01  0.47857879877E-01  0.73398956492E-01  0.93305034142E-01  0.51100000000E-03 0.  1.
         11    1    4    4    0    0 -0.40727453278E-02  0.26956100001E-01  0.23934105557E-01  0.36281139888E-01  0.51100000000E-03 0. -1.
</event>
<event>
 8    1  0.1177602E+005  0.1043930E+01  0.7957747E-01            NaN
         13   -1    0    0    0    0  0.00000000000E+00  0.00000000000E+00  0.74505805969E-08  0.10566000000E+00  0.10566000000E+00 0. -1.
     999900   -1    0    0    0    0 -0.00000000000E+00 -0.00000000000E+00 -0.74505805969E-08  0.93827000000E+00  0.93827000000E+00 0.  1.
     999902    2    1    2    0    0  0.18215967668E-01  0.10718508484E-01  0.75553393234E-02  0.10214847097E+01  0.10212380825E+01 0.  0.
     999903    2    3    3    0    0  0.45367563928E-01  0.12395522173E+00 -0.22867116808E-02  0.13375917312E+00  0.21521489106E-01 0.  0.
         14    1    1    2    0    0 -0.18215967668E-01 -0.10718508484E-01 -0.75553393234E-02  0.22445290251E-01  0.00000000000E+00 0.  1.
     999901    1    3    3    0    0 -0.27151596261E-01 -0.11323671325E+00  0.98420510042E-02  0.88772553662E+00  0.88000000000E+00 0.  1.
        -11    1    4    4    0    0  0.41956934922E-02  0.15820848687E-01  0.67197198827E-02  0.17700815048E-01  0.51100000000E-03 0.  1.
         11    1    4    4    0    0  0.41171870436E-01  0.10813437304E+00 -0.90064315635E-02  0.11605835808E+00  0.51100000000E-03 0. -1.
</event>
<event>
 8    1  0.1177602E+005  0.1043930E+01  0.7957747E-01            NaN
         13   -1    0    0    0    0  0.00000000000E+00  0.00000000000E+00  0.74505805969E-08  0.10566000000E+00  0.10566000000E+00 0. -1.
     999900   -1    0    0    0    0 -0.00000000000E+00 -0.00000000000E+00 -0.74505805969E-08  0.93827000000E+00  0.93827000000E+00 0. -1.
     999902    2    1    2    0    0 -0.18115877259E-01  0.45790234118E-02 -0.14840117317E-01  0.10200682828E+01  0.10197891547E+01 0.  0.
     999903    2    3    3    0    0  0.20376781603E-01  0.11528570832E+00 -0.56244817394E-01  0.13133209922E+00  0.19458495111E-01 0.  0.
         14    1    1    2    0    0  0.18115877259E-01 -0.45790234118E-02  0.14840117317E-01  0.23861717169E-01  0.00000000000E+00 0. -1.
     999901    1    3    3    0    0 -0.38492658862E-01 -0.11070668490E+00  0.41404700076E-01  0.88873618361E+00  0.88000000000E+00 0.  1.
        -11    1    4    4    0    0  0.18461619487E-01  0.10269698679E+00 -0.56349926523E-01  0.11858784858E+00  0.51100000000E-03 0.  1.
         11    1    4    4    0    0  0.19151621153E-02  0.12588721524E-01  0.10510912984E-03  0.12744250644E-01  0.51100000000E-03 0. -1.
</event>
<event>
 8    1  0.1177602E+005  0.1043930E+01  0.7957747E-01            NaN
         13   -1    0    0    0    0  0.00000000000E+00  0.00000000000E+00  0.74505805969E-08  0.10566000000E+00  0.10566000000E+00 0.  1.
     999900   -1    0    0    0    0 -0.00000000000E+00 -0.00000000000E+00 -0.74505805969E-08  0.93827000000E+00  0.93827000000E+00 0. -1.
     999902    2    1    2    0    0 -0.11889686655E-01  0.16473627902E-01 -0.14120308418E-01  0.10191887758E+01  0.10188884299E+01 0.  0.
     999903    2    3    3    0    0  0.28822519089E-01  0.12515146179E+00  0.16243116884E-01  0.13105010821E+00  0.20412398681E-01 0.  0.
         14    1    1    2    0    0  0.11889686655E-01 -0.16473627902E-01  0.14120308418E-01  0.24741224198E-01  0.00000000000E+00 0.  1.
     999901    1    3    3    0    0 -0.40712205744E-01 -0.10867783389E+00 -0.30363425302E-01  0.88813866759E+00  0.88000000000E+00 0.  1.
        -11    1    4    4    0    0  0.16059181583E-02  0.35361940937E-01  0.11028615353E-01  0.37080147216E-01  0.51100000000E-03 0.  1.
         11    1    4    4    0    0  0.27216600931E-01  0.89789520857E-01  0.52145015307E-02  0.93969960993E-01  0.51100000000E-03 0. -1.
</event>
<event>
 8    1  0.1177602E+005  0.1043930E+01  0.7957747E-01            NaN
         13   -1    0    0    0    0  0.00000000000E+00  0.00000000000E+00  0.74505805969E-08  0.10566000000E+00  0.10566000000E+00 0. -1.
     999900   -1    0    0    0    0 -0.00000000000E+00 -0.00000000000E+00 -0.74505805969E-08  0.93827000000E+00  0.93827000000E+00 0.  1.
     999902    2    1    2    0    0  0.15878617676E-01 -0.16322571149E-01 -0.79873621832E-02  0.10197979718E+01  0.10195124073E+01 0.  0.
     999903    2    3    3    0    0 -0.10750978127E+00 -0.67037232655E-01 -0.19016962908E-01  0.12967532525E+00  0.20042491610E-01 0.  0.
         14    1    1    2    0    0 -0.15878617676E-01  0.16322571149E-01  0.79873621832E-02  0.24132028155E-01  0.00000000000E+00 0.  1.
     999901    1    3    3    0    0  0.12338839895E+00  0.50714661506E-01  0.11029600725E-01  0.89012264659E+00  0.88000000000E+00 0.  1.
        -11    1    4    4    0    0 -0.10569047353E-01 -0.14003772257E-01 -0.52525789568E-02  0.18321056358E-01  0.51100000000E-03 0.  1.
         11    1    4    4    0    0 -0.96940733918E-01 -0.53033460398E-01 -0.13764383951E-01  0.11135426889E+00  0.51100000000E-03 0. -1.
</event>
<event>
 8    1  0.1177602E+005  0.1043930E+01  0.7957747E-01            NaN
         13   -1    0    0    0    0  0.00000000000E+00  0.00000000000E+00  0.74505805969E-08  0.10566000000E+00  0.10566000000E+00 0. -1.
     999900   -1    0    0    0    0 -0.00000000000E+00 -0.00000000000E+00 -0.74505805969E-08  0.93827000000E+00  0.93827000000E+00 0.  1.
     999902    2    1    2    0    0  0.20799885739E-01 -0.59527656619E-02 -0.55230931303E-02  0.10216012019E+01  0.10213571562E+01 0.  0.
     999903    2    3    3    0    0 -0.90472700300E-01 -0.17404177644E-01  0.89096857659E-01  0.12948817191E+00  0.18458648918E-01 0.  0.
         14    1    1    2    0    0 -0.20799885739E-01  0.59527656619E-02  0.55230931303E-02  0.22328798076E-01  0.00000000000E+00 0.  1.
     999901    1    3    3    0    0  0.11127258604E+00  0.11451411982E-01 -0.94619950789E-01  0.89211303002E+00  0.88000000000E+00 0.  1.
        -11    1    4    4    0    0 -0.44083832944E-01 -0.91925178088E-02  0.30922778781E-01  0.54629351811E-01  0.51100000000E-03 0. -1.
         11    1    4    4    0    0 -0.46388867356E-01 -0.82116598352E-02  0.58174078878E-01  0.74858820096E-01  0.51100000000E-03 0.  1.
</event>
<event>
 8    1  0.1177602E+005  0.1043930E+01  0.7957747E-01            NaN
         13   -1    0    0    0    0  0.00000000000E+00  0.00000000000E+00  0.74505805969E-08  0.10566000000E+00  0.10566000000E+00 0. -1.
     999900   -1    0    0    0    0 -0.00000000000E+00 -0.00000000000E+00 -0.74505805969E-08  0.93827000000E+00  0.93827000000E+00 0. -1.
     999902    2    1    2    0    0  0.57212694316E-02 -0.84646796341E-02 -0.20853556382E-01  0.10207081452E+01  0.10204439540E+01 0.  0.
     999903    2    3    3    0    0 -0.67359909864E-01 -0.10028562355E+00  0.45053766874E-01  0.13047462543E+00  0.19980546162E-01 0.  0.
         14    1    1    2    0    0 -0.57212694316E-02  0.84646796341E-02  0.20853556382E-01  0.23221854771E-01  0.00000000000E+00 0. -1.
     999901    1    3    3    0    0  0.73081179296E-01  0.91820943916E-01 -0.65907323256E-01  0.89023351980E+00  0.88000000000E+00 0.  1.
        -11    1    4    4    0    0 -0.86449312490E-02 -0.16125339838E-01 -0.23778373845E-03  0.18305165481E-01  0.51100000000E-03 0.  1.
         11    1    4    4    0    0 -0.58714978615E-01 -0.84160283712E-01  0.45291550612E-01  0.11216945995E+00  0.51100000000E-03 0. -1.
</event>
<event>
 8    1  0.1177602E+005  0.1043930E+01  0.7957747E-01            NaN
         13   -1    0    0    0    0  0.00000000000E+00  0.00000000000E+00  0.74505805969E-08  0.10566000000E+00  0.10566000000E+00 0.  1.
     999900   -1    0    0    0    0 -0.00000000000E+00 -0.00000000000E+00 -0.74505805969E-08  0.93827000000E+00  0.93827000000E+00 0.  1.
     999902    2    1    2    0    0 -0.12685304584E-01 -0.18781670783E-01 -0.93529299620E-02  0.10194117332E+01  0.10191168413E+01 0.  0.
     999903    2    3    3    0    0 -0.12656769971E+00  0.25069623014E-01 -0.11723253308E-01  0.13098742332E+00  0.19297714655E-01 0.  0.
         14    1    1    2    0    0  0.12685304584E-01  0.18781670783E-01  0.93529299620E-02  0.24518266837E-01  0.00000000000E+00 0. -1.
     999901    1    3    3    0    0  0.11388239513E+00 -0.43851293798E-01  0.23703233464E-02  0.88842430984E+00  0.88000000000E+00 0. -1.
        -11    1    4    4    0    0 -0.66059964527E-01  0.19255169118E-01 -0.13722859315E-01  0.70165935039E-01  0.51100000000E-03 0. -1.
         11    1    4    4    0    0 -0.60507735186E-01  0.58144538961E-02  0.19996060066E-02  0.60821488281E-01  0.51100000000E-03 0.  1.
</event>
<event>
 8    1  0.1177602E+005  0.1043930E+01  0.7957747E-01            NaN
         13   -1    0    0    0    0  0.00000000000E+00  0.00000000000E+00  0.74505805969E-08  0.10566000000E+00  0.10566000000E+00 0.  1.
     999900   -1    0    0    0    0 -0.00000000000E+00 -0.00000000000E+00 -0.74505805969E-08  0.93827000000E+00  0.93827000000E+00 0.  1.
     999902    2    1    2    0    0  0.18914727647E-01 -0.16457230039E-01  0.32562216978E-02  0.10186473909E+01  0.10183335881E+01 0.  0.
     999903    2    3    3    0    0 -0.10968278073E+00  0.36213550952E-01 -0.47240610815E-01  0.12631255442E+00  0.19530807254E-01 0.  0.
         14    1    1    2    0    0 -0.18914727647E-01  0.16457230039E-01 -0.32562216978E-02  0.25282609087E-01  0.00000000000E+00 0.  1.
     999901    1    3    3    0    0  0.12859750838E+00 -0.52670780991E-01  0.50496832512E-01  0.89233483650E+00  0.88000000000E+00 0.  1.
        -11    1    4    4    0    0 -0.66469008449E-01  0.11800321747E-01 -0.27150666500E-01  0.72765352262E-01  0.51100000000E-03 0.  1.
         11    1    4    4    0    0 -0.43213772280E-01  0.24413229206E-01 -0.20089944315E-01  0.53547202154E-01  0.51100000000E-03 0. -1.
</event>
<event>
 8    1  0.1177602E+005  0.1043930E+01  0.7957747E-01            NaN
         13   -1    0    0    0    0  0.00000000000E+00  0.00000000000E+00  0.74505805969E-08  0.10566000000E+00  0.10566000000E+00 0.  1.
     999900   -1    0    0    0    0 -0.00000000000E+00 -0.00000000000E+00 -0.74505805969E-08  0.93827000000E+00  0.93827000000E+00 0.  1.
     999902    2    1    2    0    0 -0.19145215244E-01 -0.31670573192E-02 -0.12795345028E-01  0.10206858529E+01  0.10204211483E+01 0.  0.
     999903    2    3    3    0    0 -0.20236123694E-01 -0.11002902114E+00  0.64768242858E-01  0.13083374186E+00  0.20165726651E-01 0.  0.
         14    1    1    2    0    0  0.19145215244E-01  0.31670573192E-02  0.12795345028E-01  0.23244147074E-01  0.00000000000E+00 0. -1.
     999901    1    3    3    0    0  0.10909084500E-02  0.10686196382E+00 -0.77563587887E-01  0.88985211106E+00  0.88000000000E+00 0.  1.
        -11    1    4    4    0    0 -0.30903901825E-02 -0.27352773193E-01  0.26199111009E-01  0.38004989824E-01  0.51100000000E-03 0.  1.
         11    1    4    4    0    0 -0.17145733512E-01 -0.82676247951E-01  0.38569131849E-01  0.92828752041E-01  0.51100000000E-03 0. -1.
</event>
<event>
 7    1  0.1177602E+005  0.1043930E+01  0.7957747E-01            NaN
         13   -1    0    0    0    0  0.00000000000E+00  0.00000000000E+00  0.74505805969E-08  0.10566000000E+00  0.10566000000E+00 0.  1.
     999900   -1    0    0    0    0 -0.00000000000E+00 -0.00000000000E+00 -0.74505805969E-08  0.93827000000E+00  0.93827000000E+00 0. -1.
     999903    2    1    2    0    0  0.13435068998E-01  0.10626254844E+00  0.20102637482E-02  0.10904561772E+00  0.20363577847E-01 0.  0.
         14    1    1    2    0    0  0.52062788132E-02 -0.45300345184E-01  0.25316926608E-01  0.52155281476E-01  0.00000000000E+00 0.  1.
     999901    1    1    2    0    0 -0.18641347811E-01 -0.60962203260E-01 -0.27327190357E-01  0.88272910080E+00  0.88000000000E+00 0. -1.
        -11    1    3    3    0    0  0.90322597299E-02  0.19917986146E-01 -0.45300885141E-02  0.22340338200E-01  0.51100000000E-03 0.  1.
         11    1    3    3    0    0  0.44028092681E-02  0.86344562298E-01  0.65403522623E-02  0.86705279520E-01  0.51100000000E-03 0. -1.
</event>
<event>
 8    1  0.1177602E+005  0.1043930E+01  0.7957747E-01            NaN
         13   -1    0    0    0    0  0.00000000000E+00  0.00000000000E+00  0.74505805969E-08  0.10566000000E+00  0.10566000000E+00 0. -1.
     999900   -1    0    0    0    0 -0.00000000000E+00 -0.00000000000E+00 -0.74505805969E-08  0.93827000000E+00  0.93827000000E+00 0. -1.
     999902    2    1    2    0    0  0.15705589115E-01 -0.10596501475E-01  0.13211108078E-01  0.10208327112E+01  0.10205713789E+01 0.  0.
     999903    2    3    3    0    0  0.13689925642E-01  0.12364976487E+00  0.33412957384E-01  0.13042031370E+00  0.20404756471E-01 0.  0.
         14    1    1    2    0    0 -0.15705589115E-01  0.10596501475E-01 -0.13211108078E-01  0.23097288793E-01  0.00000000000E+00 0.  1.
     999901    1    3    3    0    0  0.20156634724E-02 -0.13424626635E+00 -0.20201849306E-01  0.89041239751E+00  0.88000000000E+00 0.  1.
        -11    1    4    4    0    0  0.17138465826E-01  0.93233777884E-01  0.19453039416E-01  0.96772652195E-01  0.51100000000E-03 0. -1.
         11    1    4    4    0    0 -0.34485401833E-02  0.30415986986E-01  0.13959917968E-01  0.33647661500E-01  0.51100000000E-03 0.  1.
</event>
<event>
 8    1  0.1177602E+005  0.1043930E+01  0.7957747E-01            NaN
         13   -1    0    0    0    0  0.00000000000E+00  0.00000000000E+00  0.74505805969E-08  0.10566000000E+00  0.10566000000E+00 0. -1.
     999900   -1    0    0    0    0 -0.00000000000E+00 -0.00000000000E+00 -0.74505805969E-08  0.93827000000E+00  0.93827000000E+00 0.  1.
     999902    2    1    2    0    0 -0.56746010915E-02  0.22435563492E-01  0.12231478250E-02  0.10207556241E+01  0.10204925245E+01 0.  0.
     999903    2    3    3    0    0  0.17287290870E-01  0.11320090718E+00 -0.65263922283E-01  0.13329513115E+00  0.19872509247E-01 0.  0.
         14    1    1    2    0    0  0.56746010915E-02 -0.22435563492E-01 -0.12231478250E-02  0.23174375878E-01  0.00000000000E+00 0.  1.
     999901    1    3    3    0    0 -0.22961891961E-01 -0.90765343689E-01  0.66487070108E-01  0.88746049297E+00  0.88000000000E+00 0. -1.
        -11    1    4    4    0    0  0.45811150478E-02  0.82540059338E-01 -0.51241322086E-01  0.97261411776E-01  0.51100000000E-03 0. -1.
         11    1    4    4    0    0  0.12706175822E-01  0.30660847843E-01 -0.14022600197E-01  0.36033719372E-01  0.51100000000E-03 0.  1.
</event>
<event>
 8    1  0.1177602E+005  0.1043930E+01  0.7957747E-01            NaN
         13   -1    0    0    0    0  0.00000000000E+00  0.00000000000E+00  0.74505805969E-08  0.10566000000E+00  0.10566000000E+00 0.  1.
     999900   -1    0    0    0    0 -0.00000000000E+00 -0.00000000000E+00 -0.74505805969E-08  0.93827000000E+00  0.93827000000E+00 0.  1.
     999902    2    1    2    0    0 -0.30634818408E-02  0.27343939679E-01 -0.41473540869E-02  0.10161041756E+01  0.10157231016E+01 0.  0.
     999903    2    3    3    0    0 -0.86936718122E-01 -0.36478172379E-01 -0.81862814018E-01  0.12641452495E+00  0.19760105774E-01 0.  0.
         14    1    1    2    0    0  0.30634818408E-02 -0.27343939679E-01  0.41473540869E-02  0.27825824410E-01  0.00000000000E+00 0. -1.
     999901    1    3    3    0    0  0.83873236281E-01  0.63822112058E-01  0.77715459931E-01  0.88968965064E+00  0.88000000000E+00 0. -1.
        -11    1    4    4    0    0 -0.46210137628E-01 -0.10354227576E-01 -0.33561570310E-01  0.58045042605E-01  0.51100000000E-03 0. -1.
         11    1    4    4    0    0 -0.40726580494E-01 -0.26123944802E-01 -0.48301243708E-01  0.68369482341E-01  0.51100000000E-03 0.  1.
</event>
<event>
 8    1  0.1177602E+005  0.1043930E+01  0.7957747E-01            NaN
         13   -1    0    0    0    0  0.00000000000E+00  0.00000000000E+00  0.74505805969E-08  0.10566000000E+00  0.10566000000E+00 0.  1.
     999900   -1    0    0    0    0 -0.00000000000E+00 -0.00000000000E+00 -0.74505805969E-08  0.93827000000E+00  0.93827000000E+00 0.  1.
     999902    2    1    2    0    0 -0.13492900498E-02  0.18203554990E-01  0.17701081159E-01  0.10185032764E+01  0.10181858405E+01 0.  0.
     999903    2    3    3    0    0  0.11193071394E+00 -0.47266250756E-01 -0.32662053793E-01  0.12740558249E+00  0.20069616546E-01 0.  0.
         14    1    1    2    0    0  0.13492900498E-02 -0.18203554990E-01 -0.17701081159E-01  0.25426723582E-01  0.00000000000E+00 0. -1.
     999901    1    3    3    0    0 -0.11328000399E+00  0.65469805746E-01  0.50363134952E-01  0.89109769393E+00  0.88000000000E+00 0. -1.
        -11    1    4    4    0    0  0.38518450924E-01 -0.25783583908E-01 -0.16658219133E-01  0.49256691387E-01  0.51100000000E-03 0.  1.
         11    1    4    4    0    0  0.73412263011E-01 -0.21482666849E-01 -0.16003834660E-01  0.78148891100E-01  0.51100000000E-03 0. -1.
</event>
<event>
 8    1  0.1177602E+005  0.1043930E+01  0.7957747E-01            NaN
         13   -1    0    0    0    0  0.00000000000E+00  0.00000000000E+00  0.74505805969E-08  0.10566000000E+00  0.10566000000E+00 0. -1.
     999900   -1    0    0    0    0 -0.00000000000E+00 -0.00000000000E+00 -0.74505805969E-08  0.93827000000E+00  0.93827000000E+00 0. -1.
     999902    2    1    2    0    0  0.14898131918E-01  0.65826011253E-02  0.16988383240E-01  0.10203951293E+01  0.10201236836E+01 0.  0.
     999903    2    3    3    0    0 -0.36389796782E-01  0.11557409996E+00 -0.43334202095E-01  0.13014324770E+00  0.19437642823E-01 0.  0.
         14    1    1    2    0    0 -0.14898131918E-01 -0.65826011253E-02 -0.16988383240E-01  0.23534870667E-01  0.00000000000E+00 0. -1.
     999901    1    3    3    0    0  0.51287928699E-01 -0.10899149884E+00  0.60322585334E-01  0.89025188163E+00  0.88000000000E+00 0.  1.
        -11    1    4    4    0    0 -0.76214675605E-02  0.55448625972E-01 -0.22251166623E-01  0.60232984544E-01  0.51100000000E-03 0.  1.
         11    1    4    4    0    0 -0.28768329221E-01  0.60125473992E-01 -0.21083035472E-01  0.69910263157E-01  0.51100000000E-03 0. -1.
</event>
<event>
 8    1  0.1177602E+005  0.1043930E+01  0.7957747E-01            NaN
         13   -1    0    0    0    0  0.00000000000E+00  0.00000000000E+00  0.74505805969E-08  0.10566000000E+00  0.10566000000E+00 0. -1.
     999900   -1    0    0    0    0 -0.00000000000E+00 -0.00000000000E+00 -0.74505805969E-08  0.93827000000E+00  0.93827000000E+00 0.  1.
     999902    2    1    2    0    0  0.26967032150E-02 -0.18636309630E-01  0.10260055132E-01  0.10224858172E+01  0.10222609224E+01 0.  0.
     999903    2    3    3    0    0 -0.10311467585E-01  0.11891157154E+00  0.49288246191E-01  0.13085145726E+00  0.21130178515E-01 0.  0.
         14    1    1    2    0    0 -0.26967032150E-02  0.18636309630E-01 -0.10260055132E-01  0.21444182804E-01  0.00000000000E+00 0. -1.
     999901    1    3    3    0    0  0.13008170800E-01 -0.13754788117E+00 -0.39028191059E-01  0.89163435994E+00  0.88000000000E+00 0.  1.
        -11    1    4    4    0    0  0.65784150085E-02  0.32107412995E-01  0.13647470382E-01  0.35506000649E-01  0.51100000000E-03 0. -1.
         11    1    4    4    0    0 -0.16889882593E-01  0.86804158546E-01  0.35640775809E-01  0.95345456610E-01  0.51100000000E-03 0.  1.
</event>
<event>
 8    1  0.1177602E+005  0.1043930E+01  0.7957747E-01            NaN
         13   -1    0    0    0    0  0.00000000000E+00  0.00000000000E+00  0.74505805969E-08  0.10566000000E+00  0.10566000000E+00 0.  1.
     999900   -1    0    0    0    0 -0.00000000000E+00 -0.00000000000E+00 -0.74505805969E-08  0.93827000000E+00  0.93827000000E+00 0. -1.
     999902    2    1    2    0    0 -0.22297120731E-01  0.81689780814E-02 -0.44107243138E-02  0.10197773959E+01  0.10194913383E+01 0.  0.
     999903    2    3    3    0    0 -0.11086419352E+00 -0.68850665428E-01  0.13033069953E-02  0.13196615356E+00  0.19546957342E-01 0.  0.
         14    1    1    2    0    0  0.22297120731E-01 -0.81689780814E-02  0.44107243138E-02  0.24152604099E-01  0.00000000000E+00 0.  1.
     999901    1    3    3    0    0  0.88567072792E-01  0.77019643509E-01 -0.57140313091E-02  0.88781124234E+00  0.88000000000E+00 0. -1.
        -11    1    4    4    0    0 -0.62937652948E-01 -0.49124374728E-01  0.50519291519E-02  0.80000846621E-01  0.51100000000E-03 0.  1.
         11    1    4    4    0    0 -0.47926540576E-01 -0.19726290700E-01 -0.37486221566E-02  0.51965306941E-01  0.51100000000E-03 0. -1.
</event>
<event>
 8    1  0.1177602E+005  0.1043930E+01  0.7957747E-01            NaN
         13   -1    0    0    0    0  0.00000000000E+00  0.00000000000E+00  0.74505805969E-08  0.10566000000E+00  0.10566000000E+00 0.  1.
     999900   -1    0    0    0    0 -0.00000000000E+00 -0.00000000000E+00 -0.74505805969E-08  0.93827000000E+00  0.93827000000E+00 0. -1.
     999902    2    1    2    0    0 -0.10231309220E-01  0.85016693639E-02  0.17811936943E-01  0.10216988694E+01  0.10214569773E+01 0.  0.
     999903    2    3    3    0    0  0.95874338535E-01  0.98265957100E-02  0.88656023115E-01  0.13249751511E+00  0.20180443581E-01 0.  0.
         14    1    1    2    0    0  0.10231309220E-01 -0.85016693639E-02 -0.17811936943E-01  0.22231130605E-01  0.00000000000E+00 0. -1.
     999901    1    3    3    0    0 -0.10610564775E+00 -0.13249263461E-02 -0.70844086172E-01  0.88920135428E+00  0.88000000000E+00 0.  1.
        -11    1    4    4    0    0  0.60026410451E-02 -0.35177469596E-02  0.10733277414E-01  0.12801195578E-01  0.51100000000E-03 0.  1.
         11    1    4    4    0    0  0.89871697490E-01  0.13344342670E-01  0.77922745701E-01  0.11969631953E+00  0.51100000000E-03 0. -1.
</event>
<event>
 8    1  0.1177602E+005  0.1043930E+01  0.7957747E-01            NaN
         13   -1    0    0    0    0  0.00000000000E+00  0.00000000000E+00  0.74505805969E-08  0.10566000000E+00  0.10566000000E+00 0.  1.
     999900   -1    0    0    0    0 -0.00000000000E+00 -0.00000000000E+00 -0.74505805969E-08  0.93827000000E+00  0.93827000000E+00 0.  1.
     999902    2    1    2    0    0 -0.13268654017E-01  0.18665242214E-01  0.36493926309E-02  0.10207402067E+01  0.10204767528E+01 0.  0.
     999903    2    3    3    0    0 -0.36176367581E-01  0.30818532483E-01  0.12214482800E+00  0.13241952474E+00  0.18896031618E-01 0.  0.
         14    1    1    2    0    0  0.13268654017E-01 -0.18665242214E-01 -0.36493926309E-02  0.23189793291E-01  0.00000000000E+00 0. -1.
     999901    1    3    3    0    0  0.22907713564E-01 -0.12153290269E-01 -0.11849543537E+00  0.88832068197E+00  0.88000000000E+00 0.  1.
        -11    1    4    4    0    0 -0.10095807342E-01  0.16693279810E-01  0.31612708195E-01  0.37151249738E-01  0.51100000000E-03 0.  1.
         11    1    4    4    0    0 -0.26080560239E-01  0.14125252673E-01  0.90532119803E-01  0.95268275005E-01  0.51100000000E-03 0. -1.
</event>
<event>
 8    1  0.1177602E+005  0.1043930E+01  0.7957747E-01            NaN
         13   -1    0    0    0    0  0.00000000000E+00  0.00000000000E+00  0.74505805969E-08  0.10566000000E+00  0.10566000000E+00 0.  1.
     999900   -1    0    0    0    0 -0.00000000000E+00 -0.00000000000E+00 -0.74505805969E-08  0.93827000000E+00  0.93827000000E+00 0.  1.
     999902    2    1    2    0    0 -0.19664823522E-01  0.20237617125E-02 -0.14199622965E-01  0.10195901112E+01  0.10192995461E+01 0.  0.
     999903    2    3    3    0    0 -0.46750337019E-01  0.82970121730E-01  0.85040823001E-01  0.12990780588E+00  0.23967923160E-01 0.  0.
         14    1    1    2    0    0  0.19664823522E-01 -0.20237617125E-02  0.14199622965E-01  0.24339888824E-01  0.00000000000E+00 0.  1.
     999901    1    3    3    0    0  0.27085513498E-01 -0.80946360017E-01 -0.99240445966E-01  0.88968230530E+00  0.88000000000E+00 0.  1.
        -11    1    4    4    0    0 -0.33075825652E-01  0.37299009378E-01  0.51044104093E-01  0.71351159954E-01  0.51100000000E-03 0.  1.
         11    1    4    4    0    0 -0.13674511368E-01  0.45671112352E-01  0.33996718907E-01  0.58556645926E-01  0.51100000000E-03 0. -1.
</event>
<event>
 8    1  0.1177602E+005  0.1043930E+01  0.7957747E-01            NaN
         13   -1    0    0    0    0  0.00000000000E+00  0.00000000000E+00  0.74505805969E-08  0.10566000000E+00  0.10566000000E+00 0. -1.
     999900   -1    0    0    0    0 -0.00000000000E+00 -0.00000000000E+00 -0.74505805969E-08  0.93827000000E+00  0.93827000000E+00 0.  1.
     999902    2    1    2    0    0  0.13028225375E-01 -0.19691619617E-01  0.62003412361E-02  0.10195181428E+01  0.10192258360E+01 0.  0.
     999903    2    3    3    0    0 -0.85297125295E-01 -0.20490679358E-01 -0.92964840544E-01  0.12850622014E+00  0.13263465348E-01 0.  0.
         14    1    1    2    0    0 -0.13028225375E-01  0.19691619617E-01 -0.62003412361E-02  0.24411857180E-01  0.00000000000E+00 0. -1.
     999901    1    3    3    0    0  0.98325350670E-01  0.79905974148E-03  0.99165181780E-01  0.89101192268E+00  0.88000000000E+00 0.  1.
        -11    1    4    4    0    0 -0.12792215723E-01  0.53762435716E-03 -0.18176474618E-01  0.22239046148E-01  0.51100000000E-03 0.  1.
         11    1    4    4    0    0 -0.72504909572E-01 -0.21028303715E-01 -0.74788365926E-01  0.10626717399E+00  0.51100000000E-03 0. -1.
</event>
<event>
 8    1  0.1177602E+005  0.1043930E+01  0.7957747E-01            NaN
         13   -1    0    0    0    0  0.00000000000E+00  0.00000000000E+00  0.74505805969E-08  0.10566000000E+00  0.10566000000E+00 0. -1.
     999900   -1    0    0    0    0 -0.00000000000E+00 -0.00000000000E+00 -0.74505805969E-08  0.93827000000E+00  0.93827000000E+00 0.  1.
     999902    2    1    2    0    0  0.16258641974E-01  0.14099739638E-01  0.87829063234E-02  0.10206859569E+01  0.10204212547E+01 0.  0.
     999903    2    3    3    0    0  0.71950824737E-01  0.91945433097E-01  0.63594423809E-01  0.13380046616E+00  0.15080787709E-01 0.  0.
         14    1    1    2    0    0 -0.16258641974E-01 -0.14099739638E-01 -0.87829063234E-02  0.23244043111E-01  0.00000000000E+00 0. -1.
     999901    1    3    3    0    0 -0.55692182763E-01 -0.77845693460E-01 -0.54811517486E-01  0.88688549073E+00  0.88000000000E+00 0.  1.
        -11    1    4    4    0    0  0.23383050232E-01  0.33537099862E-01  0.14645190548E-01  0.43430943260E-01  0.51100000000E-03 0. -1.
         11    1    4    4    0    0  0.48567774506E-01  0.58408333235E-01  0.48949233261E-01  0.90369522902E-01  0.51100000000E-03 0.  1.
</event>
<event>
 8    1  0.1177602E+005  0.1043930E+01  0.7957747E-01            NaN
         13   -1    0    0    0    0  0.00000000000E+00  0.00000000000E+00  0.74505805969E-08  0.10566000000E+00  0.10566000000E+00 0.  1.
     999900   -1    0    0    0    0 -0.00000000000E+00 -0.00000000000E+00 -0.74505805969E-08  0.93827000000E+00  0.93827000000E+00 0. -1.
     999902    2    1    2    0    0 -0.13842422728E-01  0.19737604270E-01 -0.13315175339E-02  0.10197854638E+01  0.10194995996E+01 0.  0.
     999903    2    3    3    0    0 -0.42188690116E-01 -0.96356883078E-01 -0.71859560460E-01  0.12891193422E+00  0.19747300194E-01 0.  0.
         14    1    1    2    0    0  0.13842422728E-01 -0.19737604270E-01  0.13315175339E-02  0.24144536199E-01  0.00000000000E+00 0.  1.
     999901    1    3    3    0    0  0.28346267388E-01  0.11609448735E+00  0.70528042926E-01  0.89087352958E+00  0.88000000000E+00 0.  1.
        -11    1    4    4    0    0 -0.36650626759E-01 -0.94098185046E-01 -0.67016159462E-01  0.12119885982E+00  0.51100000000E-03 0. -1.
         11    1    4    4    0    0 -0.55380633574E-02 -0.22586980324E-02 -0.48434009984E-02  0.77130744054E-02  0.51100000000E-03 0.  1.
</event>
<event>
 8    1  0.1177602E+005  0.1043930E+01  0.7957747E-01            NaN
         13   -1    0    0    0    0  0.00000000000E+00  0.00000000000E+00  0.74505805969E-08  0.10566000000E+00  0.10566000000E+00 0. -1.
     999900   -1    0    0    0    0 -0.00000000000E+00 -0.00000000000E+00 -0.74505805969E-08  0.93827000000E+00  0.93827000000E+00 0. -1.
     999902    2    1    2    0    0  0.17788736039E-01  0.15687591931E-01  0.34104119538E-02  0.10199681432E+01  0.10196866394E+01 0.  0.
     999903    2    3    3    0    0 -0.34709509237E-01  0.12366339191E+00  0.20390272944E-01  0.13165335959E+00  0.20480706298E-01 0.  0.
         14    1    1    2    0    0 -0.17788736039E-01 -0.15687591931E-01 -0.34104119538E-02  0.23961856776E-01  0.00000000000E+00 0. -1.
     999901    1    3    3    0    0  0.52498245276E-01 -0.10797579998E+00 -0.16979860990E-01  0.88831478363E+00  0.88000000000E+00 0.  1.
        -11    1    4    4    0    0 -0.90668883856E-02  0.99555643438E-02  0.29034663941E-02  0.13784519016E-01  0.51100000000E-03 0. -1.
         11    1    4    4    0    0 -0.25642620851E-01  0.11370782757E+00  0.17486806549E-01  0.11786884058E+00  0.51100000000E-03 0.  1.
</event>
<event>
 8    1  0.1177602E+005  0.1043930E+01  0.7957747E-01            NaN
         13   -1    0    0    0    0  0.00000000000E+00  0.00000000000E+00  0.74505805969E-08  0.10566000000E+00  0.10566000000E+00 0.  1.
     999900   -1    0    0    0    0 -0.00000000000E+00 -0.00000000000E+00 -0.74505805969E-08  0.93827000000E+00  0.93827000000E+00 0.  1.
     999902    2    1    2    0    0 -0.36197268156E-02 -0.18733481062E-01 -0.14555520580E-01  0.10199318977E+01  0.10196495315E+01 0.  0.
     999903    2    3    3    0    0  0.64889595360E-01  0.57701872587E-01 -0.94995283420E-01  0.13032162012E+00  0.20480603358E-01 0.  0.
         14    1    1    2    0    0  0.36197268156E-02  0.18733481062E-01  0.14555520580E-01  0.23998102306E-01  0.00000000000E+00 0. -1.
     999901    1    3    3    0    0 -0.68509322176E-01 -0.76435353649E-01  0.80439762840E-01  0.88961027757E+00  0.88000000000E+00 0. -1.
        -11    1    4    4    0    0  0.46569721281E-01  0.40345647082E-01 -0.79939880345E-01  0.10093144094E+00  0.51100000000E-03 0.  1.
         11    1    4    4    0    0  0.18319874079E-01  0.17356225505E-01 -0.15055403074E-01  0.29390179189E-01  0.51100000000E-03 0. -1.
</event>
<event>
 8    1  0.1177602E+005  0.1043930E+01  0.7957747E-01            NaN
         13   -1    0    0    0    0  0.00000000000E+00  0.00000000000E+00  0.74505805969E-08  0.10566000000E+00  0.10566000000E+00 0. -1.
     999900   -1    0    0    0    0 -0.00000000000E+00 -0.00000000000E+00 -0.74505805969E-08  0.93827000000E+00  0.93827000000E+00 0.  1.
     999902    2    1    2    0    0 -0.11243707663E-01 -0.63737839721E-02 -0.20322804759E-01  0.10198455138E+01  0.10195610867E+01 0.  0.
     999903    2    3    3    0    0 -0.11218412416E+00  0.41932869434E-01  0.47245762243E-01  0.13018939385E+00  0.19325448755E-01 0.  0.
         14    1    1    2    0    0  0.11243707663E-01  0.63737839721E-02  0.20322804759E-01  0.24084486239E-01  0.00000000000E+00 0. -1.
     999901    1    3    3    0    0  0.10094041649E+00 -0.48306653406E-01 -0.67568567002E-01  0.88965611991E+00  0.88000000000E+00 0.  1.
        -11    1    4    4    0    0 -0.71345848587E-03  0.28979558303E-02  0.23599454399E-02  0.38389626834E-02  0.51100000000E-03 0. -1.
         11    1    4    4    0    0 -0.11147066567E+00  0.39034913603E-01  0.44885816803E-01  0.12635043117E+00  0.51100000000E-03 0.  1.
</event>
<event>
 8    1  0.1177602E+005  0.1043930E+01  0.7957747E-01            NaN
         13   -1    0    0    0    0  0.00000000000E+00  0.00000000000E+00  0.74505805969E-08  0.10566000000E+00  0.10566000000E+00 0.  1.
     999900   -1    0    0    0    0 -0.00000000000E+00 -0.00000000000E+00 -0.74505805969E-08  0.93827000000E+00  0.93827000000E+00 0. -1.
     999902    2    1    2    0    0 -0.98971840878E-03 -0.22788870379E-01 -0.62157601530E-02  0.10202879225E+01  0.10200139690E+01 0.  0.
     999903    2    3    3    0    0 -0.11936451973E+00 -0.50271198469E-01  0.17195208079E-01  0.13162828831E+00  0.15976518356E-01 0.  0.
         14    1    1    2    0    0  0.98971840878E-03  0.22788870379E-01  0.62157601530E-02  0.23642077531E-01  0.00000000000E+00 0.  1.
     999901    1    3    3    0    0  0.11837480132E+00  0.27482328090E-01 -0.23410968232E-01  0.88865963416E+00  0.88000000000E+00 0.  1.
        -11    1    4    4    0    0 -0.93093710915E-01 -0.44346870066E-01  0.91813575319E-02  0.10352604669E+00  0.51100000000E-03 0. -1.
         11    1    4    4    0    0 -0.26270808810E-01 -0.59243284031E-02  0.80138505466E-02  0.28102241621E-01  0.51100000000E-03 0.  1.
</event>
<event>
 8    1  0.1177602E+005  0.1043930E+01  0.7957747E-01            NaN
         13   -1    0    0    0    0  0.00000000000E+00  0.00000000000E+00  0.74505805969E-08  0.10566000000E+00  0.10566000000E+00 0. -1.
     999900   -1    0    0    0    0 -0.00000000000E+00 -0.00000000000E+00 -0.74505805969E-08  0.93827000000E+00  0.93827000000E+00 0. -1.
     999902    2    1    2    0    0  0.74404018219E-02  0.65197494928E-02 -0.21468560769E-01  0.10202917722E+01  0.10200179089E+01 0.  0.
     999903    2    3    3    0    0  0.34811651380E-02  0.65148803337E-01 -0.11464538570E+00  0.13342370860E+00  0.20045859086E-01 0.  0.
         14    1    1    2    0    0 -0.74404018219E-02 -0.65197494928E-02  0.21468560769E-01  0.23638227815E-01  0.00000000000E+00 0. -1.
     999901    1    3    3    0    0  0.39592366838E-02 -0.58629053844E-01  0.93176824930E-01  0.88686806359E+00  0.88000000000E+00 0.  1.
        -11    1    4    4    0    0  0.80934198765E-02  0.17237009246E-01 -0.43902687593E-01  0.47857340419E-01  0.51100000000E-03 0. -1.
         11    1    4    4    0    0 -0.46122547384E-02  0.47911794091E-01 -0.70742698106E-01  0.85566368177E-01  0.51100000000E-03 0.  1.
</event>
<event>
 8    1  0.1177602E+005  0.1043930E+01  0.7957747E-01            NaN
         13   -1    0    0    0    0  0.00000000000E+00  0.00000000000E+00  0.74505805969E-08  0.10566000000E+00  0.10566000000E+00 0. -1.
     999900   -1    0    0    0    0 -0.00000000000E+00 -0.00000000000E+00 -0.74505805969E-08  0.93827000000E+00  0.93827000000E+00 0.  1.
     999902    2    1    2    0    0  0.75972757374E-02  0.54948850279E-02  0.24941421301E-01  0.10172844214E+01  0.10169353997E+01 0.  0.
     999903    2    3    3    0    0  0.12105136513E+00 -0.11036397440E-01  0.39421886604E-01  0.12972890342E+00  0.22366675435E-01 0.  0.
         14    1    1    2    0    0 -0.75972757374E-02 -0.54948850279E-02 -0.24941421301E-01  0.26645578557E-01  0.00000000000E+00 0.  1.
     999901    1    3    3    0    0 -0.11345408939E+00  0.16531282468E-01 -0.14480465303E-01  0.88755551802E+00  0.88000000000E+00 0.  1.
        -11    1    4    4    0    0  0.11204312306E+00 -0.79787324961E-02  0.29855381088E-01  0.11622790757E+00  0.51100000000E-03 0. -1.
         11    1    4    4    0    0  0.90082420752E-02 -0.30576649439E-02  0.95665055155E-02  0.13500995851E-01  0.51100000000E-03 0.  1.
</event>
<event>
 8    1  0.1177602E+005  0.1043930E+01  0.7957747E-01            NaN
         13   -1    0    0    0    0  0.00000000000E+00  0.00000000000E+00  0.74505805969E-08  0.10566000000E+00  0.10566000000E+00 0.  1.
     999900   -1    0    0    0    0 -0.00000000000E+00 -0.00000000000E+00 -0.74505805969E-08  0.93827000000E+00  0.93827000000E+00 0.  1.
     999902    2    1    2    0    0 -0.21178690846E-03 -0.10548906152E-01  0.21735204927E-01  0.10197692176E+01  0.10194829639E+01 0.  0.
     999903    2    3    3    0    0  0.39025541059E-01 -0.75651696974E-04 -0.11968892317E+00  0.12755285313E+00  0.20525433805E-01 0.  0.
         14    1    1    2    0    0  0.21178690846E-03  0.10548906152E-01 -0.21735204927E-01  0.24160782436E-01  0.00000000000E+00 0. -1.
     999901    1    3    3    0    0 -0.39237327967E-01 -0.10473254455E-01  0.14142412810E+00  0.89221636444E+00  0.88000000000E+00 0. -1.
        -11    1    4    4    0    0  0.23659958571E-01  0.72867518959E-02 -0.49816932890E-01  0.55631630538E-01  0.51100000000E-03 0.  1.
         11    1    4    4    0    0  0.15365582488E-01 -0.73624035928E-02 -0.69871990279E-01  0.71921222587E-01  0.51100000000E-03 0. -1.
</event>
<event>
 8    1  0.1177602E+005  0.1043930E+01  0.7957747E-01            NaN
         13   -1    0    0    0    0  0.00000000000E+00  0.00000000000E+00  0.74505805969E-08  0.10566000000E+00  0.10566000000E+00 0.  1.
     999900   -1    0    0    0    0 -0.00000000000E+00 -0.00000000000E+00 -0.74505805969E-08  0.93827000000E+00  0.93827000000E+00 0. -1.
     999902    2    1    2    0    0 -0.15628176839E-01 -0.92035534254E-02 -0.13212862012E-01  0.10214906366E+01  0.10212441411E+01 0.  0.
     999903    2    3    3    0    0  0.11964719736E+00  0.62986406538E-02 -0.47336808447E-01  0.13036539928E+00  0.19980970568E-01 0.  0.
         14    1    1    2    0    0  0.15628176839E-01  0.92035534254E-02  0.13212862012E-01  0.22439363394E-01  0.00000000000E+00 0. -1.
     999901    1    3    3    0    0 -0.13527537420E+00 -0.15502194079E-01  0.34123946435E-01  0.89112523733E+00  0.88000000000E+00 0. -1.
        -11    1    4    4    0    0  0.10211442920E+00  0.29326377993E-02 -0.47126517092E-01  0.11250389659E+00  0.51100000000E-03 0. -1.
         11    1    4    4    0    0  0.17532768163E-01  0.33660028544E-02 -0.21029135486E-03  0.17861502684E-01  0.51100000000E-03 0.  1.
</event>
<event>
 8    1  0.1177602E+005  0.1043930E+01  0.7957747E-01            NaN
         13   -1    0    0    0    0  0.00000000000E+00  0.00000000000E+00  0.74505805969E-08  0.10566000000E+00  0.10566000000E+00 0.  1.
     999900   -1    0    0    0    0 -0.00000000000E+00 -0.00000000000E+00 -0.74505805969E-08  0.93827000000E+00  0.93827000000E+00 0.  1.
     999902    2    1    2    0    0 -0.11355257923E-01 -0.39859214403E-02  0.21073709957E-01  0.10196621055E+01  0.10193732774E+01 0.  0.
     999903    2    3    3    0    0 -0.70556940819E-02 -0.52846530083E-02 -0.12555936104E+00  0.12751781758E+00  0.20443343151E-01 0.  0.
         14    1    1    2    0    0  0.11355257923E-01  0.39859214403E-02 -0.21073709957E-01  0.24267894503E-01  0.00000000000E+00 0. -1.
     999901    1    3    3    0    0 -0.42995638415E-02  0.12987315680E-02  0.14663307100E+00  0.89214428792E+00  0.88000000000E+00 0. -1.
        -11    1    4    4    0    0  0.21950938931E-02  0.52893501043E-02 -0.68933004171E-01  0.69172363316E-01  0.51100000000E-03 0.  1.
         11    1    4    4    0    0 -0.92507879750E-02 -0.10574003113E-01 -0.56626356869E-01  0.58345454264E-01  0.51100000000E-03 0. -1.
</event>
<event>
 8    1  0.1177602E+005  0.1043930E+01  0.7957747E-01            NaN
         13   -1    0    0    0    0  0.00000000000E+00  0.00000000000E+00  0.74505805969E-08  0.10566000000E+00  0.10566000000E+00 0. -1.
     999900   -1    0    0    0    0 -0.00000000000E+00 -0.00000000000E+00 -0.74505805969E-08  0.93827000000E+00  0.93827000000E+00 0. -1.
     999902    2    1    2    0    0 -0.22070044267E-01  0.37629714346E-02  0.65526233212E-02  0.10206022551E+01  0.10203356210E+01 0.  0.
     999903    2    3    3    0    0 -0.95365351656E-01 -0.66215660912E-01 -0.60018244282E-01  0.13228874546E+00  0.20470917933E-01 0.  0.
         14    1    1    2    0    0  0.22070044267E-01 -0.37629714346E-02 -0.65526233212E-02  0.23327744862E-01  0.00000000000E+00 0.  1.
     999901    1    3    3    0    0  0.73295307389E-01  0.69978632346E-01  0.66570867604E-01  0.88831350968E+00  0.88000000000E+00 0.  1.
        -11    1    4    4    0    0 -0.49404550471E-01 -0.25179684993E-01 -0.20672973177E-01  0.59181577239E-01  0.51100000000E-03 0.  1.
         11    1    4    4    0    0 -0.45960801185E-01 -0.41035975919E-01 -0.39345271106E-01  0.73107168216E-01  0.51100000000E-03 0. -1.
</event>
<event>
 8    1  0.1177602E+005  0.1043930E+01  0.7957747E-01            NaN
         13   -1    0    0    0    0  0.00000000000E+00  0.00000000000E+00  0.74505805969E-08  0.10566000000E+00  0.10566000000E+00 0. -1.
     999900   -1    0    0    0    0 -0.00000000000E+00 -0.00000000000E+00 -0.74505805969E-08  0.93827000000E+00  0.93827000000E+00 0. -1.
     999902    2    1    2    0    0 -0.12287732561E-01 -0.14790742100E-01  0.13853538685E-01  0.10202303174E+01  0.10199550115E+01 0.  0.
     999903    2    3    3    0    0  0.61946618174E-01  0.83261640813E-01 -0.72143849598E-01  0.12752624578E+00  0.16980105787E-01 0.  0.
         14    1    1    2    0    0  0.12287732561E-01  0.14790742100E-01 -0.13853538685E-01  0.23699682645E-01  0.00000000000E+00 0. -1.
     999901    1    3    3    0    0 -0.74234350735E-01 -0.98052382913E-01  0.85997388283E-01  0.89270407158E+00  0.88000000000E+00 0.  1.
        -11    1    4    4    0    0  0.28718311207E-01  0.51247393199E-01 -0.44884046401E-01  0.73931559233E-01  0.51100000000E-03 0. -1.
         11    1    4    4    0    0  0.33228306967E-01  0.32014247614E-01 -0.27259803197E-01  0.53594686542E-01  0.51100000000E-03 0.  1.
</event>
<event>
 8    1  0.1177602E+005  0.1043930E+01  0.7957747E-01            NaN
         13   -1    0    0    0    0  0.00000000000E+00  0.00000000000E+00  0.74505805969E-08  0.10566000000E+00  0.10566000000E+00 0.  1.
     999900   -1    0    0    0    0 -0.00000000000E+00 -0.00000000000E+00 -0.74505805969E-08  0.93827000000E+00  0.93827000000E+00 0. -1.
     999902    2    1    2    0    0 -0.40888271614E-02 -0.22285442788E-01  0.42266950469E-02  0.10208816938E+01  0.10206214814E+01 0.  0.
     999903    2    3    3    0    0 -0.84600527840E-01 -0.74048573525E-01 -0.67723352756E-01  0.13277226077E+00  0.20039465312E-01 0.  0.
         14    1    1    2    0    0  0.40888271614E-02  0.22285442788E-01 -0.42266950469E-02  0.23048306204E-01  0.00000000000E+00 0. -1.
     999901    1    3    3    0    0  0.80511700678E-01  0.51763130736E-01  0.71950047802E-01  0.88810943303E+00  0.88000000000E+00 0.  1.
        -11    1    4    4    0    0 -0.62016688624E-01 -0.61620749180E-01 -0.59331678765E-01  0.10565839116E+00  0.51100000000E-03 0.  1.
         11    1    4    4    0    0 -0.22583839216E-01 -0.12427824345E-01 -0.83916739901E-02  0.27113869607E-01  0.51100000000E-03 0. -1.
</event>
<event>
 8    1  0.1177602E+005  0.1043930E+01  0.7957747E-01            NaN
         13   -1    0    0    0    0  0.00000000000E+00  0.00000000000E+00  0.74505805969E-08  0.10566000000E+00  0.10566000000E+00 0.  1.
     999900   -1    0    0    0    0 -0.00000000000E+00 -0.00000000000E+00 -0.74505805969E-08  0.93827000000E+00  0.93827000000E+00 0.  1.
     999902    2    1    2    0    0  0.15386480049E-01  0.18967314296E-01  0.12274315155E-02  0.10194757699E+01  0.10191824352E+01 0.  0.
     999903    2    3    3    0    0  0.56434082322E-02 -0.12585123057E+00  0.38182111891E-02  0.12758225021E+00  0.19805846122E-01 0.  0.
         14    1    1    2    0    0 -0.15386480049E-01 -0.18967314296E-01 -0.12274315155E-02  0.24454230064E-01  0.00000000000E+00 0.  1.
     999901    1    3    3    0    0  0.97430718163E-02  0.14481854486E+00 -0.25907796737E-02  0.89189351972E+00  0.88000000000E+00 0.  1.
        -11    1    4    4    0    0  0.45830080498E-02 -0.80909469668E-02  0.30957211858E-02  0.98138675487E-02  0.51100000000E-03 0. -1.
         11    1    4    4    0    0  0.10604001824E-02 -0.11776028360E+00  0.72249000335E-03  0.11776838266E+00  0.51100000000E-03 0.  1.
</event>
<event>
 8    1  0.1177602E+005  0.1043930E+01  0.7957747E-01            NaN
         13   -1    0    0    0    0  0.00000000000E+00  0.00000000000E+00  0.74505805969E-08  0.10566000000E+00  0.10566000000E+00 0.  1.
     999900   -1    0    0    0    0 -0.00000000000E+00 -0.00000000000E+00 -0.74505805969E-08  0.93827000000E+00  0.93827000000E+00 0.  1.
     999902    2    1    2    0    0 -0.22348784737E-01  0.23813963612E-02  0.12721694779E-01  0.10181040296E+01  0.10177764167E+01 0.  0.
     999903    2    3    3    0    0  0.18291011087E-02  0.12624350253E+00 -0.12628345351E-01  0.12873964084E+00  0.21763558424E-01 0.  0.
         14    1    1    2    0    0  0.22348784737E-01 -0.23813963612E-02 -0.12721694779E-01  0.25825970376E-01  0.00000000000E+00 0. -1.
     999901    1    3    3    0    0 -0.24177885845E-01 -0.12386210617E+00  0.25350040130E-01  0.88936438879E+00  0.88000000000E+00 0. -1.
        -11    1    4    4    0    0  0.65450581488E-02  0.68956408885E-01  0.24509249663E-02  0.69311559402E-01  0.51100000000E-03 0.  1.
         11    1    4    4    0    0 -0.47159570401E-02  0.57287093642E-01 -0.15079270317E-01  0.59428081435E-01  0.51100000000E-03 0. -1.
</event>
<event>
 8    1  0.1177602E+005  0.1043930E+01  0.7957747E-01            NaN
         13   -1    0    0    0    0  0.00000000000E+00  0.00000000000E+00  0.74505805969E-08  0.10566000000E+00  0.10566000000E+00 0. -1.
     999900   -1    0    0    0    0 -0.00000000000E+00 -0.00000000000E+00 -0.74505805969E-08  0.93827000000E+00  0.93827000000E+00 0. -1.
     999902    2    1    2    0    0 -0.19529987634E-01  0.75705800779E-02  0.10991867232E-01  0.10202750799E+01  0.10200008252E+01 0.  0.
     999903    2    3    3    0    0 -0.37129304321E-01  0.56947328835E-01 -0.10960456782E+00  0.13050471660E+00  0.19918239516E-01 0.  0.
         14    1    1    2    0    0  0.19529987634E-01 -0.75705800779E-02 -0.10991867232E-01  0.23654920100E-01  0.00000000000E+00 0.  1.
     999901    1    3    3    0    0  0.17599316687E-01 -0.49376748757E-01  0.12059643505E+00  0.88977036330E+00  0.88000000000E+00 0.  1.
        -11    1    4    4    0    0 -0.29201853524E-01  0.32243726513E-01 -0.80560776945E-01  0.91557119066E-01  0.51100000000E-03 0.  1.
         11    1    4    4    0    0 -0.79274507964E-02  0.24703602322E-01 -0.29043790878E-01  0.38947597530E-01  0.51100000000E-03 0. -1.
</event>
<event>
 8    1  0.1177602E+005  0.1043930E+01  0.7957747E-01            NaN
         13   -1    0    0    0    0  0.00000000000E+00  0.00000000000E+00  0.74505805969E-08  0.10566000000E+00  0.10566000000E+00 0.  1.
     999900   -1    0    0    0    0 -0.00000000000E+00 -0.00000000000E+00 -0.74505805969E-08  0.93827000000E+00  0.93827000000E+00 0. -1.
     999902    2    1    2    0    0 -0.12447807216E-01 -0.12789438119E-01  0.14625906271E-01  0.10208554520E+01  0.10205946399E+01 0.  0.
     999903    2    3    3    0    0 -0.84663337471E-01 -0.50316516950E-01 -0.84888639478E-01  0.13151496079E+00  0.19760344388E-01 0.  0.
         14    1    1    2    0    0  0.12447807216E-01  0.12789438119E-01 -0.14625906271E-01  0.23074548016E-01  0.00000000000E+00 0.  1.
     999901    1    3    3    0    0  0.72215530255E-01  0.37527078831E-01  0.99514545749E-01  0.88934049119E+00  0.88000000000E+00 0. -1.
        -11    1    4    4    0    0 -0.68874847992E-01 -0.48341074829E-01 -0.75368103764E-01  0.11296555399E+00  0.51100000000E-03 0.  1.
         11    1    4    4    0    0 -0.15788489479E-01 -0.19754421214E-02 -0.95205357139E-02  0.18549406807E-01  0.51100000000E-03 0. -1.
</event>
<event>
 8    1  0.1177602E+005  0.1043930E+01  0.7957747E-01            NaN
         13   -1    0    0    0    0  0.00000000000E+00  0.00000000000E+00  0.74505805969E-08  0.10566000000E+00  0.10566000000E+00 0. -1.
     999900   -1    0    0    0    0 -0.00000000000E+00 -0.00000000000E+00 -0.74505805969E-08  0.93827000000E+00  0.93827000000E+00 0.  1.
     999902    2    1    2    0    0  0.67670156676E-02 -0.12969148212E-01  0.20528649342E-01  0.10187225259E+01  0.10184106088E+01 0.  0.
     999903    2    3    3    0    0 -0.10468837236E+00 -0.24549269506E-01 -0.65253891921E-01  0.12747898617E+00  0.20748483423E-01 0.  0.
         14    1    1    2    0    0 -0.67670156676E-02  0.12969148212E-01 -0.20528649342E-01  0.25207474094E-01  0.00000000000E+00 0.  1.
     999901    1    3    3    0    0  0.11145538803E+00  0.11580121294E-01  0.85782541262E-01  0.89124353973E+00  0.88000000000E+00 0. -1.
        -11    1    4    4    0    0 -0.56800897449E-01 -0.18774521231E-01 -0.25756799309E-01  0.65134464226E-01  0.51100000000E-03 0.  1.
         11    1    4    4    0    0 -0.47887474912E-01 -0.57747482749E-02 -0.39497092612E-01  0.62344521947E-01  0.51100000000E-03 0. -1.
</event>
<event>
 8    1  0.1177602E+005  0.1043930E+01  0.7957747E-01            NaN
         13   -1    0    0    0    0  0.00000000000E+00  0.00000000000E+00  0.74505805969E-08  0.10566000000E+00  0.10566000000E+00 0. -1.
     999900   -1    0    0    0    0 -0.00000000000E+00 -0.00000000000E+00 -0.74505805969E-08  0.93827000000E+00  0.93827000000E+00 0. -1.
     999902    2    1    2    0    0  0.19213934348E-01  0.10560118317E-01 -0.65058879655E-02  0.10210604143E+01  0.10208042671E+01 0.  0.
     999903    2    3    3    0    0 -0.44765900409E-01  0.10622289704E+00  0.59428117398E-01  0.13112104583E+00  0.19332300105E-01 0.  0.
         14    1    1    2    0    0 -0.19213934348E-01 -0.10560118317E-01  0.65058879655E-02  0.22869585703E-01  0.00000000000E+00 0. -1.
     999901    1    3    3    0    0  0.63979834757E-01 -0.95662778719E-01 -0.65934005364E-01  0.88993936847E+00  0.88000000000E+00 0. -1.
        -11    1    4    4    0    0 -0.15232460532E-01  0.37755114426E-01  0.31564907292E-01  0.51517773753E-01  0.51100000000E-03 0. -1.
         11    1    4    4    0    0 -0.29533439878E-01  0.68467782610E-01  0.27863210106E-01  0.79603272075E-01  0.51100000000E-03 0.  1.
</event>
<event>
 8    1  0.1177602E+005  0.1043930E+01  0.7957747E-01            NaN
         13   -1    0    0    0    0  0.00000000000E+00  0.00000000000E+00  0.74505805969E-08  0.10566000000E+00  0.10566000000E+00 0. -1.
     999900   -1    0    0    0    0 -0.00000000000E+00 -0.00000000000E+00 -0.74505805969E-08  0.93827000000E+00  0.93827000000E+00 0. -1.
     999902    2    1    2    0    0 -0.70981478111E-02 -0.66621610945E-02  0.21588740980E-01  0.10202479006E+01  0.10199730079E+01 0.  0.
     999903    2    3    3    0    0  0.15672876885E-01  0.87995572582E-01 -0.89294849788E-01  0.12796219707E+00  0.20295167286E-01 0.  0.
         14    1    1    2    0    0  0.70981478111E-02  0.66621610945E-02 -0.21588740980E-01  0.23682099355E-01  0.00000000000E+00 0.  1.
     999901    1    3    3    0    0 -0.22771024696E-01 -0.94657733677E-01  0.11088359077E+00  0.89228570358E+00  0.88000000000E+00 0. -1.
        -11    1    4    4    0    0  0.76977244857E-02  0.29943301701E-01 -0.44565922545E-01  0.54242408245E-01  0.51100000000E-03 0. -1.
         11    1    4    4    0    0  0.79751523989E-02  0.58052270882E-01 -0.44728927243E-01  0.73719788820E-01  0.51100000000E-03 0.  1.
</event>
<event>
 8    1  0.1177602E+005  0.1043930E+01  0.7957747E-01            NaN
         13   -1    0    0    0    0  0.00000000000E+00  0.00000000000E+00  0.74505805969E-08  0.10566000000E+00  0.10566000000E+00 0.  1.
     999900   -1    0    0    0    0 -0.00000000000E+00 -0.00000000000E+00 -0.74505805969E-08  0.93827000000E+00  0.93827000000E+00 0.  1.
     999902    2    1    2    0    0  0.17452790903E-01 -0.16491832964E-01 -0.14835096084E-02  0.10198721267E+01  0.10195883354E+01 0.  0.
     999903    2    3    3    0    0  0.73028750938E-01  0.54995686035E-01  0.87003974478E-01  0.13081128094E+00  0.34411854056E-01 0.  0.
         14    1    1    2    0    0 -0.17452790903E-01  0.16491832964E-01  0.14835096084E-02  0.24057873256E-01  0.00000000000E+00 0.  1.
     999901    1    3    3    0    0 -0.55575960035E-01 -0.71487518999E-01 -0.88487484086E-01  0.88906084581E+00  0.88000000000E+00 0. -1.
        -11    1    4    4    0    0  0.20878783396E-01  0.21037688155E-01  0.50789607887E-01  0.58807765723E-01  0.51100000000E-03 0.  1.
         11    1    4    4    0    0  0.52149967542E-01  0.33957997881E-01  0.36214366591E-01  0.72003515215E-01  0.51100000000E-03 0. -1.
</event>
<event>
 8    1  0.1177602E+005  0.1043930E+01  0.7957747E-01            NaN
         13   -1    0    0    0    0  0.00000000000E+00  0.00000000000E+00  0.74505805969E-08  0.10566000000E+00  0.10566000000E+00 0.  1.
     999900   -1    0    0    0    0 -0.00000000000E+00 -0.00000000000E+00 -0.74505805969E-08  0.93827000000E+00  0.93827000000E+00 0.  1.
     999902    2    1    2    0    0  0.16789191366E-01  0.12196009700E-01  0.68291306912E-02  0.10220837961E+01  0.10218502971E+01 0.  0.
     999903    2    3    3    0    0 -0.10006483116E+00 -0.71360858076E-01  0.36362626465E-01  0.12994656443E+00  0.21413231998E-01 0.  0.
         14    1    1    2    0    0 -0.16789191366E-01 -0.12196009700E-01 -0.68291306912E-02  0.21846203911E-01  0.00000000000E+00 0.  1.
     999901    1    3    3    0    0  0.11685402252E+00  0.83556867776E-01 -0.29533495774E-01  0.89213723166E+00  0.88000000000E+00 0. -1.
        -11    1    4    4    0    0 -0.93069123341E-01 -0.68058578489E-01  0.39062171478E-01  0.12173720133E+00  0.51100000000E-03 0.  1.
         11    1    4    4    0    0 -0.69957078178E-02 -0.33022795870E-02 -0.26995450130E-02  0.82093631068E-02  0.51100000000E-03 0. -1.
</event>
<event>
 8    1  0.1177602E+005  0.1043930E+01  0.7957747E-01            NaN
         13   -1    0    0    0    0  0.00000000000E+00  0.00000000000E+00  0.74505805969E-08  0.10566000000E+00  0.10566000000E+00 0.  1.
     999900   -1    0    0    0    0 -0.00000000000E+00 -0.00000000000E+00 -0.74505805969E-08  0.93827000000E+00  0.93827000000E+00 0. -1.
     999902    2    1    2    0    0  0.10824485608E-01  0.51844721016E-02  0.20850833578E-01  0.10198716231E+01  0.10195878197E+01 0.  0.
     999903    2    3    3    0    0  0.36784177356E-02 -0.12483070199E+00  0.31307570455E-01  0.13022879860E+00  0.19573990390E-01 0.  0.
         14    1    1    2    0    0 -0.10824485608E-01 -0.51844721016E-02 -0.20850833578E-01  0.24058376931E-01  0.00000000000E+00 0. -1.
     999901    1    3    3    0    0  0.71460678721E-02  0.13001517410E+00 -0.10456736877E-01  0.88964282447E+00  0.88000000000E+00 0. -1.
        -11    1    4    4    0    0 -0.20863931890E-02 -0.69477177066E-01  0.82952109849E-02  0.70003591450E-01  0.51100000000E-03 0.  1.
         11    1    4    4    0    0  0.57648109246E-02 -0.55353524929E-01  0.23012359470E-01  0.60225207151E-01  0.51100000000E-03 0. -1.
</event>
<event>
 8    1  0.1177602E+005  0.1043930E+01  0.7957747E-01            NaN
         13   -1    0    0    0    0  0.00000000000E+00  0.00000000000E+00  0.74505805969E-08  0.10566000000E+00  0.10566000000E+00 0. -1.
     999900   -1    0    0    0    0 -0.00000000000E+00 -0.00000000000E+00 -0.74505805969E-08  0.93827000000E+00  0.93827000000E+00 0.  1.
     999902    2    1    2    0    0  0.23320189327E-01 -0.56548308859E-04  0.32616688288E-02  0.10203827515E+01  0.10201110168E+01 0.  0.
     999903    2    3    3    0    0 -0.10660098105E+00 -0.39678013700E-01 -0.55399358945E-01  0.12803165065E+00  0.19618885400E-01 0.  0.
         14    1    1    2    0    0 -0.23320189327E-01  0.56548308859E-04 -0.32616688288E-02  0.23547248491E-01  0.00000000000E+00 0. -1.
     999901    1    3    3    0    0  0.12992117037E+00  0.39621465391E-01  0.58661027774E-01  0.89235110086E+00  0.88000000000E+00 0.  1.
        -11    1    4    4    0    0 -0.59792237662E-01 -0.13498023291E-01 -0.35418558987E-01  0.70795789134E-01  0.51100000000E-03 0. -1.
         11    1    4    4    0    0 -0.46808743385E-01 -0.26179990409E-01 -0.19980799958E-01  0.57235861512E-01  0.51100000000E-03 0.  1.
</event>
<event>
 8    1  0.1177602E+005  0.1043930E+01  0.7957747E-01            NaN
         13   -1    0    0    0    0  0.00000000000E+00  0.00000000000E+00  0.74505805969E-08  0.10566000000E+00  0.10566000000E+00 0. -1.
     999900   -1    0    0    0    0 -0.00000000000E+00 -0.00000000000E+00 -0.74505805969E-08  0.93827000000E+00  0.93827000000E+00 0.  1.
     999902    2    1    2    0    0 -0.24299480004E-01  0.79254521505E-02 -0.52318872016E-02  0.10178407270E+01  0.10175063122E+01 0.  0.
     999903    2    3    3    0    0  0.17333043701E-01 -0.12425196891E+00 -0.64851587154E-02  0.12699522508E+00  0.18621055982E-01 0.  0.
         14    1    1    2    0    0  0.24299480004E-01 -0.79254521505E-02  0.52318872016E-02  0.26089272967E-01  0.00000000000E+00 0. -1.
     999901    1    3    3    0    0 -0.41632523705E-01  0.13217742106E+00  0.12532715138E-02  0.89084550196E+00  0.88000000000E+00 0.  1.
        -11    1    4    4    0    0  0.33532244706E-03 -0.37852681013E-01  0.50233865879E-02  0.38189441405E-01  0.51100000000E-03 0.  1.
         11    1    4    4    0    0  0.16997721254E-01 -0.86399287899E-01 -0.11508545303E-01  0.88805783670E-01  0.51100000000E-03 0. -1.
</event>
<event>
 8    1  0.1177602E+005  0.1043930E+01  0.7957747E-01            NaN
         13   -1    0    0    0    0  0.00000000000E+00  0.00000000000E+00  0.74505805969E-08  0.10566000000E+00  0.10566000000E+00 0. -1.
     999900   -1    0    0    0    0 -0.00000000000E+00 -0.00000000000E+00 -0.74505805969E-08  0.93827000000E+00  0.93827000000E+00 0.  1.
     999902    2    1    2    0    0  0.94791576399E-02 -0.85728915886E-02 -0.24265698040E-01  0.10165042274E+01  0.10161341798E+01 0.  0.
     999903    2    3    3    0    0  0.11388379653E-01  0.46206873524E-01 -0.11905525193E+00  0.12971816116E+00  0.19694617809E-01 0.  0.
         14    1    1    2    0    0 -0.94791576399E-02  0.85728915886E-02  0.24265698040E-01  0.27425772571E-01  0.00000000000E+00 0. -1.
     999901    1    3    3    0    0 -0.19092220136E-02 -0.54779765113E-01  0.94789553894E-01  0.88678606627E+00  0.88000000000E+00 0. -1.
        -11    1    4    4    0    0  0.11918392621E-01  0.30479605330E-01 -0.57319459934E-01  0.66006333271E-01  0.51100000000E-03 0.  1.
         11    1    4    4    0    0 -0.53001296802E-03  0.15727268195E-01 -0.61735792000E-01  0.63711827893E-01  0.51100000000E-03 0. -1.
</event>
<event>
 8    1  0.1177602E+005  0.1043930E+01  0.7957747E-01            NaN
         13   -1    0    0    0    0  0.00000000000E+00  0.00000000000E+00  0.74505805969E-08  0.10566000000E+00  0.10566000000E+00 0. -1.
     999900   -1    0    0    0    0 -0.00000000000E+00 -0.00000000000E+00 -0.74505805969E-08  0.93827000000E+00  0.93827000000E+00 0. -1.
     999902    2    1    2    0    0 -0.19980111947E-01 -0.65290566034E-02  0.11569513194E-01  0.10199365199E+01  0.10196542637E+01 0.  0.
     999903    2    3    3    0    0 -0.11249699231E+00 -0.12059551110E-01 -0.64572211062E-01  0.13179941238E+00  0.20012711193E-01 0.  0.
         14    1    1    2    0    0  0.19980111947E-01  0.65290566034E-02 -0.11569513194E-01  0.23993480137E-01  0.00000000000E+00 0.  1.
     999901    1    3    3    0    0  0.92516880365E-01  0.55304945063E-02  0.76141724255E-01  0.88813710749E+00  0.88000000000E+00 0.  1.
        -11    1    4    4    0    0 -0.45061043722E-01 -0.99181712896E-03 -0.36167917458E-01  0.57791528244E-01  0.51100000000E-03 0. -1.
         11    1    4    4    0    0 -0.67435948590E-01 -0.11067733981E-01 -0.28404293604E-01  0.74007884133E-01  0.51100000000E-03 0.  1.
</event>
<event>
 8    1  0.1177602E+005  0.1043930E+01  0.7957747E-01            NaN
         13   -1    0    0    0    0  0.00000000000E+00  0.00000000000E+00  0.74505805969E-08  0.10566000000E+00  0.10566000000E+00 0.  1.
     999900   -1    0    0    0    0 -0.00000000000E+00 -0.00000000000E+00 -0.74505805969E-08  0.93827000000E+00  0.93827000000E+00 0.  1.
     999902    2    1    2    0    0  0.12347118335E-01 -0.15397510758E-01  0.19218589940E-02  0.10241000174E+01  0.10239080122E+01 0.  0.
     999903    2    3    3    0    0  0.68705955767E-01 -0.21445970075E-02  0.11473138237E+00  0.13501175020E+00  0.18432984999E-01 0.  0.
         14    1    1    2    0    0 -0.12347118335E-01  0.15397510758E-01 -0.19218589940E-02  0.19829982620E-01  0.00000000000E+00 0. -1.
     999901    1    3    3    0    0 -0.56358837432E-01 -0.13252913751E-01 -0.11280952338E+00  0.88908826718E+00  0.88000000000E+00 0.  1.
        -11    1    4    4    0    0  0.25818757160E-01 -0.56325657096E-02  0.30021448083E-01  0.39998531020E-01  0.51100000000E-03 0. -1.
         11    1    4    4    0    0  0.42887198607E-01  0.34879687021E-02  0.84709934288E-01  0.95013219176E-01  0.51100000000E-03 0.  1.
</event>
<event>
 8    1  0.1177602E+005  0.1043930E+01  0.7957747E-01            NaN
         13   -1    0    0    0    0  0.00000000000E+00  0.00000000000E+00  0.74505805969E-08  0.10566000000E+00  0.10566000000E+00 0.  1.
     999900   -1    0    0    0    0 -0.00000000000E+00 -0.00000000000E+00 -0.74505805969E-08  0.93827000000E+00  0.93827000000E+00 0.  1.
     999902    2    1    2    0    0 -0.19115620940E-01 -0.46710553194E-02 -0.12657547772E-01  0.10205325805E+01  0.10202643328E+01 0.  0.
     999903    2    3    3    0    0 -0.67463278943E-01 -0.11261560730E-01  0.11002764816E+00  0.13068282463E+00  0.17140610794E-01 0.  0.
         14    1    1    2    0    0  0.19115620940E-01  0.46710553194E-02  0.12657547772E-01  0.23397419459E-01  0.00000000000E+00 0. -1.
     999901    1    3    3    0    0  0.48347658003E-01  0.65905054105E-02 -0.12268519593E+00  0.88984975591E+00  0.88000000000E+00 0.  1.
        -11    1    4    4    0    0 -0.46723614185E-01 -0.73551012999E-04  0.77840081017E-01  0.90787889423E-01  0.51100000000E-03 0. -1.
         11    1    4    4    0    0 -0.20739664758E-01 -0.11188009717E-01  0.32187567140E-01  0.39894935206E-01  0.51100000000E-03 0.  1.
</event>
<event>
 8    1  0.1177602E+005  0.1043930E+01  0.7957747E-01            NaN
         13   -1    0    0    0    0  0.00000000000E+00  0.00000000000E+00  0.74505805969E-08  0.10566000000E+00  0.10566000000E+00 0. -1.
     999900   -1    0    0    0    0 -0.00000000000E+00 -0.00000000000E+00 -0.74505805969E-08  0.93827000000E+00  0.93827000000E+00 0.  1.
     999902    2    1    2    0    0 -0.14627766805E-01 -0.17211237484E-01  0.13673781077E-02  0.10213010809E+01  0.10210503562E+01 0.  0.
     999903    2    3    3    0    0  0.37894345547E-01  0.43161902892E-01  0.11582699042E+00  0.13028789848E+00  0.16128034465E-01 0.  0.
         14    1    1    2    0    0  0.14627766805E-01  0.17211237484E-01 -0.13673781077E-02  0.22628919115E-01  0.00000000000E+00 0. -1.
     999901    1    3    3    0    0 -0.52522112352E-01 -0.60373140376E-01 -0.11445961231E+00  0.89101318240E+00  0.88000000000E+00 0.  1.
        -11    1    4    4    0    0  0.93229555730E-02  0.13681612879E-01  0.50337330802E-01  0.52992565751E-01  0.51100000000E-03 0. -1.
         11    1    4    4    0    0  0.28571389974E-01  0.29480290013E-01  0.65489659616E-01  0.77295332731E-01  0.51100000000E-03 0.  1.
</event>
<event>
 8    1  0.1177602E+005  0.1043930E+01  0.7957747E-01            NaN
         13   -1    0    0    0    0  0.00000000000E+00  0.00000000000E+00  0.74505805969E-08  0.10566000000E+00  0.10566000000E+00 0. -1.
     999900   -1    0    0    0    0 -0.00000000000E+00 -0.00000000000E+00 -0.74505805969E-08  0.93827000000E+00  0.93827000000E+00 0. -1.
     999902    2    1    2    0    0  0.13447637456E-01  0.13331129823E-01  0.14198210916E-01  0.10202625716E+01  0.10199880233E+01 0.  0.
     999903    2    3    3    0    0 -0.83904683124E-01 -0.22219820838E-01  0.95325396222E-01  0.13047441441E+00  0.20073000847E-01 0.  0.
         14    1    1    2    0    0 -0.13447637456E-01 -0.13331129823E-01 -0.14198210916E-01  0.23667428435E-01  0.00000000000E+00 0.  1.
     999901    1    3    3    0    0  0.97352320580E-01  0.35550950660E-01 -0.81127185306E-01  0.88978815715E+00  0.88000000000E+00 0. -1.
        -11    1    4    4    0    0 -0.23238421233E-01 -0.15579024464E-01  0.27509794062E-01  0.39240032046E-01  0.51100000000E-03 0. -1.
         11    1    4    4    0    0 -0.60666261891E-01 -0.66407963741E-02  0.67815602160E-01  0.91234382366E-01  0.51100000000E-03 0.  1.
</event>
<event>
 8    1  0.1177602E+005  0.1043930E+01  0.7957747E-01            NaN
         13   -1    0    0    0    0  0.00000000000E+00  0.00000000000E+00  0.74505805969E-08  0.10566000000E+00  0.10566000000E+00 0.  1.
     999900   -1    0    0    0    0 -0.00000000000E+00 -0.00000000000E+00 -0.74505805969E-08  0.93827000000E+00  0.93827000000E+00 0.  1.
     999902    2    1    2    0    0 -0.17421006319E-01  0.56751081606E-02  0.14441940220E-01  0.10206004490E+01  0.10203337731E+01 0.  0.
     999903    2    3    3    0    0 -0.53600112633E-01 -0.87261669741E-01 -0.78328199482E-01  0.13012166133E+00  0.17571819288E-01 0.  0.
         14    1    1    2    0    0  0.17421006319E-01 -0.56751081606E-02 -0.14441940220E-01  0.23329551027E-01  0.00000000000E+00 0. -1.
     999901    1    3    3    0    0  0.36179106314E-01  0.92936777901E-01  0.92770139702E-01  0.89047878764E+00  0.88000000000E+00 0. -1.
        -11    1    4    4    0    0 -0.27152698157E-01 -0.60194243346E-01 -0.48504559104E-01  0.81936373633E-01  0.51100000000E-03 0.  1.
         11    1    4    4    0    0 -0.26447414477E-01 -0.27067426395E-01 -0.29823640378E-01  0.48185287698E-01  0.51100000000E-03 0. -1.
</event>
<event>
 8    1  0.1177602E+005  0.1043930E+01  0.7957747E-01            NaN
         13   -1    0    0    0    0  0.00000000000E+00  0.00000000000E+00  0.74505805969E-08  0.10566000000E+00  0.10566000000E+00 0.  1.
     999900   -1    0    0    0    0 -0.00000000000E+00 -0.00000000000E+00 -0.74505805969E-08  0.93827000000E+00  0.93827000000E+00 0. -1.
     999902    2    1    2    0    0 -0.12623596878E-01 -0.19509185382E-01 -0.35537878444E-02  0.10204227050E+01  0.10201519023E+01 0.  0.
     999903    2    3    3    0    0 -0.10821296140E+00 -0.68550960392E-01  0.31707870099E-01  0.13318778295E+00  0.18008812164E-01 0.  0.
         14    1    1    2    0    0  0.12623596878E-01  0.19509185382E-01  0.35537878444E-02  0.23507295047E-01  0.00000000000E+00 0. -1.
     999901    1    3    3    0    0  0.95589364518E-01  0.49041775010E-01 -0.35261657943E-01  0.88723492201E+00  0.88000000000E+00 0. -1.
        -11    1    4    4    0    0 -0.56662017304E-01 -0.31754635908E-01  0.75243024608E-02  0.65389734325E-01  0.51100000000E-03 0. -1.
         11    1    4    4    0    0 -0.51550944092E-01 -0.36796324484E-01  0.24183567638E-01  0.67798048622E-01  0.51100000000E-03 0.  1.
</event>
<event>
 8    1  0.1177602E+005  0.1043930E+01  0.7957747E-01            NaN
         13   -1    0    0    0    0  0.00000000000E+00  0.00000000000E+00  0.74505805969E-08  0.10566000000E+00  0.10566000000E+00 0. -1.
     999900   -1    0    0    0    0 -0.00000000000E+00 -0.00000000000E+00 -0.74505805969E-08  0.93827000000E+00  0.93827000000E+00 0. -1.
     999902    2    1    2    0    0  0.84245277906E-03  0.60453141130E-02  0.24805694141E-01  0.10183843935E+01  0.10180639444E+01 0.  0.
     999903    2    3    3    0    0  0.69130960026E-01 -0.75906088524E-01 -0.72106819504E-01  0.12666056411E+00  0.17397734668E-01 0.  0.
         14    1    1    2    0    0 -0.84245277906E-03 -0.60453141130E-02 -0.24805694141E-01  0.25545606495E-01  0.00000000000E+00 0. -1.
     999901    1    3    3    0    0 -0.68288507247E-01  0.81951402637E-01  0.96912513644E-01  0.89172382940E+00  0.88000000000E+00 0.  1.
        -11    1    4    4    0    0  0.11094548652E-01 -0.22282317362E-01 -0.13867727915E-01  0.28498520581E-01  0.51100000000E-03 0. -1.
         11    1    4    4    0    0  0.58036411375E-01 -0.53623771163E-01 -0.58239091589E-01  0.98162043525E-01  0.51100000000E-03 0.  1.
</event>
<event>
 8    1  0.1177602E+005  0.1043930E+01  0.7957747E-01            NaN
         13   -1    0    0    0    0  0.00000000000E+00  0.00000000000E+00  0.74505805969E-08  0.10566000000E+00  0.10566000000E+00 0.  1.
     999900   -1    0    0    0    0 -0.00000000000E+00 -0.00000000000E+00 -0.74505805969E-08  0.93827000000E+00  0.93827000000E+00 0. -1.
     999902    2    1    2    0    0  0.13139113290E-01  0.10809900840E-01  0.16581261419E-01  0.10201722963E+01  0.10198956249E+01 0.  0.
     999903    2    3    3    0    0 -0.34661973466E-01 -0.10103584186E+00 -0.67256466083E-01  0.12785891044E+00  0.20366025755E-01 0.  0.
         14    1    1    2    0    0 -0.13139113290E-01 -0.10809900840E-01 -0.16581261419E-01  0.23757703687E-01  0.00000000000E+00 0. -1.
     999901    1    3    3    0    0  0.47801086756E-01  0.11184574270E+00  0.83837727502E-01  0.89231338587E+00  0.88000000000E+00 0.  1.
        -11    1    4    4    0    0 -0.25295973672E-01 -0.54513581050E-01 -0.28154095079E-01  0.66366640669E-01  0.51100000000E-03 0.  1.
         11    1    4    4    0    0 -0.93659997939E-02 -0.46522260806E-01 -0.39102371003E-01  0.61492269772E-01  0.51100000000E-03 0. -1.
</event>
<event>
 8    1  0.1177602E+005  0.1043930E+01  0.7957747E-01            NaN
         13   -1    0    0    0    0  0.00000000000E+00  0.00000000000E+00  0.74505805969E-08  0.10566000000E+00  0.10566000000E+00 0.  1.
     999900   -1    0    0    0    0 -0.00000000000E+00 -0.00000000000E+00 -0.74505805969E-08  0.93827000000E+00  0.93827000000E+00 0. -1.
     999902    2    1    2    0    0 -0.11398709259E-01  0.20678893590E-01  0.37632608431E-02  0.10200195557E+01  0.10197392729E+01 0.  0.
     999903    2    3    3    0    0  0.22470617184E-01  0.33215257278E-01 -0.12230760574E+00  0.13030153575E+00  0.20277027449E-01 0.  0.
         14    1    1    2    0    0  0.11398709259E-01 -0.20678893590E-01 -0.37632608431E-02  0.23910444267E-01  0.00000000000E+00 0.  1.
     999901    1    3    3    0    0 -0.33869326443E-01 -0.12536363688E-01  0.12607086659E+00  0.88971801999E+00  0.88000000000E+00 0.  1.
        -11    1    4    4    0    0  0.11618075565E-01  0.18408869653E-01 -0.36091643375E-01  0.42151322687E-01  0.51100000000E-03 0. -1.
         11    1    4    4    0    0  0.10852541619E-01  0.14806387625E-01 -0.86215962369E-01  0.88150213058E-01  0.51100000000E-03 0.  1.
</event>
<event>
 8    1  0.1177602E+005  0.1043930E+01  0.7957747E-01            NaN
         13   -1    0    0    0    0  0.00000000000E+00  0.00000000000E+00  0.74505805969E-08  0.10566000000E+00  0.10566000000E+00 0.  1.
     999900   -1    0    0    0    0 -0.00000000000E+00 -0.00000000000E+00 -0.74505805969E-08  0.93827000000E+00  0.93827000000E+00 0.  1.
     999902    2    1    2    0    0 -0.95359001263E-02 -0.20191658181E-01  0.13221363133E-01  0.10179792602E+01  0.10176484331E+01 0.  0.
     999903    2    3    3    0    0 -0.49161372544E-01 -0.10952776253E+00 -0.47034369311E-01  0.13052116494E+00  0.20257622928E-01 0.  0.
         14    1    1    2    0    0  0.95359001263E-02  0.20191658181E-01 -0.13221363133E-01  0.25950739766E-01  0.00000000000E+00 0. -1.
     999901    1    3    3    0    0  0.39625472418E-01  0.89336104348E-01  0.60255732445E-01  0.88745809529E+00  0.88000000000E+00 0. -1.
        -11    1    4    4    0    0 -0.19195549432E-01 -0.66304631565E-01 -0.23750494634E-01  0.73000824662E-01  0.51100000000E-03 0.  1.
         11    1    4    4    0    0 -0.29965823112E-01 -0.43223130963E-01 -0.23283874677E-01  0.57520340281E-01  0.51100000000E-03 0. -1.
</event>
<event>
 8    1  0.1177602E+005  0.1043930E+01  0.7957747E-01            NaN
         13   -1    0    0    0    0  0.00000000000E+00  0.00000000000E+00  0.74505805969E-08  0.10566000000E+00  0.10566000000E+00 0.  1.
     999900   -1    0    0    0    0 -0.00000000000E+00 -0.00000000000E+00 -0.74505805969E-08  0.93827000000E+00  0.93827000000E+00 0. -1.
     999902    2    1    2    0    0 -0.15985634717E-01  0.34962539568E-02  0.19264444883E-01  0.10186538621E+01  0.10183402220E+01 0.  0.
     999903    2    3    3    0    0 -0.81609047536E-01 -0.99244110132E-01  0.43638173917E-02  0.13012471606E+00  0.20098974862E-01 0.  0.
         14    1    1    2    0    0  0.15985634717E-01 -0.34962539568E-02 -0.19264444883E-01  0.25276137871E-01  0.00000000000E+00 0. -1.
     999901    1    3    3    0    0  0.65623412819E-01  0.10274036409E+00  0.14900627491E-01  0.88852914607E+00  0.88000000000E+00 0.  1.
        -11    1    4    4    0    0 -0.12406911907E-01 -0.27503785470E-01  0.40332713942E-02  0.30445329320E-01  0.51100000000E-03 0.  1.
         11    1    4    4    0    0 -0.69202135630E-01 -0.71740324662E-01  0.33054599753E-03  0.99679386735E-01  0.51100000000E-03 0. -1.
</event>
<event>
 8    1  0.1177602E+005  0.1043930E+01  0.7957747E-01            NaN
         13   -1    0    0    0    0  0.00000000000E+00  0.00000000000E+00  0.74505805969E-08  0.10566000000E+00  0.10566000000E+00 0.  1.
     999900   -1    0    0    0    0 -0.00000000000E+00 -0.00000000000E+00 -0.74505805969E-08  0.93827000000E+00  0.93827000000E+00 0. -1.
     999902    2    1    2    0    0  0.11285185540E-01 -0.19623934721E-01  0.27746825422E-02  0.10211231350E+01  0.10208684067E+01 0.  0.
     999903    2    3    3    0    0  0.83112341381E-01 -0.86700828034E-01  0.55859126805E-01  0.13406259135E+00  0.20684329331E-01 0.  0.
         14    1    1    2    0    0 -0.11285185540E-01  0.19623934721E-01 -0.27746825422E-02  0.22806864971E-01  0.00000000000E+00 0.  1.
     999901    1    3    3    0    0 -0.71827155841E-01  0.67076893314E-01 -0.53084444263E-01  0.88706054368E+00  0.88000000000E+00 0. -1.
        -11    1    4    4    0    0  0.74453503957E-01 -0.66531964905E-01  0.47464124459E-01  0.11055736446E+00  0.51100000000E-03 0. -1.
         11    1    4    4    0    0  0.86588374233E-02 -0.20168863130E-01  0.83950023459E-02  0.23505226884E-01  0.51100000000E-03 0.  1.
</event>
<event>
 8    1  0.1177602E+005  0.1043930E+01  0.7957747E-01            NaN
         13   -1    0    0    0    0  0.00000000000E+00  0.00000000000E+00  0.74505805969E-08  0.10566000000E+00  0.10566000000E+00 0.  1.
     999900   -1    0    0    0    0 -0.00000000000E+00 -0.00000000000E+00 -0.74505805969E-08  0.93827000000E+00  0.93827000000E+00 0. -1.
     999902    2    1    2    0    0 -0.22734064247E-01  0.11904422153E-02 -0.57536621002E-02  0.10204489554E+01  0.10201787643E+01 0.  0.
     999903    2    3    3    0    0  0.50017143491E-02 -0.12601240106E+00 -0.27268008113E-01  0.13061037234E+00  0.20282572063E-01 0.  0.
         14    1    1    2    0    0  0.22734064247E-01 -0.11904422153E-02  0.57536621002E-02  0.23481044641E-01  0.00000000000E+00 0. -1.
     999901    1    3    3    0    0 -0.27735778596E-01  0.12720284327E+00  0.21514346013E-01  0.88983858302E+00  0.88000000000E+00 0.  1.
        -11    1    4    4    0    0  0.92291710221E-02 -0.84177639379E-01 -0.25828270034E-01  0.88534813623E-01  0.51100000000E-03 0. -1.
         11    1    4    4    0    0 -0.42274566730E-02 -0.41834761676E-01 -0.14397380783E-02  0.42075558715E-01  0.51100000000E-03 0.  1.
</event>
<event>
 8    1  0.1177602E+005  0.1043930E+01  0.7957747E-01            NaN
         13   -1    0    0    0    0  0.00000000000E+00  0.00000000000E+00  0.74505805969E-08  0.10566000000E+00  0.10566000000E+00 0. -1.
     999900   -1    0    0    0    0 -0.00000000000E+00 -0.00000000000E+00 -0.74505805969E-08  0.93827000000E+00  0.93827000000E+00 0.  1.
     999902    2    1    2    0    0  0.40814880681E-02  0.72474410822E-02 -0.22477928681E-01  0.10199624965E+01  0.10196808584E+01 0.  0.
     999903    2    3    3    0    0 -0.46576232541E-01 -0.11771362219E+00 -0.19920400131E-01  0.12968837412E+00  0.19910041533E-01 0.  0.
         14    1    1    2    0    0 -0.40814880681E-02 -0.72474410822E-02  0.22477928681E-01  0.23967503518E-01  0.00000000000E+00 0. -1.
     999901    1    3    3    0    0  0.50657720609E-01  0.12496106327E+00 -0.25575285499E-02  0.89027412236E+00  0.88000000000E+00 0. -1.
        -11    1    4    4    0    0 -0.39152499518E-01 -0.78631546764E-01 -0.82505589497E-02  0.88227950270E-01  0.51100000000E-03 0. -1.
         11    1    4    4    0    0 -0.74237330232E-02 -0.39082075428E-01 -0.11669841181E-01  0.41460423852E-01  0.51100000000E-03 0.  1.
</event>
<event>
 8    1  0.1177602E+005  0.1043930E+01  0.7957747E-01            NaN
         13   -1    0    0    0    0  0.00000000000E+00  0.00000000000E+00  0.74505805969E-08  0.10566000000E+00  0.10566000000E+00 0.  1.
     999900   -1    0    0    0    0 -0.00000000000E+00 -0.00000000000E+00 -0.74505805969E-08  0.93827000000E+00  0.93827000000E+00 0.  1.
     999902    2    1    2    0    0  0.19773964477E-02  0.21664673503E-01  0.62992156535E-02  0.10212816382E+01  0.10210304776E+01 0.  0.
     999903    2    3    3    0    0  0.42621957238E-01  0.94055890582E-03  0.12259279782E+00  0.13245900881E+00  0.26436320633E-01 0.  0.
         14    1    1    2    0    0 -0.19773964477E-02 -0.21664673503E-01 -0.62992156535E-02  0.22648361808E-01  0.00000000000E+00 0.  1.
     999901    1    3    3    0    0 -0.40644560791E-01  0.20724114598E-01 -0.11629358216E+00  0.88882262938E+00  0.88000000000E+00 0.  1.
        -11    1    4    4    0    0  0.63462833468E-03  0.20515866445E-02  0.37483055219E-01  0.37548000086E-01  0.51100000000E-03 0.  1.
         11    1    4    4    0    0  0.41987328904E-01 -0.11110277387E-02  0.85109742598E-01  0.94911008725E-01  0.51100000000E-03 0. -1.
</event>
<event>
 8    1  0.1177602E+005  0.1043930E+01  0.7957747E-01            NaN
         13   -1    0    0    0    0  0.00000000000E+00  0.00000000000E+00  0.74505805969E-08  0.10566000000E+00  0.10566000000E+00 0. -1.
     999900   -1    0    0    0    0 -0.00000000000E+00 -0.00000000000E+00 -0.74505805969E-08  0.93827000000E+00  0.93827000000E+00 0.  1.
     999902    2    1    2    0    0 -0.17421895450E-01  0.10155511829E-01 -0.11596483620E-01  0.10206676851E+01  0.10204025618E+01 0.  0.
     999903    2    3    3    0    0  0.55756189229E-01 -0.65334168601E-01  0.93096256595E-01  0.12824721595E+00  0.20078077161E-01 0.  0.
         14    1    1    2    0    0  0.17421895450E-01 -0.10155511829E-01  0.11596483620E-01  0.23262314887E-01  0.00000000000E+00 0.  1.
     999901    1    3    3    0    0 -0.73178084679E-01  0.75489680430E-01 -0.10469274022E+00  0.89242046916E+00  0.88000000000E+00 0.  1.
        -11    1    4    4    0    0  0.42069280274E-01 -0.42496081381E-01  0.51833677089E-01  0.79137427789E-01  0.51100000000E-03 0. -1.
         11    1    4    4    0    0  0.13686908955E-01 -0.22838087220E-01  0.41262579506E-01  0.49109788160E-01  0.51100000000E-03 0.  1.
</event>
<event>
 8    1  0.1177602E+005  0.1043930E+01  0.7957747E-01            NaN
         13   -1    0    0    0    0  0.00000000000E+00  0.00000000000E+00  0.74505805969E-08  0.10566000000E+00  0.10566000000E+00 0.  1.
     999900   -1    0    0    0    0 -0.00000000000E+00 -0.00000000000E+00 -0.74505805969E-08  0.93827000000E+00  0.93827000000E+00 0. -1.
     999902    2    1    2    0    0 -0.52988161087E-02 -0.20861488119E-01  0.93750104020E-02  0.10204529908E+01  0.10201828937E+01 0.  0.
     999903    2    3    3    0    0  0.11615765280E+00  0.61644456201E-02  0.55696313171E-01  0.13049358839E+00  0.19897150938E-01 0.  0.
         14    1    1    2    0    0  0.52988161087E-02  0.20861488119E-01 -0.93750104020E-02  0.23477009153E-01  0.00000000000E+00 0. -1.
     999901    1    3    3    0    0 -0.12145646891E+00 -0.27025933740E-01 -0.46321302769E-01  0.88995940246E+00  0.88000000000E+00 0. -1.
        -11    1    4    4    0    0  0.49358440996E-01 -0.26451842003E-02  0.14486198504E-01  0.51510812119E-01  0.51100000000E-03 0.  1.
         11    1    4    4    0    0  0.66799211806E-01  0.88096298205E-02  0.41210114667E-01  0.78982776270E-01  0.51100000000E-03 0. -1.
</event>
<event>
 8    1  0.1177602E+005  0.1043930E+01  0.7957747E-01            NaN
         13   -1    0    0    0    0  0.00000000000E+00  0.00000000000E+00  0.74505805969E-08  0.10566000000E+00  0.10566000000E+00 0.  1.
     999900   -1    0    0    0    0 -0.00000000000E+00 -0.00000000000E+00 -0.74505805969E-08  0.93827000000E+00  0.93827000000E+00 0. -1.
     999902    2    1    2    0    0  0.20298991966E-01 -0.92320069651E-02  0.77245679709E-02  0.10203302547E+01  0.10200572929E+01 0.  0.
     999903    2    3    3    0    0  0.10835338248E+00 -0.73097046311E-01  0.18981411471E-01  0.13356138095E+00  0.19867431279E-01 0.  0.
         14    1    1    2    0    0 -0.20298991966E-01  0.92320069651E-02 -0.77245679709E-02  0.23599745291E-01  0.00000000000E+00 0. -1.
     999901    1    3    3    0    0 -0.88054390516E-01  0.63865039346E-01 -0.11256843500E-01  0.88676887376E+00  0.88000000000E+00 0.  1.
        -11    1    4    4    0    0  0.24206558178E-01 -0.71809109981E-02  0.52069725514E-02  0.25785589497E-01  0.51100000000E-03 0. -1.
         11    1    4    4    0    0  0.84146824304E-01 -0.65916135313E-01  0.13774438920E-01  0.10777579145E+00  0.51100000000E-03 0.  1.
</event>
<event>
 8    1  0.1177602E+005  0.1043930E+01  0.7957747E-01            NaN
         13   -1    0    0    0    0  0.00000000000E+00  0.00000000000E+00  0.74505805969E-08  0.10566000000E+00  0.10566000000E+00 0.  1.
     999900   -1    0    0    0    0 -0.00000000000E+00 -0.00000000000E+00 -0.74505805969E-08  0.93827000000E+00  0.93827000000E+00 0. -1.
     999902    2    1    2    0    0  0.14183142929E-01  0.52769969557E-02  0.18570129106E-01  0.10199746679E+01  0.10196933192E+01 0.  0.
     999903    2    3    3    0    0  0.94277910050E-01 -0.88503573464E-01  0.62956144506E-02  0.13128989207E+00  0.21821873420E-01 0.  0.
         14    1    1    2    0    0 -0.14183142929E-01 -0.52769969557E-02 -0.18570129106E-01  0.23955332084E-01  0.00000000000E+00 0. -1.
     999901    1    3    3    0    0 -0.80094767121E-01  0.93780570419E-01  0.12274514656E-01  0.88868477584E+00  0.88000000000E+00 0. -1.
        -11    1    4    4    0    0  0.24312314613E-01 -0.15066465445E-01  0.84706861207E-02  0.29834554919E-01  0.51100000000E-03 0. -1.
         11    1    4    4    0    0  0.69965595437E-01 -0.73437108018E-01 -0.21750716701E-02  0.10145533715E+00  0.51100000000E-03 0.  1.
</event>
<event>
 7    1  0.1177602E+005  0.1043930E+01  0.7957747E-01            NaN
         13   -1    0    0    0    0  0.00000000000E+00  0.00000000000E+00  0.74505805969E-08  0.10566000000E+00  0.10566000000E+00 0. -1.
     999900   -1    0    0    0    0 -0.00000000000E+00 -0.00000000000E+00 -0.74505805969E-08  0.93827000000E+00  0.93827000000E+00 0.  1.
     999903    2    1    2    0    0  0.29657526178E-01  0.87186462957E-01  0.33543850353E-02  0.94317391424E-01  0.20086568748E-01 0.  0.
         14    1    1    2    0    0  0.23502879378E-01 -0.33416830286E-01 -0.50688240503E-01  0.65102746568E-01  0.00000000000E+00 0.  1.
     999901    1    1    2    0    0 -0.53160405555E-01 -0.53769632671E-01  0.47333855468E-01  0.88450986201E+00  0.88000000000E+00 0. -1.
        -11    1    3    3    0    0  0.19178854619E-01  0.48741774825E-01 -0.77421807063E-02  0.52950840981E-01  0.51100000000E-03 0.  1.
         11    1    3    3    0    0  0.10478671558E-01  0.38444688132E-01  0.11096565742E-01  0.41366550442E-01  0.51100000000E-03 0. -1.
</event>
<event>
 8    1  0.1177602E+005  0.1043930E+01  0.7957747E-01            NaN
         13   -1    0    0    0    0  0.00000000000E+00  0.00000000000E+00  0.74505805969E-08  0.10566000000E+00  0.10566000000E+00 0. -1.
     999900   -1    0    0    0    0 -0.00000000000E+00 -0.00000000000E+00 -0.74505805969E-08  0.93827000000E+00  0.93827000000E+00 0.  1.
     999902    2    1    2    0    0  0.11248551083E-02  0.86226525672E-02 -0.21547496282E-01  0.10206940358E+01  0.10204295197E+01 0.  0.
     999903    2    3    3    0    0 -0.11196443020E+00  0.42471108243E-01  0.47020066133E-01  0.13016811534E+00  0.19824806841E-01 0.  0.
         14    1    1    2    0    0 -0.11248551083E-02 -0.86226525672E-02  0.21547496282E-01  0.23235964201E-01  0.00000000000E+00 0. -1.
     999901    1    3    3    0    0  0.11308928530E+00 -0.33848455676E-01 -0.68567562415E-01  0.89052592046E+00  0.88000000000E+00 0.  1.
        -11    1    4    4    0    0 -0.47426049383E-01  0.17947695773E-01  0.30500794485E-01  0.59176934095E-01  0.51100000000E-03 0.  1.
         11    1    4    4    0    0 -0.64538380813E-01  0.24523412469E-01  0.16519271648E-01  0.70991181240E-01  0.51100000000E-03 0. -1.
</event>
<event>
 7    1  0.1177602E+005  0.1043930E+01  0.7957747E-01            NaN
         13   -1    0    0    0    0  0.00000000000E+00  0.00000000000E+00  0.74505805969E-08  0.10566000000E+00  0.10566000000E+00 0.  1.
     999900   -1    0    0    0    0 -0.00000000000E+00 -0.00000000000E+00 -0.74505805969E-08  0.93827000000E+00  0.93827000000E+00 0. -1.
     999902    2    1    2    0    0 -0.13797046927E-01  0.26984349206E-02  0.17636733213E-01  0.10213757451E+01  0.10211266906E+01 0.  0.
         14    1    1    2    0    0  0.13797046927E-01 -0.26984349206E-02 -0.17636733213E-01  0.22554254884E-01  0.00000000000E+00 0. -1.
     999901    1    3    3    0    0 -0.37750876947E-01 -0.12203113494E+00  0.48695143342E-01  0.89055485153E+00  0.88000000000E+00 0. -1.
        -11    1    3    3    0    0  0.11668779941E-01  0.70707772588E-01 -0.18378764504E-01  0.73985063596E-01  0.51100000000E-03 0.  1.
         11    1    3    3    0    0  0.12285050079E-01  0.54021797273E-01 -0.12679645624E-01  0.56835829986E-01  0.51100000000E-03 0. -1.
</event>
<event>
 8    1  0.1177602E+005  0.1043930E+01  0.7957747E-01            NaN
         13   -1    0    0    0    0  0.00000000000E+00  0.00000000000E+00  0.74505805969E-08  0.10566000000E+00  0.10566000000E+00 0.  1.
     999900   -1    0    0    0    0 -0.00000000000E+00 -0.00000000000E+00 -0.74505805969E-08  0.93827000000E+00  0.93827000000E+00 0. -1.
     999902    2    1    2    0    0  0.22372692916E-01  0.20877785077E-02 -0.19071523056E-01  0.10144576537E+01  0.10140294433E+01 0.  0.
     999903    2    3    3    0    0 -0.11916405816E+00  0.13486671308E-01  0.14068515129E-01  0.12245942003E+00  0.20406454262E-01 0.  0.
         14    1    1    2    0    0 -0.22372692916E-01 -0.20877785077E-02  0.19071523056E-01  0.29472346345E-01  0.00000000000E+00 0.  1.
     999901    1    3    3    0    0  0.14153675108E+00 -0.11398892801E-01 -0.33140038185E-01  0.89199823363E+00  0.88000000000E+00 0. -1.
        -11    1    4    4    0    0 -0.35638477410E-01  0.10396767670E-04 -0.42412501024E-02  0.35893599758E-01  0.51100000000E-03 0.  1.
         11    1    4    4    0    0 -0.83525580751E-01  0.13476274541E-01  0.18309765232E-01  0.86565820270E-01  0.51100000000E-03 0. -1.
</event>
<event>
 8    1  0.1177602E+005  0.1043930E+01  0.7957747E-01            NaN
         13   -1    0    0    0    0  0.00000000000E+00  0.00000000000E+00  0.74505805969E-08  0.10566000000E+00  0.10566000000E+00 0. -1.
     999900   -1    0    0    0    0 -0.00000000000E+00 -0.00000000000E+00 -0.74505805969E-08  0.93827000000E+00  0.93827000000E+00 0. -1.
     999902    2    1    2    0    0  0.21304144631E-01 -0.16256640909E-02 -0.11582758705E-01  0.10196263035E+01  0.10193366123E+01 0.  0.
     999903    2    3    3    0    0  0.82517952989E-01 -0.88799217984E-01 -0.49629687448E-01  0.13238680509E+00  0.19200172020E-01 0.  0.
         14    1    1    2    0    0 -0.21304144631E-01  0.16256640909E-02  0.11582758705E-01  0.24303696456E-01  0.00000000000E+00 0. -1.
     999901    1    3    3    0    0 -0.61213808357E-01  0.87173553893E-01  0.38046928743E-01  0.88723949846E+00  0.88000000000E+00 0. -1.
        -11    1    4    4    0    0  0.45138653292E-01 -0.56478427727E-01 -0.37739518773E-01  0.81558832862E-01  0.51100000000E-03 0. -1.
         11    1    4    4    0    0  0.37379299697E-01 -0.32320790257E-01 -0.11890168674E-01  0.50827972228E-01  0.51100000000E-03 0.  1.
</event>
<event>
 8    1  0.1177602E+005  0.1043930E+01  0.7957747E-01            NaN
         13   -1    0    0    0    0  0.00000000000E+00  0.00000000000E+00  0.74505805969E-08  0.10566000000E+00  0.10566000000E+00 0. -1.
     999900   -1    0    0    0    0 -0.00000000000E+00 -0.00000000000E+00 -0.74505805969E-08  0.93827000000E+00  0.93827000000E+00 0.  1.
     999902    2    1    2    0    0  0.11104345417E-01  0.19392477503E-01  0.66609810834E-02  0.10206116952E+01  0.10203452793E+01 0.  0.
     999903    2    3    3    0    0  0.23523598012E-01 -0.10022597766E+00  0.76227870082E-01  0.12971194510E+00  0.20393485761E-01 0.  0.
         14    1    1    2    0    0 -0.11104345417E-01 -0.19392477503E-01 -0.66609810834E-02  0.23318304823E-01  0.00000000000E+00 0.  1.
     999901    1    3    3    0    0 -0.12419252595E-01  0.11961845516E+00 -0.69566888998E-01  0.89089975008E+00  0.88000000000E+00 0.  1.
        -11    1    4    4    0    0  0.19032240507E-02 -0.34871049389E-01  0.16746643416E-01  0.38734010043E-01  0.51100000000E-03 0.  1.
         11    1    4    4    0    0  0.21620373961E-01 -0.65354928272E-01  0.59481226665E-01  0.90977935052E-01  0.51100000000E-03 0. -1.
</event>
<event>
 8    1  0.1177602E+005  0.1043930E+01  0.7957747E-01            NaN
         13   -1    0    0    0    0  0.00000000000E+00  0.00000000000E+00  0.74505805969E-08  0.10566000000E+00  0.10566000000E+00 0.  1.
     999900   -1    0    0    0    0 -0.00000000000E+00 -0.00000000000E+00 -0.74505805969E-08  0.93827000000E+00  0.93827000000E+00 0.  1.
     999902    2    1    2    0    0  0.17243556694E-01 -0.13981520047E-01 -0.81558158001E-02  0.10202796198E+01  0.10200054716E+01 0.  0.
     999903    2    3    3    0    0  0.99242652235E-01  0.79208701297E-01 -0.27179785861E-01  0.13136444928E+00  0.19868452140E-01 0.  0.
         14    1    1    2    0    0 -0.17243556694E-01  0.13981520047E-01  0.81558158001E-02  0.23650380159E-01  0.00000000000E+00 0. -1.
     999901    1    3    3    0    0 -0.81999095541E-01 -0.93190221344E-01  0.19023970061E-01  0.88891517057E+00  0.88000000000E+00 0. -1.
        -11    1    4    4    0    0  0.72096617223E-01  0.48994680457E-01 -0.25003253872E-01  0.90685306160E-01  0.51100000000E-03 0.  1.
         11    1    4    4    0    0  0.27146035011E-01  0.30214020840E-01 -0.21765319884E-02  0.40679143116E-01  0.51100000000E-03 0. -1.
</event>
<event>
 8    1  0.1177602E+005  0.1043930E+01  0.7957747E-01            NaN
         13   -1    0    0    0    0  0.00000000000E+00  0.00000000000E+00  0.74505805969E-08  0.10566000000E+00  0.10566000000E+00 0. -1.
     999900   -1    0    0    0    0 -0.00000000000E+00 -0.00000000000E+00 -0.74505805969E-08  0.93827000000E+00  0.93827000000E+00 0.  1.
     999902    2    1    2    0    0  0.78502004504E-02 -0.15408736736E-01 -0.16585186511E-01  0.10199691313E+01  0.10196876510E+01 0.  0.
     999903    2    3    3    0    0  0.23569460536E-01  0.55617023012E-01 -0.11499941031E+00  0.13150015995E+00  0.20461060039E-01 0.  0.
         14    1    1    2    0    0 -0.78502004504E-02  0.15408736736E-01  0.16585186511E-01  0.23960868651E-01  0.00000000000E+00 0.  1.
     999901    1    3    3    0    0 -0.15719260086E-01 -0.71025759748E-01  0.98414223797E-01  0.88846897139E+00  0.88000000000E+00 0. -1.
        -11    1    4    4    0    0  0.13068110625E-01  0.27270831792E-01 -0.78381117680E-01  0.84013894754E-01  0.51100000000E-03 0.  1.
         11    1    4    4    0    0  0.10501349911E-01  0.28346191220E-01 -0.36618292629E-01  0.47486265200E-01  0.51100000000E-03 0. -1.
</event>
<event>
 8    1  0.1177602E+005  0.1043930E+01  0.7957747E-01            NaN
         13   -1    0    0    0    0  0.00000000000E+00  0.00000000000E+00  0.74505805969E-08  0.10566000000E+00  0.10566000000E+00 0.  1.
     999900   -1    0    0    0    0 -0.00000000000E+00 -0.00000000000E+00 -0.74505805969E-08  0.93827000000E+00  0.93827000000E+00 0. -1.
     999902    2    1    2    0    0  0.14434985600E-01 -0.14159162141E-01 -0.12529379336E-01  0.10201426919E+01  0.10198653224E+01 0.  0.
     999903    2    3    3    0    0 -0.27209959275E-01  0.10161367976E+00  0.69764975325E-01  0.12778065033E+00  0.19875135708E-01 0.  0.
         14    1    1    2    0    0 -0.14434985600E-01  0.14159162141E-01  0.12529379336E-01  0.23787308136E-01  0.00000000000E+00 0.  1.
     999901    1    3    3    0    0  0.41644944875E-01 -0.11577284190E+00 -0.82294354661E-01  0.89236204153E+00  0.88000000000E+00 0.  1.
        -11    1    4    4    0    0 -0.80242405377E-02  0.47196320349E-01  0.21197294289E-01  0.52359024980E-01  0.51100000000E-03 0. -1.
         11    1    4    4    0    0 -0.19185718738E-01  0.54417359412E-01  0.48567681036E-01  0.75421625354E-01  0.51100000000E-03 0.  1.
</event>
<event>
 8    1  0.1177602E+005  0.1043930E+01  0.7957747E-01            NaN
         13   -1    0    0    0    0  0.00000000000E+00  0.00000000000E+00  0.74505805969E-08  0.10566000000E+00  0.10566000000E+00 0. -1.
     999900   -1    0    0    0    0 -0.00000000000E+00 -0.00000000000E+00 -0.74505805969E-08  0.93827000000E+00  0.93827000000E+00 0. -1.
     999902    2    1    2    0    0  0.33655859087E-02 -0.17662729971E-02 -0.24673020636E-01  0.10189659291E+01  0.10186600806E+01 0.  0.
     999903    2    3    3    0    0  0.65128046897E-02  0.99789408999E-01 -0.82511277243E-01  0.13123357897E+00  0.20342040306E-01 0.  0.
         14    1    1    2    0    0 -0.33655859087E-02  0.17662729971E-02  0.24673020636E-01  0.24964070904E-01  0.00000000000E+00 0. -1.
     999901    1    3    3    0    0 -0.31472187811E-02 -0.10155568200E+00  0.57838256607E-01  0.88773235013E+00  0.88000000000E+00 0. -1.
        -11    1    4    4    0    0 -0.43897142915E-02  0.38740813227E-01 -0.22934878894E-01  0.45237042255E-01  0.51100000000E-03 0.  1.
         11    1    4    4    0    0  0.10902518981E-01  0.61048595771E-01 -0.59576398349E-01  0.85996536716E-01  0.51100000000E-03 0. -1.
</event>
<event>
 8    1  0.1510963E+005  0.1043930E+01  0.7957747E-01            NaN
         13   -1    0    0    0    0  0.00000000000E+00  0.00000000000E+00  0.74505805969E-08  0.10566000000E+00  0.10566000000E+00 0. -1.
     999900   -1    0    0    0    0 -0.00000000000E+00 -0.00000000000E+00 -0.74505805969E-08  0.93827000000E+00  0.93827000000E+00 0.  1.
     999902    2    1    2    0    0  0.23381907285E-01 -0.40855020490E-02  0.87921968278E-02  0.10186177966E+01  0.10183032495E+01 0.  0.
     999903    2    3    3    0    0  0.89804622888E-01 -0.93817774225E-01 -0.22161199631E-02  0.13149602320E+00  0.20485308836E-01 0.  0.
         14    1    1    2    0    0 -0.23381907285E-01  0.40855020490E-02 -0.87921968278E-02  0.25312203387E-01  0.00000000000E+00 0.  1.
     999901    1    3    3    0    0 -0.66422715603E-01  0.89732272176E-01  0.11008316791E-01  0.88712177341E+00  0.88000000000E+00 0.  1.
        -11    1    4    4    0    0  0.43158970984E-01 -0.45524410847E-01  0.91497786607E-02  0.63396753307E-01  0.51100000000E-03 0.  1.
         11    1    4    4    0    0  0.46645651904E-01 -0.48293363378E-01 -0.11365898624E-01  0.68099269896E-01  0.51100000000E-03 0. -1.
</event>
<event>
 8    1  0.1177602E+005  0.1043930E+01  0.7957747E-01            NaN
         13   -1    0    0    0    0  0.00000000000E+00  0.00000000000E+00  0.74505805969E-08  0.10566000000E+00  0.10566000000E+00 0.  1.
     999900   -1    0    0    0    0 -0.00000000000E+00 -0.00000000000E+00 -0.74505805969E-08  0.93827000000E+00  0.93827000000E+00 0. -1.
     999902    2    1    2    0    0 -0.88811227204E-02 -0.13111715825E-01 -0.18332176836E-01  0.10197048036E+01  0.10194170032E+01 0.  0.
     999903    2    3    3    0    0  0.11679776231E+00 -0.47338539767E-01  0.19854138495E-01  0.12929767634E+00  0.21001134813E-01 0.  0.
         14    1    1    2    0    0  0.88811227204E-02  0.13111715825E-01  0.18332176836E-01  0.24225196392E-01  0.00000000000E+00 0.  1.
     999901    1    3    3    0    0 -0.12567888503E+00  0.34226823942E-01 -0.38186315332E-01  0.89040712727E+00  0.88000000000E+00 0.  1.
        -11    1    4    4    0    0  0.34266358315E-01 -0.17943548095E-01  0.15200208212E-01  0.41562743907E-01  0.51100000000E-03 0. -1.
         11    1    4    4    0    0  0.82531403992E-01 -0.29394991672E-01  0.46539302832E-02  0.87734932429E-01  0.51100000000E-03 0.  1.
</event>
<event>
 8    1  0.1177602E+005  0.1043930E+01  0.7957747E-01            NaN
         13   -1    0    0    0    0  0.00000000000E+00  0.00000000000E+00  0.74505805969E-08  0.10566000000E+00  0.10566000000E+00 0.  1.
     999900   -1    0    0    0    0 -0.00000000000E+00 -0.00000000000E+00 -0.74505805969E-08  0.93827000000E+00  0.93827000000E+00 0. -1.
     999902    2    1    2    0    0  0.12128906633E-01  0.14005121864E-01  0.15812188335E-01  0.10195726784E+01  0.10192816919E+01 0.  0.
     999903    2    3    3    0    0 -0.12061332282E+00 -0.10558201721E-01  0.39695686525E-01  0.12895812777E+00  0.19884715818E-01 0.  0.
         14    1    1    2    0    0 -0.12128906633E-01 -0.14005121864E-01 -0.15812188335E-01  0.24357321579E-01  0.00000000000E+00 0. -1.
     999901    1    3    3    0    0  0.13274222946E+00  0.24563323585E-01 -0.23883498190E-01  0.89061455065E+00  0.88000000000E+00 0. -1.
        -11    1    4    4    0    0 -0.10589291253E+00 -0.94412306455E-02  0.27527678385E-01  0.10982021653E+00  0.51100000000E-03 0.  1.
         11    1    4    4    0    0 -0.14720410296E-01 -0.11169710751E-02  0.12168008141E-01  0.19137911244E-01  0.51100000000E-03 0. -1.
</event>
<event>
 8    1  0.1177602E+005  0.1043930E+01  0.7957747E-01            NaN
         13   -1    0    0    0    0  0.00000000000E+00  0.00000000000E+00  0.74505805969E-08  0.10566000000E+00  0.10566000000E+00 0. -1.
     999900   -1    0    0    0    0 -0.00000000000E+00 -0.00000000000E+00 -0.74505805969E-08  0.93827000000E+00  0.93827000000E+00 0. -1.
     999902    2    1    2    0    0  0.19977138182E-01  0.12071983863E-01  0.41305476663E-02  0.10202259862E+01  0.10199505786E+01 0.  0.
     999903    2    3    3    0    0  0.62457711716E-01  0.51594197168E-01  0.10348940242E+00  0.13273582489E+00  0.18596124920E-01 0.  0.
         14    1    1    2    0    0 -0.19977138182E-01 -0.12071983863E-01 -0.41305476663E-02  0.23704013760E-01  0.00000000000E+00 0. -1.
     999901    1    3    3    0    0 -0.42480573534E-01 -0.39522213305E-01 -0.99358854754E-01  0.88749016135E+00  0.88000000000E+00 0. -1.
        -11    1    4    4    0    0  0.29238150826E-01  0.22071243359E-01  0.61538653432E-01  0.71618965605E-01  0.51100000000E-03 0.  1.
         11    1    4    4    0    0  0.33219560889E-01  0.29522953809E-01  0.41950748989E-01  0.61116859286E-01  0.51100000000E-03 0. -1.
</event>
<event>
 8    1  0.1177602E+005  0.1043930E+01  0.7957747E-01            NaN
         13   -1    0    0    0    0  0.00000000000E+00  0.00000000000E+00  0.74505805969E-08  0.10566000000E+00  0.10566000000E+00 0. -1.
     999900   -1    0    0    0    0 -0.00000000000E+00 -0.00000000000E+00 -0.74505805969E-08  0.93827000000E+00  0.93827000000E+00 0.  1.
     999902    2    1    2    0    0 -0.36835624152E-02  0.22266457810E-01  0.54215960616E-02  0.10207188501E+01  0.10204549052E+01 0.  0.
     999903    2    3    3    0    0 -0.69587964183E-01 -0.10038878897E+00 -0.35488261970E-01  0.12883246933E+00  0.20444918829E-01 0.  0.
         14    1    1    2    0    0  0.36835624152E-02 -0.22266457810E-01 -0.54215960616E-02  0.23211149892E-01  0.00000000000E+00 0. -1.
     999901    1    3    3    0    0  0.65904401768E-01  0.12265524678E+00  0.40909858032E-01  0.89188638078E+00  0.88000000000E+00 0. -1.
        -11    1    4    4    0    0 -0.22087492978E-01 -0.46884855212E-01 -0.93952872610E-02  0.52674277765E-01  0.51100000000E-03 0.  1.
         11    1    4    4    0    0 -0.47500471205E-01 -0.53503933757E-01 -0.26092974709E-01  0.76158191564E-01  0.51100000000E-03 0. -1.
</event>
<event>
 8    1  0.1177602E+005  0.1043930E+01  0.7957747E-01            NaN
         13   -1    0    0    0    0  0.00000000000E+00  0.00000000000E+00  0.74505805969E-08  0.10566000000E+00  0.10566000000E+00 0. -1.
     999900   -1    0    0    0    0 -0.00000000000E+00 -0.00000000000E+00 -0.74505805969E-08  0.93827000000E+00  0.93827000000E+00 0. -1.
     999902    2    1    2    0    0  0.21246721960E-01 -0.90159797899E-02 -0.48558457512E-02  0.10203441923E+01  0.10200715566E+01 0.  0.
     999903    2    3    3    0    0 -0.89937228167E-01  0.88805872782E-01  0.21878135555E-02  0.12794260182E+00  0.19731568137E-01 0.  0.
         14    1    1    2    0    0 -0.21246721960E-01  0.90159797899E-02  0.48558457512E-02  0.23585807672E-01  0.00000000000E+00 0. -1.
     999901    1    3    3    0    0  0.11118395013E+00 -0.97821852572E-01 -0.70436593067E-02  0.89240159051E+00  0.88000000000E+00 0.  1.
        -11    1    4    4    0    0 -0.53384612073E-01  0.65425358501E-01 -0.79074733049E-03  0.84446910800E-01  0.51100000000E-03 0.  1.
         11    1    4    4    0    0 -0.36552616093E-01  0.23380514280E-01  0.29785608860E-02  0.43495691019E-01  0.51100000000E-03 0. -1.
</event>
<event>
 7    1  0.1177602E+005  0.1043930E+01  0.7957747E-01            NaN
         13   -1    0    0    0    0  0.00000000000E+00  0.00000000000E+00  0.74505805969E-08  0.10566000000E+00  0.10566000000E+00 0. -1.
     999900   -1    0    0    0    0 -0.00000000000E+00 -0.00000000000E+00 -0.74505805969E-08  0.93827000000E+00  0.93827000000E+00 0.  1.
     999902    2    1    2    0    0 -0.17249227751E-03 -0.12055793519E-01 -0.21552313518E-01  0.10192343702E+01  0.10189351438E+01 0.  0.
         14    1    1    2    0    0  0.17249227751E-03  0.12055793519E-01  0.21552313518E-01  0.24695629753E-01  0.00000000000E+00 0. -1.
     999901    1    3    3    0    0 -0.85002892661E-01  0.14213060695E-01 -0.10727501128E+00  0.89069379188E+00  0.88000000000E+00 0.  1.
        -11    1    3    3    0    0  0.15671381905E-01  0.36552891399E-02  0.25395000061E-02  0.16299188041E-01  0.51100000000E-03 0. -1.
         11    1    3    3    0    0  0.69159018478E-01 -0.29924143354E-01  0.83183197752E-01  0.11224139032E+00  0.51100000000E-03 0.  1.
</event>
<event>
 8    1  0.1177602E+005  0.1043930E+01  0.7957747E-01            NaN
         13   -1    0    0    0    0  0.00000000000E+00  0.00000000000E+00  0.74505805969E-08  0.10566000000E+00  0.10566000000E+00 0. -1.
     999900   -1    0    0    0    0 -0.00000000000E+00 -0.00000000000E+00 -0.74505805969E-08  0.93827000000E+00  0.93827000000E+00 0. -1.
     999902    2    1    2    0    0 -0.13355393142E-01  0.14930887667E-01 -0.31528266369E-01  0.10065758903E+01  0.10058825445E+01 0.  0.
     999903    2    3    3    0    0 -0.76179892255E-01 -0.32504024548E-01 -0.86214386232E-01  0.12137107766E+00  0.20931567145E-01 0.  0.
         14    1    1    2    0    0  0.13355393142E-01 -0.14930887667E-01  0.31528266369E-01  0.37354109717E-01  0.00000000000E+00 0.  1.
     999901    1    3    3    0    0  0.62824499113E-01  0.47434912215E-01  0.54686119863E-01  0.88520481262E+00  0.88000000000E+00 0.  1.
        -11    1    4    4    0    0 -0.97748019137E-02 -0.75958771423E-02 -0.45290635999E-02  0.13191574588E-01  0.51100000000E-03 0. -1.
         11    1    4    4    0    0 -0.66405090342E-01 -0.24908147406E-01 -0.81685322632E-01  0.10817950307E+00  0.51100000000E-03 0.  1.
</event>
<event>
 8    1  0.1177602E+005  0.1043930E+01  0.7957747E-01            NaN
         13   -1    0    0    0    0  0.00000000000E+00  0.00000000000E+00  0.74505805969E-08  0.10566000000E+00  0.10566000000E+00 0. -1.
     999900   -1    0    0    0    0 -0.00000000000E+00 -0.00000000000E+00 -0.74505805969E-08  0.93827000000E+00  0.93827000000E+00 0.  1.
     999902    2    1    2    0    0  0.21772190826E-01  0.11124647472E-01 -0.12135016980E-02  0.10194502398E+01  0.10191562847E+01 0.  0.
     999903    2    3    3    0    0 -0.84258123711E-01 -0.82795223383E-01  0.42479443540E-01  0.12705321870E+00  0.19584096422E-01 0.  0.
         14    1    1    2    0    0 -0.21772190826E-01 -0.11124647472E-01  0.12135016980E-02  0.24479760234E-01  0.00000000000E+00 0. -1.
     999901    1    3    3    0    0  0.10603031454E+00  0.93919870855E-01 -0.43692945238E-01  0.89239702106E+00  0.88000000000E+00 0.  1.
        -11    1    4    4    0    0 -0.54190655429E-01 -0.53684500500E-01  0.17333664842E-01  0.78226400835E-01  0.51100000000E-03 0. -1.
         11    1    4    4    0    0 -0.30067468282E-01 -0.29110722883E-01  0.25145778698E-01  0.48826817867E-01  0.51100000000E-03 0.  1.
</event>
<event>
 8    1  0.1177602E+005  0.1043930E+01  0.7957747E-01            NaN
         13   -1    0    0    0    0  0.00000000000E+00  0.00000000000E+00  0.74505805969E-08  0.10566000000E+00  0.10566000000E+00 0. -1.
     999900   -1    0    0    0    0 -0.00000000000E+00 -0.00000000000E+00 -0.74505805969E-08  0.93827000000E+00  0.93827000000E+00 0.  1.
     999902    2    1    2    0    0 -0.65848148523E-02  0.87139881089E-02 -0.21462088330E-01  0.10198485837E+01  0.10195642300E+01 0.  0.
     999903    2    3    3    0    0  0.16508288773E-01 -0.10808517173E+00  0.63038360058E-01  0.12781962624E+00  0.20226073961E-01 0.  0.
         14    1    1    2    0    0  0.65848148523E-02 -0.87139881089E-02  0.21462088330E-01  0.24081416297E-01  0.00000000000E+00 0. -1.
     999901    1    3    3    0    0 -0.23093103625E-01  0.11679915984E+00 -0.84500448388E-01  0.89202895746E+00  0.88000000000E+00 0.  1.
        -11    1    4    4    0    0  0.15099101265E-03 -0.55901209447E-01  0.38490984547E-01  0.67873301292E-01  0.51100000000E-03 0. -1.
         11    1    4    4    0    0  0.16357297760E-01 -0.52183962281E-01  0.24547375511E-01  0.59946324948E-01  0.51100000000E-03 0.  1.
</event>
<event>
 8    1  0.1177602E+005  0.1043930E+01  0.7957747E-01            NaN
         13   -1    0    0    0    0  0.00000000000E+00  0.00000000000E+00  0.74505805969E-08  0.10566000000E+00  0.10566000000E+00 0.  1.
     999900   -1    0    0    0    0 -0.00000000000E+00 -0.00000000000E+00 -0.74505805969E-08  0.93827000000E+00  0.93827000000E+00 0.  1.
     999902    2    1    2    0    0 -0.12774716782E-01 -0.20278131582E-01  0.42412662851E-03  0.10199596873E+01  0.10196779824E+01 0.  0.
     999903    2    3    3    0    0 -0.69080578901E-01 -0.53050177901E-01  0.98911662318E-01  0.13207222152E+00  0.85502631152E-02 0.  0.
         14    1    1    2    0    0  0.12774716782E-01  0.20278131582E-01 -0.42412662851E-03  0.23970312737E-01  0.00000000000E+00 0. -1.
     999901    1    3    3    0    0  0.56305862119E-01  0.32772046319E-01 -0.98487535689E-01  0.88788746574E+00  0.88000000000E+00 0.  1.
        -11    1    4    4    0    0 -0.47341931662E-01 -0.41080293795E-01  0.71939870518E-01  0.95417268474E-01  0.51100000000E-03 0.  1.
         11    1    4    4    0    0 -0.21738647239E-01 -0.11969884106E-01  0.26971791799E-01  0.36654953051E-01  0.51100000000E-03 0. -1.
</event>
<event>
 8    1  0.1177602E+005  0.1043930E+01  0.7957747E-01            NaN
         13   -1    0    0    0    0  0.00000000000E+00  0.00000000000E+00  0.74505805969E-08  0.10566000000E+00  0.10566000000E+00 0. -1.
     999900   -1    0    0    0    0 -0.00000000000E+00 -0.00000000000E+00 -0.74505805969E-08  0.93827000000E+00  0.93827000000E+00 0. -1.
     999902    2    1    2    0    0 -0.13039702328E-02  0.23169457628E-01 -0.46857313655E-02  0.10202555373E+01  0.10199808240E+01 0.  0.
     999903    2    3    3    0    0 -0.72440330356E-01 -0.92040500788E-02 -0.10712405106E+00  0.13087258544E+00  0.17881703113E-01 0.  0.
         14    1    1    2    0    0  0.13039702328E-02 -0.23169457628E-01  0.46857313655E-02  0.23674462688E-01  0.00000000000E+00 0.  1.
     999901    1    3    3    0    0  0.71136360123E-01  0.32373507707E-01  0.10243831969E+00  0.88938295187E+00  0.88000000000E+00 0.  1.
        -11    1    4    4    0    0 -0.60045779964E-01 -0.73277900890E-02 -0.74807614101E-01  0.96206197553E-01  0.51100000000E-03 0.  1.
         11    1    4    4    0    0 -0.12394550392E-01 -0.18762599898E-02 -0.32316436955E-01  0.34666387891E-01  0.51100000000E-03 0. -1.
</event>
<event>
 8    1  0.1177602E+005  0.1043930E+01  0.7957747E-01            NaN
         13   -1    0    0    0    0  0.00000000000E+00  0.00000000000E+00  0.74505805969E-08  0.10566000000E+00  0.10566000000E+00 0.  1.
     999900   -1    0    0    0    0 -0.00000000000E+00 -0.00000000000E+00 -0.74505805969E-08  0.93827000000E+00  0.93827000000E+00 0. -1.
     999902    2    1    2    0    0  0.93520376502E-02 -0.22354941888E-01  0.23380136498E-02  0.10195851783E+01  0.10192944940E+01 0.  0.
     999903    2    3    3    0    0 -0.55301688742E-01 -0.94957885252E-01 -0.69112768338E-01  0.13135294181E+00  0.20043548224E-01 0.  0.
         14    1    1    2    0    0 -0.93520376502E-02  0.22354941888E-01 -0.23380136498E-02  0.24344821685E-01  0.00000000000E+00 0.  1.
     999901    1    3    3    0    0  0.64653726392E-01  0.72602943364E-01  0.71450781987E-01  0.88823223651E+00  0.88000000000E+00 0.  1.
        -11    1    4    4    0    0 -0.15401906847E-02 -0.62331028525E-02 -0.10159905581E-01  0.12029487143E-01  0.51100000000E-03 0. -1.
         11    1    4    4    0    0 -0.53761498057E-01 -0.88724782400E-01 -0.58952862757E-01  0.11932345467E+00  0.51100000000E-03 0.  1.
</event>
<event>
 7    1  0.1248067E+005  0.1043930E+01  0.7957747E-01            NaN
         13   -1    0    0    0    0  0.00000000000E+00  0.00000000000E+00  0.74505805969E-08  0.10566000000E+00  0.10566000000E+00 0. -1.
     999900   -1    0    0    0    0 -0.00000000000E+00 -0.00000000000E+00 -0.74505805969E-08  0.93827000000E+00  0.93827000000E+00 0. -1.
     999903    2    1    2    0    0  0.53413812878E-01  0.24476816013E-01 -0.60564756041E-01  0.86721676399E-01  0.20010236254E-01 0.  0.
         14    1    1    2    0    0  0.37548199076E-01 -0.40423790595E-01 -0.37868470021E-01  0.66917644322E-01  0.00000000000E+00 0.  1.
     999901    1    1    2    0    0 -0.90962011954E-01  0.15946974582E-01  0.98433226061E-01  0.89029067928E+00  0.88000000000E+00 0.  1.
        -11    1    3    3    0    0  0.25124439938E-01  0.13961191841E-01 -0.16010294430E-01  0.32905060531E-01  0.51100000000E-03 0.  1.
         11    1    3    3    0    0  0.28289372940E-01  0.10515624172E-01 -0.44554461611E-01  0.53816615868E-01  0.51100000000E-03 0. -1.
</event>
<event>
 8    1  0.1177602E+005  0.1043930E+01  0.7957747E-01            NaN
         13   -1    0    0    0    0  0.00000000000E+00  0.00000000000E+00  0.74505805969E-08  0.10566000000E+00  0.10566000000E+00 0.  1.
     999900   -1    0    0    0    0 -0.00000000000E+00 -0.00000000000E+00 -0.74505805969E-08  0.93827000000E+00  0.93827000000E+00 0.  1.
     999902    2    1    2    0    0  0.19737564868E-01 -0.29500431650E-02  0.50380101453E-02  0.10233471001E+01  0.10231400840E+01 0.  0.
     999903    2    3    3    0    0  0.90403413632E-01 -0.89490060881E-01 -0.40833802909E-01  0.13509766438E+00  0.20068165532E-01 0.  0.
         14    1    1    2    0    0 -0.19737564868E-01  0.29500431650E-02 -0.50380101453E-02  0.20582899888E-01  0.00000000000E+00 0.  1.
     999901    1    3    3    0    0 -0.70665848764E-01  0.86540017716E-01  0.45871813055E-01  0.88824943573E+00  0.88000000000E+00 0. -1.
        -11    1    4    4    0    0  0.29521773669E-01 -0.20024974973E-01 -0.17939137468E-01  0.39932549597E-01  0.51100000000E-03 0.  1.
         11    1    4    4    0    0  0.60881639963E-01 -0.69465085907E-01 -0.22894665442E-01  0.95165114781E-01  0.51100000000E-03 0. -1.
</event>
<event>
 8    1  0.1177602E+005  0.1043930E+01  0.7957747E-01            NaN
         13   -1    0    0    0    0  0.00000000000E+00  0.00000000000E+00  0.74505805969E-08  0.10566000000E+00  0.10566000000E+00 0.  1.
     999900   -1    0    0    0    0 -0.00000000000E+00 -0.00000000000E+00 -0.74505805969E-08  0.93827000000E+00  0.93827000000E+00 0. -1.
     999902    2    1    2    0    0 -0.16126514366E-01 -0.12063672363E-01 -0.11246132135E-01  0.10208633109E+01  0.10206026786E+01 0.  0.
     999903    2    3    3    0    0 -0.11366028660E+00 -0.40396887826E-01  0.51569052070E-01  0.13279723502E+00  0.20619631448E-01 0.  0.
         14    1    1    2    0    0  0.16126514366E-01  0.12063672363E-01  0.11246132135E-01  0.23066689066E-01  0.00000000000E+00 0.  1.
     999901    1    3    3    0    0  0.97533772235E-01  0.28333215463E-01 -0.62815184205E-01  0.88806607592E+00  0.88000000000E+00 0.  1.
        -11    1    4    4    0    0 -0.44270875897E-01 -0.16118677242E-01  0.93982051738E-02  0.48044870592E-01  0.51100000000E-03 0. -1.
         11    1    4    4    0    0 -0.69389410704E-01 -0.24278210584E-01  0.42170846896E-01  0.84752364427E-01  0.51100000000E-03 0.  1.
</event>
<event>
 8    1  0.1177602E+005  0.1043930E+01  0.7957747E-01            NaN
         13   -1    0    0    0    0  0.00000000000E+00  0.00000000000E+00  0.74505805969E-08  0.10566000000E+00  0.10566000000E+00 0.  1.
     999900   -1    0    0    0    0 -0.00000000000E+00 -0.00000000000E+00 -0.74505805969E-08  0.93827000000E+00  0.93827000000E+00 0. -1.
     999902    2    1    2    0    0  0.27883016613E-02  0.22803852468E-01  0.72898530274E-02  0.10198274634E+01  0.10195426047E+01 0.  0.
     999903    2    3    3    0    0 -0.53063079145E-01 -0.30993972514E-01 -0.11162222635E+00  0.12845006558E+00  0.16235185019E-01 0.  0.
         14    1    1    2    0    0 -0.27883016613E-02 -0.22803852468E-01 -0.72898530274E-02  0.24102536603E-01  0.00000000000E+00 0. -1.
     999901    1    3    3    0    0  0.55851380806E-01  0.53797824982E-01  0.11891207938E+00  0.89137739781E+00  0.88000000000E+00 0.  1.
        -11    1    4    4    0    0 -0.22724617832E-01 -0.47685793055E-02 -0.35785508746E-01  0.42661591173E-01  0.51100000000E-03 0.  1.
         11    1    4    4    0    0 -0.30338461313E-01 -0.26225393209E-01 -0.75836717604E-01  0.85788474411E-01  0.51100000000E-03 0. -1.
</event>
<event>
 8    1  0.1177602E+005  0.1043930E+01  0.7957747E-01            NaN
         13   -1    0    0    0    0  0.00000000000E+00  0.00000000000E+00  0.74505805969E-08  0.10566000000E+00  0.10566000000E+00 0. -1.
     999900   -1    0    0    0    0 -0.00000000000E+00 -0.00000000000E+00 -0.74505805969E-08  0.93827000000E+00  0.93827000000E+00 0.  1.
     999902    2    1    2    0    0  0.65746635536E-02 -0.26352718122E-01 -0.12668518839E-02  0.10167399859E+01  0.10163763585E+01 0.  0.
     999903    2    3    3    0    0  0.22933285287E-01 -0.10662137745E+00  0.68472578842E-01  0.13018809775E+00  0.19141395950E-01 0.  0.
         14    1    1    2    0    0 -0.65746635536E-02  0.26352718122E-01  0.12668518839E-02  0.27190014104E-01  0.00000000000E+00 0. -1.
     999901    1    3    3    0    0 -0.16358621734E-01  0.80268659330E-01 -0.69739430726E-01  0.88655188815E+00  0.88000000000E+00 0.  1.
        -11    1    4    4    0    0 -0.99494150941E-03 -0.22834130168E-01  0.20555804133E-01  0.30743936210E-01  0.51100000000E-03 0. -1.
         11    1    4    4    0    0  0.23928226797E-01 -0.83787247284E-01  0.47916774709E-01  0.99444161541E-01  0.51100000000E-03 0.  1.
</event>
<event>
 8    1  0.1177602E+005  0.1043930E+01  0.7957747E-01            NaN
         13   -1    0    0    0    0  0.00000000000E+00  0.00000000000E+00  0.74505805969E-08  0.10566000000E+00  0.10566000000E+00 0. -1.
     999900   -1    0    0    0    0 -0.00000000000E+00 -0.00000000000E+00 -0.74505805969E-08  0.93827000000E+00  0.93827000000E+00 0. -1.
     999902    2    1    2    0    0  0.23531307210E-01 -0.34652644739E-02 -0.45423832502E-02  0.10197150517E+01  0.10194274976E+01 0.  0.
     999903    2    3    3    0    0 -0.25839669050E-01 -0.48539776524E-01 -0.11629401153E+00  0.13013221047E+00  0.19654431660E-01 0.  0.
         14    1    1    2    0    0 -0.23531307210E-01  0.34652644739E-02  0.45423832502E-02  0.24214948327E-01  0.00000000000E+00 0. -1.
     999901    1    3    3    0    0  0.49370976260E-01  0.45074512050E-01  0.11175162828E+00  0.88958284120E+00  0.88000000000E+00 0.  1.
        -11    1    4    4    0    0 -0.12434896892E-01 -0.29861881142E-01 -0.46495988141E-01  0.56643593108E-01  0.51100000000E-03 0.  1.
         11    1    4    4    0    0 -0.13404772158E-01 -0.18677895383E-01 -0.69798023387E-01  0.73488617366E-01  0.51100000000E-03 0. -1.
</event>
<event>
 8    1  0.1177602E+005  0.1043930E+01  0.7957747E-01            NaN
         13   -1    0    0    0    0  0.00000000000E+00  0.00000000000E+00  0.74505805969E-08  0.10566000000E+00  0.10566000000E+00 0. -1.
     999900   -1    0    0    0    0 -0.00000000000E+00 -0.00000000000E+00 -0.74505805969E-08  0.93827000000E+00  0.93827000000E+00 0.  1.
     999902    2    1    2    0    0  0.15459554246E-01 -0.16721009984E-01 -0.45858996476E-02  0.10207002676E+01  0.10204358950E+01 0.  0.
     999903    2    3    3    0    0  0.47484967539E-02  0.50966483663E-01 -0.11859198077E+00  0.13070380126E+00  0.19982369270E-01 0.  0.
         14    1    1    2    0    0 -0.15459554246E-01  0.16721009984E-01  0.45858996476E-02  0.23229732413E-01  0.00000000000E+00 0.  1.
     999901    1    3    3    0    0  0.10711057492E-01 -0.67687493647E-01  0.11400608112E+00  0.88999646633E+00  0.88000000000E+00 0. -1.
        -11    1    4    4    0    0 -0.62761700288E-02  0.30472730467E-01 -0.58490514033E-01  0.66252388373E-01  0.51100000000E-03 0. -1.
         11    1    4    4    0    0  0.11024666783E-01  0.20493753196E-01 -0.60101466736E-01  0.64451412883E-01  0.51100000000E-03 0.  1.
</event>
<event>
 8    1  0.1177602E+005  0.1043930E+01  0.7957747E-01            NaN
         13   -1    0    0    0    0  0.00000000000E+00  0.00000000000E+00  0.74505805969E-08  0.10566000000E+00  0.10566000000E+00 0.  1.
     999900   -1    0    0    0    0 -0.00000000000E+00 -0.00000000000E+00 -0.74505805969E-08  0.93827000000E+00  0.93827000000E+00 0. -1.
     999902    2    1    2    0    0  0.18005614515E-01  0.15115491832E-01  0.66075293852E-03  0.10204115638E+01  0.10201405014E+01 0.  0.
     999903    2    3    3    0    0  0.40313254288E-01  0.99294799475E-01  0.75781191939E-01  0.13292811776E+00  0.21035202973E-01 0.  0.
         14    1    1    2    0    0 -0.18005614515E-01 -0.15115491832E-01 -0.66075293852E-03  0.23518436211E-01  0.00000000000E+00 0. -1.
     999901    1    3    3    0    0 -0.22307639772E-01 -0.84179307644E-01 -0.75120439001E-01  0.88748344603E+00  0.88000000000E+00 0. -1.
        -11    1    4    4    0    0  0.58005417548E-02  0.41396437142E-01  0.29280286775E-01  0.51038295498E-01  0.51100000000E-03 0. -1.
         11    1    4    4    0    0  0.34512712533E-01  0.57898362333E-01  0.46500905164E-01  0.81889822257E-01  0.51100000000E-03 0.  1.
</event>
<event>
 8    1  0.1177602E+005  0.1043930E+01  0.7957747E-01            NaN
         13   -1    0    0    0    0  0.00000000000E+00  0.00000000000E+00  0.74505805969E-08  0.10566000000E+00  0.10566000000E+00 0.  1.
     999900   -1    0    0    0    0 -0.00000000000E+00 -0.00000000000E+00 -0.74505805969E-08  0.93827000000E+00  0.93827000000E+00 0. -1.
     999902    2    1    2    0    0 -0.18828083742E-01  0.92120011338E-02  0.95651527075E-02  0.10208898210E+01  0.10206297942E+01 0.  0.
     999903    2    3    3    0    0 -0.26684745687E-01 -0.63914873704E-01 -0.10817046431E+00  0.13000770619E+00  0.20098944909E-01 0.  0.
         14    1    1    2    0    0  0.18828083742E-01 -0.92120011338E-02 -0.95651527075E-02  0.23040179006E-01  0.00000000000E+00 0. -1.
     999901    1    3    3    0    0  0.78566619449E-02  0.73126874838E-01  0.11773561702E+00  0.89088211480E+00  0.88000000000E+00 0.  1.
        -11    1    4    4    0    0 -0.54275185520E-02 -0.33698614445E-01 -0.41045793881E-01  0.53386073928E-01  0.51100000000E-03 0.  1.
         11    1    4    4    0    0 -0.21257227135E-01 -0.30216259260E-01 -0.67124670432E-01  0.76621632264E-01  0.51100000000E-03 0. -1.
</event>
<event>
 8    1  0.1177602E+005  0.1043930E+01  0.7957747E-01            NaN
         13   -1    0    0    0    0  0.00000000000E+00  0.00000000000E+00  0.74505805969E-08  0.10566000000E+00  0.10566000000E+00 0.  1.
     999900   -1    0    0    0    0 -0.00000000000E+00 -0.00000000000E+00 -0.74505805969E-08  0.93827000000E+00  0.93827000000E+00 0. -1.
     999902    2    1    2    0    0  0.19649521232E-01 -0.12074928649E-01 -0.62279848889E-02  0.10200407685E+01  0.10197609887E+01 0.  0.
     999903    2    3    3    0    0 -0.24937388565E-01  0.10384247169E+00 -0.69715480483E-01  0.12905507931E+00  0.19744189053E-01 0.  0.
         14    1    1    2    0    0 -0.19649521232E-01  0.12074928649E-01  0.62279848889E-02  0.23889231513E-01  0.00000000000E+00 0. -1.
     999901    1    3    3    0    0  0.44586909797E-01 -0.11591740034E+00  0.63487495594E-01  0.89098568918E+00  0.88000000000E+00 0.  1.
        -11    1    4    4    0    0 -0.25268420145E-01  0.81597463565E-01 -0.61811087756E-01  0.10543960739E+00  0.51100000000E-03 0.  1.
         11    1    4    4    0    0  0.33103157960E-03  0.22245008123E-01 -0.79043927266E-02  0.23615471913E-01  0.51100000000E-03 0. -1.
</event>
<event>
 8    1  0.1177602E+005  0.1043930E+01  0.7957747E-01            NaN
         13   -1    0    0    0    0  0.00000000000E+00  0.00000000000E+00  0.74505805969E-08  0.10566000000E+00  0.10566000000E+00 0. -1.
     999900   -1    0    0    0    0 -0.00000000000E+00 -0.00000000000E+00 -0.74505805969E-08  0.93827000000E+00  0.93827000000E+00 0.  1.
     999902    2    1    2    0    0 -0.56979605716E-02  0.10403487030E-01  0.20702744998E-01  0.10200699299E+01  0.10197908407E+01 0.  0.
     999903    2    3    3    0    0 -0.72838356621E-01 -0.14238505834E-02  0.10841730084E+00  0.13308539673E+00  0.25494276919E-01 0.  0.
         14    1    1    2    0    0  0.56979605716E-02 -0.10403487030E-01 -0.20702744998E-01  0.23860070148E-01  0.00000000000E+00 0.  1.
     999901    1    3    3    0    0  0.67140396050E-01  0.11827337613E-01 -0.87714555838E-01  0.88698453312E+00  0.88000000000E+00 0.  1.
        -11    1    4    4    0    0 -0.35906740129E-01  0.11957549821E-01  0.50784204128E-01  0.63336983621E-01  0.51100000000E-03 0.  1.
         11    1    4    4    0    0 -0.36931616493E-01 -0.13381400404E-01  0.57633096708E-01  0.69748413105E-01  0.51100000000E-03 0. -1.
</event>
<event>
 8    1  0.1177602E+005  0.1043930E+01  0.7957747E-01            NaN
         13   -1    0    0    0    0  0.00000000000E+00  0.00000000000E+00  0.74505805969E-08  0.10566000000E+00  0.10566000000E+00 0.  1.
     999900   -1    0    0    0    0 -0.00000000000E+00 -0.00000000000E+00 -0.74505805969E-08  0.93827000000E+00  0.93827000000E+00 0. -1.
     999902    2    1    2    0    0 -0.18650942285E-01  0.97268379780E-02 -0.10336528806E-01  0.10204925758E+01  0.10202233993E+01 0.  0.
     999903    2    3    3    0    0 -0.97672006645E-01  0.80499264550E-01 -0.38371810084E-01  0.13367859194E+00  0.19432386877E-01 0.  0.
         14    1    1    2    0    0  0.18650942285E-01 -0.97268379780E-02  0.10336528806E-01  0.23437424195E-01  0.00000000000E+00 0. -1.
     999901    1    3    3    0    0  0.79021064360E-01 -0.70772426572E-01  0.28035281278E-01  0.88681398386E+00  0.88000000000E+00 0.  1.
        -11    1    4    4    0    0 -0.43053355172E-01  0.31458675547E-01 -0.67453173204E-02  0.53749419397E-01  0.51100000000E-03 0.  1.
         11    1    4    4    0    0 -0.54618651473E-01  0.49040589003E-01 -0.31626492764E-01  0.79929172547E-01  0.51100000000E-03 0. -1.
</event>
<event>
 8    1  0.1177602E+005  0.1043930E+01  0.7957747E-01            NaN
         13   -1    0    0    0    0  0.00000000000E+00  0.00000000000E+00  0.74505805969E-08  0.10566000000E+00  0.10566000000E+00 0. -1.
     999900   -1    0    0    0    0 -0.00000000000E+00 -0.00000000000E+00 -0.74505805969E-08  0.93827000000E+00  0.93827000000E+00 0.  1.
     999902    2    1    2    0    0 -0.37645917012E-04  0.23829660350E-01 -0.28193850790E-03  0.10200986421E+01  0.10198202322E+01 0.  0.
     999903    2    3    3    0    0  0.29059786965E-01  0.12443973166E+00  0.31815652367E-01  0.13330706435E+00  0.20707960643E-01 0.  0.
         14    1    1    2    0    0  0.37645917012E-04 -0.23829660350E-01  0.28193850790E-03  0.23831357891E-01  0.00000000000E+00 0. -1.
     999901    1    3    3    0    0 -0.29097432882E-01 -0.10061007132E+00 -0.32097590875E-01  0.88679157776E+00  0.88000000000E+00 0. -1.
        -11    1    4    4    0    0  0.23263739592E-01  0.99679715932E-01  0.33798497464E-01  0.10779539369E+00  0.51100000000E-03 0.  1.
         11    1    4    4    0    0  0.57960473726E-02  0.24760015732E-01 -0.19828450966E-02  0.25511670661E-01  0.51100000000E-03 0. -1.
</event>
<event>
 8    1  0.1177602E+005  0.1043930E+01  0.7957747E-01            NaN
         13   -1    0    0    0    0  0.00000000000E+00  0.00000000000E+00  0.74505805969E-08  0.10566000000E+00  0.10566000000E+00 0.  1.
     999900   -1    0    0    0    0 -0.00000000000E+00 -0.00000000000E+00 -0.74505805969E-08  0.93827000000E+00  0.93827000000E+00 0. -1.
     999902    2    1    2    0    0 -0.50162828419E-02 -0.17417760098E-01 -0.89870669082E-03  0.10257820212E+01  0.10256214730E+01 0.  0.
     999903    2    3    3    0    0 -0.80434107104E-01  0.66708362434E-01  0.83317975758E-01  0.13457076550E+00  0.15740223571E-01 0.  0.
         14    1    1    2    0    0  0.50162828419E-02  0.17417760098E-01  0.89870669082E-03  0.18147978788E-01  0.00000000000E+00 0. -1.
     999901    1    3    3    0    0  0.75417824262E-01 -0.84126122532E-01 -0.84216682449E-01  0.89121125571E+00  0.88000000000E+00 0. -1.
        -11    1    4    4    0    0 -0.58343348700E-01  0.38963105202E-01  0.53423786307E-01  0.88184080019E-01  0.51100000000E-03 0.  1.
         11    1    4    4    0    0 -0.22090758403E-01  0.27745257232E-01  0.29894189451E-01  0.46386685478E-01  0.51100000000E-03 0. -1.
</event>
<event>
 8    1  0.1177602E+005  0.1043930E+01  0.7957747E-01            NaN
         13   -1    0    0    0    0  0.00000000000E+00  0.00000000000E+00  0.74505805969E-08  0.10566000000E+00  0.10566000000E+00 0.  1.
     999900   -1    0    0    0    0 -0.00000000000E+00 -0.00000000000E+00 -0.74505805969E-08  0.93827000000E+00  0.93827000000E+00 0.  1.
     999902    2    1    2    0    0 -0.14081996096E-02  0.16296124173E-01 -0.16901125226E-01  0.10204099081E+01  0.10201388071E+01 0.  0.
     999903    2    3    3    0    0 -0.12745075063E+00 -0.15706815419E-01 -0.14813381578E-01  0.13085087606E+00  0.20300679920E-01 0.  0.
         14    1    1    2    0    0  0.14081996096E-02 -0.16296124173E-01  0.16901125226E-01  0.23520091903E-01  0.00000000000E+00 0.  1.
     999901    1    3    3    0    0  0.12604255102E+00  0.32002939592E-01 -0.20877436480E-02  0.88955903204E+00  0.88000000000E+00 0.  1.
        -11    1    4    4    0    0 -0.25686126187E-01 -0.86906718431E-02 -0.93844814244E-02  0.28699032531E-01  0.51100000000E-03 0. -1.
         11    1    4    4    0    0 -0.10176462444E+00 -0.70161435763E-02 -0.54289001537E-02  0.10215184353E+00  0.51100000000E-03 0.  1.
</event>
<event>
 8    1  0.1177602E+005  0.1043930E+01  0.7957747E-01            NaN
         13   -1    0    0    0    0  0.00000000000E+00  0.00000000000E+00  0.74505805969E-08  0.10566000000E+00  0.10566000000E+00 0. -1.
     999900   -1    0    0    0    0 -0.00000000000E+00 -0.00000000000E+00 -0.74505805969E-08  0.93827000000E+00  0.93827000000E+00 0. -1.
     999902    2    1    2    0    0  0.15536996724E-01 -0.67026727636E-02 -0.15127953378E-01  0.10212324437E+01  0.10209801785E+01 0.  0.
     999903    2    3    3    0    0  0.88716686693E-01  0.58876641935E-01  0.74087555084E-01  0.13128001771E+00  0.20208111460E-01 0.  0.
         14    1    1    2    0    0 -0.15536996724E-01  0.67026727636E-02  0.15127953378E-01  0.22697556317E-01  0.00000000000E+00 0. -1.
     999901    1    3    3    0    0 -0.73179689969E-01 -0.65579314699E-01 -0.89215508462E-01  0.88995242597E+00  0.88000000000E+00 0. -1.
        -11    1    4    4    0    0  0.31503000457E-01  0.32437776237E-01  0.34093413756E-01  0.56632767437E-01  0.51100000000E-03 0.  1.
         11    1    4    4    0    0  0.57213686236E-01  0.26438865699E-01  0.39994141328E-01  0.74647250275E-01  0.51100000000E-03 0. -1.
</event>
<event>
 8    1  0.1177602E+005  0.1043930E+01  0.7957747E-01            NaN
         13   -1    0    0    0    0  0.00000000000E+00  0.00000000000E+00  0.74505805969E-08  0.10566000000E+00  0.10566000000E+00 0. -1.
     999900   -1    0    0    0    0 -0.00000000000E+00 -0.00000000000E+00 -0.74505805969E-08  0.93827000000E+00  0.93827000000E+00 0. -1.
     999902    2    1    2    0    0 -0.10098081184E-01 -0.14775755331E-01  0.14891065029E-01  0.10206482903E+01  0.10203827196E+01 0.  0.
     999903    2    3    3    0    0 -0.20843302880E-01 -0.16528497109E-01 -0.12520533557E+00  0.12949985521E+00  0.19652021610E-01 0.  0.
         14    1    1    2    0    0  0.10098081184E-01  0.14775755331E-01 -0.14891065029E-01  0.23281709707E-01  0.00000000000E+00 0.  1.
     999901    1    3    3    0    0  0.10745221695E-01  0.17527417787E-02  0.14009640059E+00  0.89114843508E+00  0.88000000000E+00 0.  1.
        -11    1    4    4    0    0 -0.24232820143E-01 -0.11921556005E-01 -0.95596912040E-01  0.99339739189E-01  0.51100000000E-03 0.  1.
         11    1    4    4    0    0  0.33895172636E-02 -0.46069411045E-02 -0.29608423526E-01  0.30160116019E-01  0.51100000000E-03 0. -1.
</event>
<event>
 8    1  0.1177602E+005  0.1043930E+01  0.7957747E-01            NaN
         13   -1    0    0    0    0  0.00000000000E+00  0.00000000000E+00  0.74505805969E-08  0.10566000000E+00  0.10566000000E+00 0. -1.
     999900   -1    0    0    0    0 -0.00000000000E+00 -0.00000000000E+00 -0.74505805969E-08  0.93827000000E+00  0.93827000000E+00 0. -1.
     999902    2    1    2    0    0  0.17456431027E-01  0.43710571270E-02 -0.15132826423E-01  0.10204175446E+01  0.10201466217E+01 0.  0.
     999903    2    3    3    0    0 -0.11325581063E+00 -0.57054813322E-01  0.38660661737E-02  0.12844232878E+00  0.20008872766E-01 0.  0.
         14    1    1    2    0    0 -0.17456431027E-01 -0.43710571270E-02  0.15132826423E-01  0.23512455426E-01  0.00000000000E+00 0. -1.
     999901    1    3    3    0    0  0.13071224166E+00  0.61425870449E-01 -0.18998892597E-01  0.89197521580E+00  0.88000000000E+00 0.  1.
        -11    1    4    4    0    0 -0.28880261428E-01 -0.19262703831E-01 -0.67897510238E-02  0.35376307029E-01  0.51100000000E-03 0. -1.
         11    1    4    4    0    0 -0.84375549200E-01 -0.37792109490E-01  0.10655817198E-01  0.93066021747E-01  0.51100000000E-03 0.  1.
</event>
<event>
 8    1  0.1177602E+005  0.1043930E+01  0.7957747E-01            NaN
         13   -1    0    0    0    0  0.00000000000E+00  0.00000000000E+00  0.74505805969E-08  0.10566000000E+00  0.10566000000E+00 0.  1.
     999900   -1    0    0    0    0 -0.00000000000E+00 -0.00000000000E+00 -0.74505805969E-08  0.93827000000E+00  0.93827000000E+00 0.  1.
     999902    2    1    2    0    0 -0.14243144500E-01  0.18998130792E-01 -0.52775047720E-02  0.10196061805E+01  0.10193160036E+01 0.  0.
     999903    2    3    3    0    0 -0.57416858946E-01  0.62515872915E-01  0.98104975427E-01  0.13143632021E+00  0.21118475551E-01 0.  0.
         14    1    1    2    0    0  0.14243144500E-01 -0.18998130792E-01  0.52775047720E-02  0.24323819508E-01  0.00000000000E+00 0.  1.
     999901    1    3    3    0    0  0.43173714445E-01 -0.43517742122E-01 -0.10338248020E+00  0.88816986028E+00  0.88000000000E+00 0.  1.
        -11    1    4    4    0    0 -0.38310094307E-01  0.26180265975E-01  0.53013446915E-01  0.70453930531E-01  0.51100000000E-03 0.  1.
         11    1    4    4    0    0 -0.19106764638E-01  0.36335606939E-01  0.45091528512E-01  0.60982389680E-01  0.51100000000E-03 0. -1.
</event>
<event>
 8    1  0.1177602E+005  0.1043930E+01  0.7957747E-01            NaN
         13   -1    0    0    0    0  0.00000000000E+00  0.00000000000E+00  0.74505805969E-08  0.10566000000E+00  0.10566000000E+00 0. -1.
     999900   -1    0    0    0    0 -0.00000000000E+00 -0.00000000000E+00 -0.74505805969E-08  0.93827000000E+00  0.93827000000E+00 0.  1.
     999902    2    1    2    0    0 -0.45975345806E-02 -0.24209453093E-01 -0.98102308634E-03  0.10192683425E+01  0.10189699489E+01 0.  0.
     999903    2    3    3    0    0 -0.99455806082E-01 -0.46402789743E-01  0.69001144065E-01  0.13113088718E+00  0.19735131892E-01 0.  0.
         14    1    1    2    0    0  0.45975345806E-02  0.24209453093E-01  0.98102308634E-03  0.24661657478E-01  0.00000000000E+00 0. -1.
     999901    1    3    3    0    0  0.94858271501E-01  0.22193336650E-01 -0.69982167151E-01  0.88813745534E+00  0.88000000000E+00 0. -1.
        -11    1    4    4    0    0 -0.75337429804E-01 -0.40662225438E-01  0.45433737448E-01  0.96920743531E-01  0.51100000000E-03 0. -1.
         11    1    4    4    0    0 -0.24118376278E-01 -0.57405643052E-02  0.23567406616E-01  0.34210143648E-01  0.51100000000E-03 0.  1.
</event>
<event>
 8    1  0.1177602E+005  0.1043930E+01  0.7957747E-01            NaN
         13   -1    0    0    0    0  0.00000000000E+00  0.00000000000E+00  0.74505805969E-08  0.10566000000E+00  0.10566000000E+00 0.  1.
     999900   -1    0    0    0    0 -0.00000000000E+00 -0.00000000000E+00 -0.74505805969E-08  0.93827000000E+00  0.93827000000E+00 0.  1.
     999902    2    1    2    0    0  0.16697591289E-01 -0.94348975638E-02 -0.14648008715E-01  0.10197972213E+01  0.10195116388E+01 0.  0.
     999903    2    3    3    0    0 -0.12612281337E+00  0.36830481290E-02 -0.11491903542E-01  0.12818087475E+00  0.19435635031E-01 0.  0.
         14    1    1    2    0    0 -0.16697591289E-01  0.94348975638E-02  0.14648008715E-01  0.24132778667E-01  0.00000000000E+00 0.  1.
     999901    1    3    3    0    0  0.14282040466E+00 -0.13117945693E-01 -0.31561051735E-02  0.89161634658E+00  0.88000000000E+00 0.  1.
        -11    1    4    4    0    0 -0.74439162431E-01  0.10954828349E-01 -0.30254431242E-02  0.75303463364E-01  0.51100000000E-03 0. -1.
         11    1    4    4    0    0 -0.51683650942E-01 -0.72717802202E-02 -0.84664604174E-02  0.52877411390E-01  0.51100000000E-03 0.  1.
</event>
<event>
 8    1  0.1177602E+005  0.1043930E+01  0.7957747E-01            NaN
         13   -1    0    0    0    0  0.00000000000E+00  0.00000000000E+00  0.74505805969E-08  0.10566000000E+00  0.10566000000E+00 0.  1.
     999900   -1    0    0    0    0 -0.00000000000E+00 -0.00000000000E+00 -0.74505805969E-08  0.93827000000E+00  0.93827000000E+00 0.  1.
     999902    2    1    2    0    0 -0.21971802891E-01 -0.11906894109E-01  0.55778597491E-02  0.10183243997E+01  0.10180024244E+01 0.  0.
     999903    2    3    3    0    0  0.89483440934E-01 -0.48257306028E-01  0.74678105021E-01  0.12786470505E+00  0.20892813149E-01 0.  0.
         14    1    1    2    0    0  0.21971802891E-01  0.11906894109E-01 -0.55778597491E-02  0.25605600344E-01  0.00000000000E+00 0.  1.
     999901    1    3    3    0    0 -0.11145524382E+00  0.36350411920E-01 -0.69100245272E-01  0.89045969461E+00  0.88000000000E+00 0. -1.
        -11    1    4    4    0    0  0.55464764613E-01 -0.18166881644E-01  0.41393806552E-01  0.71554762554E-01  0.51100000000E-03 0.  1.
         11    1    4    4    0    0  0.34018676320E-01 -0.30090424385E-01  0.33284298469E-01  0.56309942495E-01  0.51100000000E-03 0. -1.
</event>
<event>
 8    1  0.1177602E+005  0.1043930E+01  0.7957747E-01            NaN
         13   -1    0    0    0    0  0.00000000000E+00  0.00000000000E+00  0.74505805969E-08  0.10566000000E+00  0.10566000000E+00 0.  1.
     999900   -1    0    0    0    0 -0.00000000000E+00 -0.00000000000E+00 -0.74505805969E-08  0.93827000000E+00  0.93827000000E+00 0.  1.
     999902    2    1    2    0    0  0.15046126016E-01  0.18869836828E-01 -0.58276568727E-02  0.10191022286E+01  0.10187997517E+01 0.  0.
     999903    2    3    3    0    0  0.30591984268E-01  0.98862030303E-01 -0.80194989063E-01  0.13221389014E+00  0.18431113334E-01 0.  0.
         14    1    1    2    0    0 -0.15046126016E-01 -0.18869836828E-01  0.58276568727E-02  0.24827771439E-01  0.00000000000E+00 0. -1.
     999901    1    3    3    0    0 -0.15545858252E-01 -0.79992193475E-01  0.74367332190E-01  0.88688833842E+00  0.88000000000E+00 0. -1.
        -11    1    4    4    0    0  0.37512166400E-02  0.40108514395E-01 -0.35121022243E-01  0.53446345784E-01  0.51100000000E-03 0. -1.
         11    1    4    4    0    0  0.26840767628E-01  0.58753515908E-01 -0.45073966820E-01  0.78767544358E-01  0.51100000000E-03 0.  1.
</event>
<event>
 8    1  0.1177602E+005  0.1043930E+01  0.7957747E-01            NaN
         13   -1    0    0    0    0  0.00000000000E+00  0.00000000000E+00  0.74505805969E-08  0.10566000000E+00  0.10566000000E+00 0. -1.
     999900   -1    0    0    0    0 -0.00000000000E+00 -0.00000000000E+00 -0.74505805969E-08  0.93827000000E+00  0.93827000000E+00 0.  1.
     999902    2    1    2    0    0 -0.79948459072E-02  0.22104432593E-01 -0.46675864646E-03  0.10204195478E+01  0.10201486716E+01 0.  0.
     999903    2    3    3    0    0 -0.19684252965E-01  0.42091145572E-01 -0.12166786074E+00  0.13181062472E+00  0.20293794683E-01 0.  0.
         14    1    1    2    0    0  0.79948459072E-02 -0.22104432593E-01  0.46675864646E-03  0.23510452250E-01  0.00000000000E+00 0. -1.
     999901    1    3    3    0    0  0.11689407058E-01 -0.19986712979E-01  0.12120110209E+00  0.88860892303E+00  0.88000000000E+00 0. -1.
        -11    1    4    4    0    0 -0.43192385292E-02  0.11035920471E-02 -0.28739308785E-01  0.29087501221E-01  0.51100000000E-03 0.  1.
         11    1    4    4    0    0 -0.15365014436E-01  0.40987553525E-01 -0.92928551956E-01  0.10272312350E+00  0.51100000000E-03 0. -1.
</event>
<event>
 8    1  0.1177602E+005  0.1043930E+01  0.7957747E-01            NaN
         13   -1    0    0    0    0  0.00000000000E+00  0.00000000000E+00  0.74505805969E-08  0.10566000000E+00  0.10566000000E+00 0.  1.
     999900   -1    0    0    0    0 -0.00000000000E+00 -0.00000000000E+00 -0.74505805969E-08  0.93827000000E+00  0.93827000000E+00 0.  1.
     999902    2    1    2    0    0 -0.17441085443E-01 -0.50071697970E-02  0.15105178656E-01  0.10203200522E+01  0.10200468516E+01 0.  0.
     999903    2    3    3    0    0  0.55326809541E-01  0.64498322481E-01  0.97350378497E-01  0.13077497025E+00  0.20097442484E-01 0.  0.
         14    1    1    2    0    0  0.17441085443E-01  0.50071697970E-02 -0.15105178656E-01  0.23609947756E-01  0.00000000000E+00 0.  1.
     999901    1    3    3    0    0 -0.72767894983E-01 -0.69505492278E-01 -0.82245199841E-01  0.88954508199E+00  0.88000000000E+00 0.  1.
        -11    1    4    4    0    0  0.14610206387E-01  0.24750794161E-01  0.45335275474E-01  0.53680613498E-01  0.51100000000E-03 0.  1.
         11    1    4    4    0    0  0.40716603154E-01  0.39747528320E-01  0.52015103024E-01  0.77094356756E-01  0.51100000000E-03 0. -1.
</event>
<event>
 8    1  0.1177602E+005  0.1043930E+01  0.7957747E-01            NaN
         13   -1    0    0    0    0  0.00000000000E+00  0.00000000000E+00  0.74505805969E-08  0.10566000000E+00  0.10566000000E+00 0. -1.
     999900   -1    0    0    0    0 -0.00000000000E+00 -0.00000000000E+00 -0.74505805969E-08  0.93827000000E+00  0.93827000000E+00 0.  1.
     999902    2    1    2    0    0  0.19197668197E-01  0.82952986046E-03  0.13479473395E-01  0.10204579999E+01  0.10201880194E+01 0.  0.
     999903    2    3    3    0    0 -0.51476938389E-01  0.10042798721E+00  0.62873015483E-01  0.13065213643E+00  0.19527131849E-01 0.  0.
         14    1    1    2    0    0 -0.19197668197E-01 -0.82952986046E-03 -0.13479473395E-01  0.23472000064E-01  0.00000000000E+00 0. -1.
     999901    1    3    3    0    0  0.70674606586E-01 -0.99598457348E-01 -0.49393542089E-01  0.88980586350E+00  0.88000000000E+00 0.  1.
        -11    1    4    4    0    0 -0.32733700437E-01  0.50763286549E-01  0.24666170298E-01  0.65246359927E-01  0.51100000000E-03 0. -1.
         11    1    4    4    0    0 -0.18743237952E-01  0.49664700660E-01  0.38206845185E-01  0.65405776507E-01  0.51100000000E-03 0.  1.
</event>
<event>
 8    1  0.1177602E+005  0.1043930E+01  0.7957747E-01            NaN
         13   -1    0    0    0    0  0.00000000000E+00  0.00000000000E+00  0.74505805969E-08  0.10566000000E+00  0.10566000000E+00 0. -1.
     999900   -1    0    0    0    0 -0.00000000000E+00 -0.00000000000E+00 -0.74505805969E-08  0.93827000000E+00  0.93827000000E+00 0.  1.
     999902    2    1    2    0    0  0.23091270870E-01  0.18144385358E-02 -0.51729184069E-02  0.10201969416E+01  0.10199208506E+01 0.  0.
     999903    2    3    3    0    0 -0.15981392546E-01 -0.84754525951E-01 -0.95801707381E-01  0.13045853281E+00  0.20068060896E-01 0.  0.
         14    1    1    2    0    0 -0.23091270870E-01 -0.18144385358E-02  0.51729184069E-02  0.23733058430E-01  0.00000000000E+00 0.  1.
     999901    1    3    3    0    0  0.39072663415E-01  0.86568964487E-01  0.90628788974E-01  0.88973840876E+00  0.88000000000E+00 0. -1.
        -11    1    4    4    0    0  0.23214603725E-02 -0.17125836800E-01 -0.28328904747E-01  0.33188423125E-01  0.51100000000E-03 0. -1.
         11    1    4    4    0    0 -0.18302852918E-01 -0.67628689150E-01 -0.67472802634E-01  0.97270109681E-01  0.51100000000E-03 0.  1.
</event>
<event>
 7    1  0.1177602E+005  0.1043930E+01  0.7957747E-01            NaN
         13   -1    0    0    0    0  0.00000000000E+00  0.00000000000E+00  0.74505805969E-08  0.10566000000E+00  0.10566000000E+00 0.  1.
     999900   -1    0    0    0    0 -0.00000000000E+00 -0.00000000000E+00 -0.74505805969E-08  0.93827000000E+00  0.93827000000E+00 0.  1.
     999903    2    1    2    0    0  0.55790424176E-01 -0.84659759423E-01 -0.10111145578E-01  0.10365876163E+00  0.19054062626E-01 0.  0.
         14    1    1    2    0    0  0.13167136292E-01  0.26824306026E-01 -0.44941967041E-01  0.53969410534E-01  0.00000000000E+00 0. -1.
     999901    1    1    2    0    0 -0.68957560468E-01  0.57835453397E-01  0.55053112619E-01  0.88630182784E+00  0.88000000000E+00 0. -1.
        -11    1    3    3    0    0  0.71805715721E-02 -0.22596385795E-01  0.24005992899E-02  0.23836552961E-01  0.51100000000E-03 0.  1.
         11    1    3    3    0    0  0.48609852604E-01 -0.62063373627E-01 -0.12511744868E-01  0.79822208669E-01  0.51100000000E-03 0. -1.
</event>
<event>
 8    1  0.1177602E+005  0.1043930E+01  0.7957747E-01            NaN
         13   -1    0    0    0    0  0.00000000000E+00  0.00000000000E+00  0.74505805969E-08  0.10566000000E+00  0.10566000000E+00 0.  1.
     999900   -1    0    0    0    0 -0.00000000000E+00 -0.00000000000E+00 -0.74505805969E-08  0.93827000000E+00  0.93827000000E+00 0.  1.
     999902    2    1    2    0    0 -0.13718720215E-01 -0.51536087184E-04  0.15645763046E-01  0.10231214479E+01  0.10229098207E+01 0.  0.
     999903    2    3    3    0    0 -0.39471397510E-01  0.52495168025E-01  0.11671499773E+00  0.13540564498E+00  0.19964070533E-01 0.  0.
         14    1    1    2    0    0  0.13718720215E-01  0.51536087184E-04 -0.15645763046E-01  0.20808552126E-01  0.00000000000E+00 0. -1.
     999901    1    3    3    0    0  0.25752677295E-01 -0.52546704112E-01 -0.10106923468E+00  0.88771580289E+00  0.88000000000E+00 0.  1.
        -11    1    4    4    0    0 -0.14099253425E-01  0.28290898565E-01  0.39448473512E-01  0.50553012493E-01  0.51100000000E-03 0. -1.
         11    1    4    4    0    0 -0.25372144085E-01  0.24204269460E-01  0.77266524214E-01  0.84852632491E-01  0.51100000000E-03 0.  1.
</event>
<event>
 8    1  0.1177602E+005  0.1043930E+01  0.7957747E-01            NaN
         13   -1    0    0    0    0  0.00000000000E+00  0.00000000000E+00  0.74505805969E-08  0.10566000000E+00  0.10566000000E+00 0.  1.
     999900   -1    0    0    0    0 -0.00000000000E+00 -0.00000000000E+00 -0.74505805969E-08  0.93827000000E+00  0.93827000000E+00 0. -1.
     999902    2    1    2    0    0  0.16267253321E-01  0.16739001645E-01 -0.75556952614E-02  0.10193962225E+01  0.10191009529E+01 0.  0.
     999903    2    3    3    0    0  0.11325981400E+00  0.86199195762E-02 -0.65105396338E-01  0.13216150475E+00  0.18051654338E-01 0.  0.
         14    1    1    2    0    0 -0.16267253321E-01 -0.16739001645E-01  0.75556952614E-02  0.24533777483E-01  0.00000000000E+00 0.  1.
     999901    1    3    3    0    0 -0.96992560678E-01  0.81190820688E-02  0.57549701077E-01  0.88723471777E+00  0.88000000000E+00 0.  1.
        -11    1    4    4    0    0  0.71396686936E-01  0.11281048999E-01 -0.48480858930E-01  0.87036795526E-01  0.51100000000E-03 0. -1.
         11    1    4    4    0    0  0.41863127063E-01 -0.26611294230E-02 -0.16624537409E-01  0.45124709222E-01  0.51100000000E-03 0.  1.
</event>
<event>
 8    1  0.1177602E+005  0.1043930E+01  0.7957747E-01            NaN
         13   -1    0    0    0    0  0.00000000000E+00  0.00000000000E+00  0.74505805969E-08  0.10566000000E+00  0.10566000000E+00 0. -1.
     999900   -1    0    0    0    0 -0.00000000000E+00 -0.00000000000E+00 -0.74505805969E-08  0.93827000000E+00  0.93827000000E+00 0.  1.
     999902    2    1    2    0    0  0.87727783546E-02 -0.73508704901E-03 -0.17006070057E-01  0.10247803678E+01  0.10246014317E+01 0.  0.
     999903    2    3    3    0    0  0.11697692935E+00 -0.21232416112E-01 -0.64223463545E-01  0.13666001505E+00  0.20417858584E-01 0.  0.
         14    1    1    2    0    0 -0.87727783546E-02  0.73508704901E-03  0.17006070057E-01  0.19149632158E-01  0.00000000000E+00 0. -1.
     999901    1    3    3    0    0 -0.10820415100E+00  0.20497329063E-01  0.47217393488E-01  0.88812035279E+00  0.88000000000E+00 0. -1.
        -11    1    4    4    0    0  0.86041867661E-02 -0.41796566027E-02 -0.11422532413E-01  0.14907613054E-01  0.51100000000E-03 0. -1.
         11    1    4    4    0    0  0.10837274259E+00 -0.17052759509E-01 -0.52800931131E-01  0.12175240200E+00  0.51100000000E-03 0.  1.
</event>
<event>
 8    1  0.1177602E+005  0.1043930E+01  0.7957747E-01            NaN
         13   -1    0    0    0    0  0.00000000000E+00  0.00000000000E+00  0.74505805969E-08  0.10566000000E+00  0.10566000000E+00 0.  1.
     999900   -1    0    0    0    0 -0.00000000000E+00 -0.00000000000E+00 -0.74505805969E-08  0.93827000000E+00  0.93827000000E+00 0. -1.
     999902    2    1    2    0    0 -0.46553440743E-02 -0.23520389446E-01  0.82305298645E-02  0.10185799986E+01  0.10182644995E+01 0.  0.
     999903    2    3    3    0    0 -0.92074332941E-02 -0.12511899053E+00 -0.34826397811E-01  0.13167701842E+00  0.19657583174E-01 0.  0.
         14    1    1    2    0    0  0.46553440743E-02  0.23520389446E-01 -0.82305298645E-02  0.25350001380E-01  0.00000000000E+00 0.  1.
     999901    1    3    3    0    0  0.45520892199E-02  0.10159860109E+00  0.43056927675E-01  0.88690298020E+00  0.88000000000E+00 0. -1.
        -11    1    4    4    0    0 -0.15298915611E-01 -0.82387365028E-01 -0.24197171965E-01  0.87220977908E-01  0.51100000000E-03 0.  1.
         11    1    4    4    0    0  0.60914823173E-02 -0.42731625506E-01 -0.10629225846E-01  0.44456040516E-01  0.51100000000E-03 0. -1.
</event>
<event>
 8    1  0.1177602E+005  0.1043930E+01  0.7957747E-01            NaN
         13   -1    0    0    0    0  0.00000000000E+00  0.00000000000E+00  0.74505805969E-08  0.10566000000E+00  0.10566000000E+00 0. -1.
     999900   -1    0    0    0    0 -0.00000000000E+00 -0.00000000000E+00 -0.74505805969E-08  0.93827000000E+00  0.93827000000E+00 0. -1.
     999902    2    1    2    0    0 -0.14874059972E-02  0.17706482948E-01 -0.16760262089E-01  0.10195038194E+01  0.10192111653E+01 0.  0.
     999903    2    3    3    0    0 -0.89421300435E-01  0.68874370461E-01 -0.65964820114E-01  0.13227689742E+00  0.20148752312E-01 0.  0.
         14    1    1    2    0    0  0.14874059972E-02 -0.17706482948E-01  0.16760262089E-01  0.24426180632E-01  0.00000000000E+00 0. -1.
     999901    1    3    3    0    0  0.87933894438E-01 -0.51167887512E-01  0.49204558025E-01  0.88722692195E+00  0.88000000000E+00 0. -1.
        -11    1    4    4    0    0 -0.60824781973E-01  0.40762834795E-01 -0.52013561722E-01  0.89816115072E-01  0.51100000000E-03 0. -1.
         11    1    4    4    0    0 -0.28596518462E-01  0.28111535666E-01 -0.13951258391E-01  0.42460782345E-01  0.51100000000E-03 0.  1.
</event>
<event>
 8    1  0.1177602E+005  0.1043930E+01  0.7957747E-01            NaN
         13   -1    0    0    0    0  0.00000000000E+00  0.00000000000E+00  0.74505805969E-08  0.10566000000E+00  0.10566000000E+00 0.  1.
     999900   -1    0    0    0    0 -0.00000000000E+00 -0.00000000000E+00 -0.74505805969E-08  0.93827000000E+00  0.93827000000E+00 0. -1.
     999902    2    1    2    0    0 -0.15298719155E-02  0.79123992800E-02 -0.21650753019E-01  0.10208280157E+01  0.10205665760E+01 0.  0.
     999903    2    3    3    0    0 -0.10793467408E+00  0.64008636166E-01  0.32526936275E-01  0.13099432806E+00  0.18828516332E-01 0.  0.
         14    1    1    2    0    0  0.15298719155E-02 -0.79123992800E-02  0.21650753019E-01  0.23101984259E-01  0.00000000000E+00 0.  1.
     999901    1    3    3    0    0  0.10640480217E+00 -0.56096236886E-01 -0.54177689293E-01  0.88983368768E+00  0.88000000000E+00 0. -1.
        -11    1    4    4    0    0 -0.87948828956E-01  0.43047849617E-01  0.24606288836E-01  0.10096457023E+00  0.51100000000E-03 0. -1.
         11    1    4    4    0    0 -0.19985845125E-01  0.20960786549E-01  0.79206474389E-02  0.30029757824E-01  0.51100000000E-03 0.  1.
</event>
<event>
 8    1  0.1177602E+005  0.1043930E+01  0.7957747E-01            NaN
         13   -1    0    0    0    0  0.00000000000E+00  0.00000000000E+00  0.74505805969E-08  0.10566000000E+00  0.10566000000E+00 0.  1.
     999900   -1    0    0    0    0 -0.00000000000E+00 -0.00000000000E+00 -0.74505805969E-08  0.93827000000E+00  0.93827000000E+00 0. -1.
     999902    2    1    2    0    0 -0.13266434401E-02  0.18064768406E-01  0.13949594702E-01  0.10210676503E+01  0.10208116670E+01 0.  0.
     999903    2    3    3    0    0 -0.74501692331E-01  0.10247922094E+00 -0.34020349317E-01  0.13270876839E+00  0.20043456689E-01 0.  0.
         14    1    1    2    0    0  0.13266434401E-02 -0.18064768406E-01 -0.13949594702E-01  0.22862349676E-01  0.00000000000E+00 0. -1.
     999901    1    3    3    0    0  0.73175048891E-01 -0.84414452534E-01  0.47969944019E-01  0.88835888193E+00  0.88000000000E+00 0.  1.
        -11    1    4    4    0    0 -0.21577113527E-01  0.43808519109E-01 -0.18244705422E-01  0.52133372916E-01  0.51100000000E-03 0.  1.
         11    1    4    4    0    0 -0.52924578804E-01  0.58670701830E-01 -0.15775643895E-01  0.80575395476E-01  0.51100000000E-03 0. -1.
</event>
<event>
 8    1  0.1177602E+005  0.1043930E+01  0.7957747E-01            NaN
         13   -1    0    0    0    0  0.00000000000E+00  0.00000000000E+00  0.74505805969E-08  0.10566000000E+00  0.10566000000E+00 0. -1.
     999900   -1    0    0    0    0 -0.00000000000E+00 -0.00000000000E+00 -0.74505805969E-08  0.93827000000E+00  0.93827000000E+00 0.  1.
     999902    2    1    2    0    0  0.22917999693E-01 -0.56244793279E-02  0.27414089309E-02  0.10201732157E+01  0.10198965659E+01 0.  0.
     999903    2    3    3    0    0  0.37358841197E-01 -0.94006477640E-01 -0.81766821504E-01  0.13160045191E+00  0.19999124726E-01 0.  0.
         14    1    1    2    0    0 -0.22917999693E-01  0.56244793279E-02 -0.27414089309E-02  0.23756784306E-01  0.00000000000E+00 0. -1.
     999901    1    3    3    0    0 -0.14440841504E-01  0.88381998312E-01  0.84508230435E-01  0.88857276378E+00  0.88000000000E+00 0. -1.
        -11    1    4    4    0    0  0.91123922394E-02 -0.43797023970E-01 -0.27873284884E-01  0.52710493568E-01  0.51100000000E-03 0.  1.
         11    1    4    4    0    0  0.28246448958E-01 -0.50209453670E-01 -0.53893536620E-01  0.78889958340E-01  0.51100000000E-03 0. -1.
</event>
<event>
 8    1  0.1177602E+005  0.1043930E+01  0.7957747E-01            NaN
         13   -1    0    0    0    0  0.00000000000E+00  0.00000000000E+00  0.74505805969E-08  0.10566000000E+00  0.10566000000E+00 0. -1.
     999900   -1    0    0    0    0 -0.00000000000E+00 -0.00000000000E+00 -0.74505805969E-08  0.93827000000E+00  0.93827000000E+00 0. -1.
     999902    2    1    2    0    0 -0.52674794578E-02 -0.23358741804E-01 -0.10287126254E-02  0.10199626178E+01  0.10196809826E+01 0.  0.
     999903    2    3    3    0    0 -0.59642657358E-01 -0.10624431092E+00  0.49340395731E-01  0.13296559156E+00  0.20006841518E-01 0.  0.
         14    1    1    2    0    0  0.52674794578E-02  0.23358741804E-01  0.10287126254E-02  0.23967382172E-01  0.00000000000E+00 0.  1.
     999901    1    3    3    0    0  0.54375177900E-01  0.82885569115E-01 -0.50369108357E-01  0.88699702627E+00  0.88000000000E+00 0. -1.
        -11    1    4    4    0    0 -0.36286264940E-01 -0.54984380824E-01  0.17116652791E-01  0.68067731574E-01  0.51100000000E-03 0.  1.
         11    1    4    4    0    0 -0.23356392418E-01 -0.51259930095E-01  0.32223742940E-01  0.64897859982E-01  0.51100000000E-03 0. -1.
</event>
<event>
 8    1  0.1177602E+005  0.1043930E+01  0.7957747E-01            NaN
         13   -1    0    0    0    0  0.00000000000E+00  0.00000000000E+00  0.74505805969E-08  0.10566000000E+00  0.10566000000E+00 0. -1.
     999900   -1    0    0    0    0 -0.00000000000E+00 -0.00000000000E+00 -0.74505805969E-08  0.93827000000E+00  0.93827000000E+00 0. -1.
     999902    2    1    2    0    0  0.23065471964E-01  0.30136771829E-02  0.43000793790E-02  0.10202743679E+01  0.10200000965E+01 0.  0.
     999903    2    3    3    0    0 -0.71551400557E-02  0.64650530079E-01  0.11168536553E+00  0.13109272915E+00  0.21927053922E-01 0.  0.
         14    1    1    2    0    0 -0.23065471964E-01 -0.30136771829E-02 -0.43000793790E-02  0.23655632094E-01  0.00000000000E+00 0. -1.
     999901    1    3    3    0    0  0.30220612020E-01 -0.61636852896E-01 -0.10738528615E+00  0.88918163876E+00  0.88000000000E+00 0. -1.
        -11    1    4    4    0    0  0.25348052784E-02  0.54624762229E-01  0.88464332796E-01  0.10400235182E+00  0.51100000000E-03 0.  1.
         11    1    4    4    0    0 -0.96899453341E-02  0.10025767850E-01  0.23221032731E-01  0.27090377326E-01  0.51100000000E-03 0. -1.
</event>
<event>
 8    1  0.1177602E+005  0.1043930E+01  0.7957747E-01            NaN
         13   -1    0    0    0    0  0.00000000000E+00  0.00000000000E+00  0.74505805969E-08  0.10566000000E+00  0.10566000000E+00 0. -1.
     999900   -1    0    0    0    0 -0.00000000000E+00 -0.00000000000E+00 -0.74505805969E-08  0.93827000000E+00  0.93827000000E+00 0. -1.
     999902    2    1    2    0    0 -0.22798101456E-01  0.71419344161E-02 -0.84333445392E-03  0.10200245222E+01  0.10197443572E+01 0.  0.
     999903    2    3    3    0    0  0.98987957437E-01  0.25300338924E-01 -0.75124553646E-01  0.12835234512E+00  0.19796541906E-01 0.  0.
         14    1    1    2    0    0  0.22798101456E-01 -0.71419344161E-02  0.84333445392E-03  0.23905477828E-01  0.00000000000E+00 0. -1.
     999901    1    3    3    0    0 -0.12178605889E+00 -0.18158404507E-01  0.74281219192E-01  0.89167217705E+00  0.88000000000E+00 0.  1.
        -11    1    4    4    0    0  0.70253867090E-01  0.26774833258E-01 -0.51666319524E-01  0.91225913156E-01  0.51100000000E-03 0.  1.
         11    1    4    4    0    0  0.28734090347E-01 -0.14744943340E-02 -0.23458234121E-01  0.37126431968E-01  0.51100000000E-03 0. -1.
</event>
<event>
 8    1  0.1177602E+005  0.1043930E+01  0.7957747E-01            NaN
         13   -1    0    0    0    0  0.00000000000E+00  0.00000000000E+00  0.74505805969E-08  0.10566000000E+00  0.10566000000E+00 0.  1.
     999900   -1    0    0    0    0 -0.00000000000E+00 -0.00000000000E+00 -0.74505805969E-08  0.93827000000E+00  0.93827000000E+00 0.  1.
     999902    2    1    2    0    0  0.88265809680E-02 -0.11705592358E-01 -0.21259026575E-01  0.10181060647E+01  0.10177785041E+01 0.  0.
     999903    2    3    3    0    0  0.11104643468E+00  0.11847012267E-02  0.61023097721E-01  0.12828282036E+00  0.19998734299E-01 0.  0.
         14    1    1    2    0    0 -0.88265809680E-02  0.11705592358E-01  0.21259026575E-01  0.25823935311E-01  0.00000000000E+00 0.  1.
     999901    1    3    3    0    0 -0.10221985371E+00 -0.12890293585E-01 -0.82282124297E-01  0.88982324432E+00  0.88000000000E+00 0.  1.
        -11    1    4    4    0    0  0.28518215698E-01 -0.66164431417E-02  0.22199495945E-01  0.36744315039E-01  0.51100000000E-03 0.  1.
         11    1    4    4    0    0  0.82528218979E-01  0.78011443683E-02  0.38823601776E-01  0.91538505325E-01  0.51100000000E-03 0. -1.
</event>
<event>
 8    1  0.1177602E+005  0.1043930E+01  0.7957747E-01            NaN
         13   -1    0    0    0    0  0.00000000000E+00  0.00000000000E+00  0.74505805969E-08  0.10566000000E+00  0.10566000000E+00 0.  1.
     999900   -1    0    0    0    0 -0.00000000000E+00 -0.00000000000E+00 -0.74505805969E-08  0.93827000000E+00  0.93827000000E+00 0. -1.
     999902    2    1    2    0    0  0.20010664148E-01  0.63065012220E-03 -0.11158508035E-01  0.10210097753E+01  0.10207524796E+01 0.  0.
     999903    2    3    3    0    0  0.66890907335E-01  0.25545918345E-01  0.10847762793E+00  0.13132930859E+00  0.18788403488E-01 0.  0.
         14    1    1    2    0    0 -0.20010664148E-01 -0.63065012220E-03  0.11158508035E-01  0.22920224710E-01  0.00000000000E+00 0.  1.
     999901    1    3    3    0    0 -0.46880243188E-01 -0.24915268223E-01 -0.11963613597E+00  0.88968046670E+00  0.88000000000E+00 0. -1.
        -11    1    4    4    0    0  0.24504157298E-01  0.19222615228E-01  0.47156309349E-01  0.56514965217E-01  0.51100000000E-03 0. -1.
         11    1    4    4    0    0  0.42386750037E-01  0.63233031164E-02  0.61321318583E-01  0.74814343376E-01  0.51100000000E-03 0.  1.
</event>
<event>
 8    1  0.1177602E+005  0.1043930E+01  0.7957747E-01            NaN
         13   -1    0    0    0    0  0.00000000000E+00  0.00000000000E+00  0.74505805969E-08  0.10566000000E+00  0.10566000000E+00 0. -1.
     999900   -1    0    0    0    0 -0.00000000000E+00 -0.00000000000E+00 -0.74505805969E-08  0.93827000000E+00  0.93827000000E+00 0.  1.
     999902    2    1    2    0    0 -0.24551697887E-01  0.98414427383E-03 -0.26380620118E-03  0.10193571694E+01  0.10190609476E+01 0.  0.
     999903    2    3    3    0    0 -0.14087736603E-01  0.18624560923E-01 -0.12642939498E+00  0.13012242281E+00  0.20052790578E-01 0.  0.
         14    1    1    2    0    0  0.24551697887E-01 -0.98414427383E-03  0.26380620118E-03  0.24572830582E-01  0.00000000000E+00 0.  1.
     999901    1    3    3    0    0 -0.10463961285E-01 -0.17640416649E-01  0.12616558878E+00  0.88923474661E+00  0.88000000000E+00 0. -1.
        -11    1    4    4    0    0 -0.42107487330E-02  0.17986015420E-01 -0.55300332406E-01  0.58306217857E-01  0.51100000000E-03 0. -1.
         11    1    4    4    0    0 -0.98769878697E-02  0.63854550333E-03 -0.71129062576E-01  0.71816204952E-01  0.51100000000E-03 0.  1.
</event>
<event>
 8    1  0.1177602E+005  0.1043930E+01  0.7957747E-01            NaN
         13   -1    0    0    0    0  0.00000000000E+00  0.00000000000E+00  0.74505805969E-08  0.10566000000E+00  0.10566000000E+00 0. -1.
     999900   -1    0    0    0    0 -0.00000000000E+00 -0.00000000000E+00 -0.74505805969E-08  0.93827000000E+00  0.93827000000E+00 0.  1.
     999902    2    1    2    0    0 -0.94061591726E-02 -0.72494810510E-02 -0.20937246529E-01  0.10198592896E+01  0.10195751917E+01 0.  0.
     999903    2    3    3    0    0  0.77365497202E-01  0.75532631245E-01 -0.70010204548E-01  0.13037047369E+00  0.20110522824E-01 0.  0.
         14    1    1    2    0    0  0.94061591726E-02  0.72494810510E-02  0.20937246529E-01  0.24070710378E-01  0.00000000000E+00 0. -1.
     999901    1    3    3    0    0 -0.86771656375E-01 -0.82782112296E-01  0.49072958019E-01  0.88948881594E+00  0.88000000000E+00 0. -1.
        -11    1    4    4    0    0  0.25141522715E-01  0.18136644943E-01 -0.11062233750E-01  0.32919115886E-01  0.51100000000E-03 0. -1.
         11    1    4    4    0    0  0.52223974487E-01  0.57395986302E-01 -0.58947970798E-01  0.97451357800E-01  0.51100000000E-03 0.  1.
</event>
<event>
 8    1  0.1177602E+005  0.1043930E+01  0.7957747E-01            NaN
         13   -1    0    0    0    0  0.00000000000E+00  0.00000000000E+00  0.74505805969E-08  0.10566000000E+00  0.10566000000E+00 0.  1.
     999900   -1    0    0    0    0 -0.00000000000E+00 -0.00000000000E+00 -0.74505805969E-08  0.93827000000E+00  0.93827000000E+00 0.  1.
     999902    2    1    2    0    0 -0.41457256429E-02 -0.29648788957E-01 -0.28549111805E-02  0.10138569515E+01  0.10134108396E+01 0.  0.
     999903    2    3    3    0    0 -0.26310291818E-02  0.10696424073E+00  0.54120774780E-01  0.12149399678E+00  0.19582182738E-01 0.  0.
         14    1    1    2    0    0  0.41457256429E-02  0.29648788957E-01  0.28549111805E-02  0.30073048491E-01  0.00000000000E+00 0.  1.
     999901    1    3    3    0    0 -0.15146964612E-02 -0.13661302969E+00 -0.56975685961E-01  0.89236295473E+00  0.88000000000E+00 0.  1.
        -11    1    4    4    0    0  0.81807301203E-02  0.32081326092E-01  0.16266585706E-01  0.36891716694E-01  0.51100000000E-03 0.  1.
         11    1    4    4    0    0 -0.10811759302E-01  0.74882914638E-01  0.37854189075E-01  0.84602280084E-01  0.51100000000E-03 0. -1.
</event>
<event>
 8    1  0.1177602E+005  0.1043930E+01  0.7957747E-01            NaN
         13   -1    0    0    0    0  0.00000000000E+00  0.00000000000E+00  0.74505805969E-08  0.10566000000E+00  0.10566000000E+00 0. -1.
     999900   -1    0    0    0    0 -0.00000000000E+00 -0.00000000000E+00 -0.74505805969E-08  0.93827000000E+00  0.93827000000E+00 0. -1.
     999902    2    1    2    0    0  0.21202750123E-02 -0.22817971733E-01 -0.12315536050E-02  0.10209806618E+01  0.10207227046E+01 0.  0.
     999903    2    3    3    0    0 -0.71126235175E-01  0.24244405421E-01  0.10453348872E+00  0.13038189535E+00  0.20626581093E-01 0.  0.
         14    1    1    2    0    0 -0.21202750123E-02  0.22817971733E-01  0.12315536050E-02  0.22949338213E-01  0.00000000000E+00 0. -1.
     999901    1    3    3    0    0  0.73246510187E-01 -0.47062377154E-01 -0.10576504232E+00  0.89059876644E+00  0.88000000000E+00 0. -1.
        -11    1    4    4    0    0 -0.29490862209E-01  0.20216223084E-01  0.42208798934E-01  0.55319530530E-01  0.51100000000E-03 0.  1.
         11    1    4    4    0    0 -0.41635372966E-01  0.40281823370E-02  0.62324689784E-01  0.75062364822E-01  0.51100000000E-03 0. -1.
</event>
<event>
 8    1  0.1177602E+005  0.1043930E+01  0.7957747E-01            NaN
         13   -1    0    0    0    0  0.00000000000E+00  0.00000000000E+00  0.74505805969E-08  0.10566000000E+00  0.10566000000E+00 0.  1.
     999900   -1    0    0    0    0 -0.00000000000E+00 -0.00000000000E+00 -0.74505805969E-08  0.93827000000E+00  0.93827000000E+00 0. -1.
     999902    2    1    2    0    0  0.13434942429E-01 -0.16002663246E-01  0.10834305816E-01  0.10203935370E+01  0.10201220541E+01 0.  0.
     999903    2    3    3    0    0 -0.62501556465E-01 -0.11186441295E+00 -0.21210351056E-01  0.13135884308E+00  0.19625881362E-01 0.  0.
         14    1    1    2    0    0 -0.13434942429E-01  0.16002663246E-01 -0.10834305816E-01  0.23536463021E-01  0.00000000000E+00 0. -1.
     999901    1    3    3    0    0  0.75936498894E-01  0.95861749700E-01  0.32044656872E-01  0.88903469390E+00  0.88000000000E+00 0.  1.
        -11    1    4    4    0    0 -0.37066661651E-01 -0.70947946896E-01 -0.38332354666E-02  0.80140522770E-01  0.51100000000E-03 0.  1.
         11    1    4    4    0    0 -0.25434894814E-01 -0.40916466050E-01 -0.17377115589E-01  0.51218320310E-01  0.51100000000E-03 0. -1.
</event>
<event>
 8    1  0.1177602E+005  0.1043930E+01  0.7957747E-01            NaN
         13   -1    0    0    0    0  0.00000000000E+00  0.00000000000E+00  0.74505805969E-08  0.10566000000E+00  0.10566000000E+00 0. -1.
     999900   -1    0    0    0    0 -0.00000000000E+00 -0.00000000000E+00 -0.74505805969E-08  0.93827000000E+00  0.93827000000E+00 0. -1.
     999902    2    1    2    0    0  0.13819242389E-01  0.15637085394E-01 -0.17622632718E-02  0.10229873289E+01  0.10227729365E+01 0.  0.
     999903    2    3    3    0    0 -0.83152210356E-01 -0.46374989164E-01  0.87679955787E-01  0.13099580958E+00  0.20179142043E-01 0.  0.
         14    1    1    2    0    0 -0.13819242389E-01 -0.15637085394E-01  0.17622632718E-02  0.20942671073E-01  0.00000000000E+00 0. -1.
     999901    1    3    3    0    0  0.96971452745E-01  0.62012074558E-01 -0.89442219058E-01  0.89199151935E+00  0.88000000000E+00 0. -1.
        -11    1    4    4    0    0 -0.19042428302E-01 -0.20889907561E-01  0.27635786211E-01  0.39534796244E-01  0.51100000000E-03 0. -1.
         11    1    4    4    0    0 -0.64109782055E-01 -0.25485081603E-01  0.60044169576E-01  0.91461013336E-01  0.51100000000E-03 0.  1.
</event>
<event>
 8    1  0.1177602E+005  0.1043930E+01  0.7957747E-01            NaN
         13   -1    0    0    0    0  0.00000000000E+00  0.00000000000E+00  0.74505805969E-08  0.10566000000E+00  0.10566000000E+00 0.  1.
     999900   -1    0    0    0    0 -0.00000000000E+00 -0.00000000000E+00 -0.74505805969E-08  0.93827000000E+00  0.93827000000E+00 0.  1.
     999902    2    1    2    0    0 -0.17437647148E-01 -0.13762722477E-01  0.81894562726E-02  0.10202540362E+01  0.10199792876E+01 0.  0.
     999903    2    3    3    0    0  0.10882568131E+00 -0.52749505431E-01 -0.38800822734E-01  0.12914771051E+00  0.23411280377E-01 0.  0.
         14    1    1    2    0    0  0.17437647148E-01  0.13762722477E-01 -0.81894562726E-02  0.23675963805E-01  0.00000000000E+00 0. -1.
     999901    1    3    3    0    0 -0.12626332846E+00  0.38986782954E-01  0.46990279007E-01  0.89110632569E+00  0.88000000000E+00 0. -1.
        -11    1    4    4    0    0  0.90220328097E-02 -0.12345244931E-01 -0.23899351017E-02  0.15484671750E-01  0.51100000000E-03 0. -1.
         11    1    4    4    0    0  0.99803648500E-01 -0.40404260500E-01 -0.36410887632E-01  0.11366303876E+00  0.51100000000E-03 0.  1.
</event>
<event>
 8    1  0.1177602E+005  0.1043930E+01  0.7957747E-01            NaN
         13   -1    0    0    0    0  0.00000000000E+00  0.00000000000E+00  0.74505805969E-08  0.10566000000E+00  0.10566000000E+00 0. -1.
     999900   -1    0    0    0    0 -0.00000000000E+00 -0.00000000000E+00 -0.74505805969E-08  0.93827000000E+00  0.93827000000E+00 0.  1.
     999902    2    1    2    0    0  0.60169025954E-02  0.20439044221E-01 -0.11501158451E-01  0.10197177244E+01  0.10194302345E+01 0.  0.
     999903    2    3    3    0    0  0.66095747324E-01  0.10947508398E+00  0.27142849916E-01  0.13234506120E+00  0.20616476322E-01 0.  0.
         14    1    1    2    0    0 -0.60169025954E-02 -0.20439044221E-01  0.11501158451E-01  0.24212275631E-01  0.00000000000E+00 0.  1.
     999901    1    3    3    0    0 -0.60078844729E-01 -0.89036039757E-01 -0.38644008366E-01  0.88737266317E+00  0.88000000000E+00 0.  1.
        -11    1    4    4    0    0  0.24355948119E-01  0.57077504225E-01  0.18746359329E-01  0.64828549316E-01  0.51100000000E-03 0. -1.
         11    1    4    4    0    0  0.41739799206E-01  0.52397579753E-01  0.83964905862E-02  0.67516511883E-01  0.51100000000E-03 0.  1.
</event>
<event>
 8    1  0.1177602E+005  0.1043930E+01  0.7957747E-01            NaN
         13   -1    0    0    0    0  0.00000000000E+00  0.00000000000E+00  0.74505805969E-08  0.10566000000E+00  0.10566000000E+00 0.  1.
     999900   -1    0    0    0    0 -0.00000000000E+00 -0.00000000000E+00 -0.74505805969E-08  0.93827000000E+00  0.93827000000E+00 0.  1.
     999902    2    1    2    0    0  0.23663053411E-02  0.18503015537E-01 -0.14580266117E-01  0.10202541654E+01  0.10199794198E+01 0.  0.
     999903    2    3    3    0    0 -0.30338351071E-01  0.11902621777E+00 -0.47662026165E-01  0.13331058680E+00  0.20307332454E-01 0.  0.
         14    1    1    2    0    0 -0.23663053411E-02 -0.18503015537E-01  0.14580266117E-01  0.23675834620E-01  0.00000000000E+00 0.  1.
     999901    1    3    3    0    0  0.32704656412E-01 -0.10052320224E+00  0.33081760048E-01  0.88694357858E+00  0.88000000000E+00 0. -1.
        -11    1    4    4    0    0  0.88983474033E-03  0.20877949180E-01 -0.32857868253E-02  0.21159822397E-01  0.51100000000E-03 0.  1.
         11    1    4    4    0    0 -0.31228185811E-01  0.98148268593E-01 -0.44376239340E-01  0.11215076440E+00  0.51100000000E-03 0. -1.
</event>
<event>
 8    1  0.1177602E+005  0.1043930E+01  0.7957747E-01            NaN
         13   -1    0    0    0    0  0.00000000000E+00  0.00000000000E+00  0.74505805969E-08  0.10566000000E+00  0.10566000000E+00 0.  1.
     999900   -1    0    0    0    0 -0.00000000000E+00 -0.00000000000E+00 -0.74505805969E-08  0.93827000000E+00  0.93827000000E+00 0. -1.
     999902    2    1    2    0    0 -0.15221503699E-01 -0.49683821194E-02 -0.17097540454E-01  0.10205055494E+01  0.10202366743E+01 0.  0.
     999903    2    3    3    0    0  0.93227469844E-01  0.42480801412E-01  0.74007891779E-01  0.12791784803E+00  0.19744066867E-01 0.  0.
         14    1    1    2    0    0  0.15221503699E-01  0.49683821194E-02  0.17097540454E-01  0.23424450587E-01  0.00000000000E+00 0. -1.
     999901    1    3    3    0    0 -0.10844897354E+00 -0.47449183531E-01 -0.91105432233E-01  0.89258770138E+00  0.88000000000E+00 0. -1.
        -11    1    4    4    0    0  0.81311638956E-01  0.32285932140E-01  0.69076125760E-01  0.11147078682E+00  0.51100000000E-03 0.  1.
         11    1    4    4    0    0  0.11915830888E-01  0.10194869272E-01  0.49317660186E-02  0.16447061205E-01  0.51100000000E-03 0. -1.
</event>
<event>
 8    1  0.1177602E+005  0.1043930E+01  0.7957747E-01            NaN
         13   -1    0    0    0    0  0.00000000000E+00  0.00000000000E+00  0.74505805969E-08  0.10566000000E+00  0.10566000000E+00 0. -1.
     999900   -1    0    0    0    0 -0.00000000000E+00 -0.00000000000E+00 -0.74505805969E-08  0.93827000000E+00  0.93827000000E+00 0. -1.
     999902    2    1    2    0    0  0.19410202147E-01 -0.49003690000E-02 -0.10684020141E-01  0.10212381986E+01  0.10209860628E+01 0.  0.
     999903    2    3    3    0    0 -0.74161006693E-01 -0.27658709949E-01 -0.10307406397E+00  0.13117672130E+00  0.17838452801E-01 0.  0.
         14    1    1    2    0    0 -0.19410202147E-01  0.49003690000E-02  0.10684020141E-01  0.22691801385E-01  0.00000000000E+00 0. -1.
     999901    1    3    3    0    0  0.93571208840E-01  0.22758340949E-01  0.92390043825E-01  0.89006147732E+00  0.88000000000E+00 0.  1.
        -11    1    4    4    0    0 -0.20226335514E-02 -0.43298771439E-02 -0.10271426583E-01  0.11340291337E-01  0.51100000000E-03 0.  1.
         11    1    4    4    0    0 -0.72138373142E-01 -0.23328832805E-01 -0.92802637382E-01  0.11983642996E+00  0.51100000000E-03 0. -1.
</event>
<event>
 8    1  0.1177602E+005  0.1043930E+01  0.7957747E-01            NaN
         13   -1    0    0    0    0  0.00000000000E+00  0.00000000000E+00  0.74505805969E-08  0.10566000000E+00  0.10566000000E+00 0.  1.
     999900   -1    0    0    0    0 -0.00000000000E+00 -0.00000000000E+00 -0.74505805969E-08  0.93827000000E+00  0.93827000000E+00 0.  1.
     999902    2    1    2    0    0  0.20536392457E-01 -0.16650703969E-02 -0.11283030021E-01  0.10204390945E+01  0.10201686738E+01 0.  0.
     999903    2    3    3    0    0  0.59938185917E-01 -0.51058042253E-02  0.11409355140E+00  0.13067304259E+00  0.20963068023E-01 0.  0.
         14    1    1    2    0    0 -0.20536392457E-01  0.16650703969E-02  0.11283030021E-01  0.23490905496E-01  0.00000000000E+00 0.  1.
     999901    1    3    3    0    0 -0.39401793460E-01  0.34407338283E-02 -0.12537658142E+00  0.88976605192E+00  0.88000000000E+00 0.  1.
        -11    1    4    4    0    0  0.24475430344E-01 -0.68393730407E-02  0.67241755832E-01  0.71885593567E-01  0.51100000000E-03 0. -1.
         11    1    4    4    0    0  0.35462755573E-01  0.17335688155E-02  0.46851795564E-01  0.58787449019E-01  0.51100000000E-03 0.  1.
</event>
<event>
 8    1  0.1177602E+005  0.1043930E+01  0.7957747E-01            NaN
         13   -1    0    0    0    0  0.00000000000E+00  0.00000000000E+00  0.74505805969E-08  0.10566000000E+00  0.10566000000E+00 0.  1.
     999900   -1    0    0    0    0 -0.00000000000E+00 -0.00000000000E+00 -0.74505805969E-08  0.93827000000E+00  0.93827000000E+00 0.  1.
     999902    2    1    2    0    0 -0.17244971785E-01  0.16386444195E-01  0.68524222414E-02  0.10191739847E+01  0.10188732751E+01 0.  0.
     999903    2    3    3    0    0 -0.93365758323E-01 -0.20876355985E-01 -0.86115463146E-01  0.13022746313E+00  0.19756823971E-01 0.  0.
         14    1    1    2    0    0  0.17244971785E-01 -0.16386444195E-01 -0.68524222414E-02  0.24756015346E-01  0.00000000000E+00 0. -1.
     999901    1    3    3    0    0  0.76120786539E-01  0.37262800181E-01  0.92967885387E-01  0.88894652153E+00  0.88000000000E+00 0. -1.
        -11    1    4    4    0    0 -0.86569903987E-01 -0.13884966082E-01 -0.74511038121E-01  0.11506214183E+00  0.51100000000E-03 0. -1.
         11    1    4    4    0    0 -0.67958543367E-02 -0.69913899039E-02 -0.11604425025E-01  0.15165321299E-01  0.51100000000E-03 0.  1.
</event>
<event>
 8    1  0.1177602E+005  0.1043930E+01  0.7957747E-01            NaN
         13   -1    0    0    0    0  0.00000000000E+00  0.00000000000E+00  0.74505805969E-08  0.10566000000E+00  0.10566000000E+00 0.  1.
     999900   -1    0    0    0    0 -0.00000000000E+00 -0.00000000000E+00 -0.74505805969E-08  0.93827000000E+00  0.93827000000E+00 0.  1.
     999902    2    1    2    0    0 -0.52666346155E-02 -0.22524269704E-01 -0.61825486448E-02  0.10199862310E+01  0.10197051571E+01 0.  0.
     999903    2    3    3    0    0  0.75515856825E-02 -0.13072201043E+00 -0.14099280056E-01  0.13323162431E+00  0.20164462787E-01 0.  0.
         14    1    1    2    0    0  0.52666346155E-02  0.22524269704E-01  0.61825486448E-02  0.23943768994E-01  0.00000000000E+00 0. -1.
     999901    1    3    3    0    0 -0.12818220298E-01  0.10819774073E+00  0.79167314113E-02  0.88675460670E+00  0.88000000000E+00 0.  1.
        -11    1    4    4    0    0  0.18205254449E-02 -0.36244697841E-01  0.51033825047E-02  0.36651030933E-01  0.51100000000E-03 0. -1.
         11    1    4    4    0    0  0.57310602376E-02 -0.94477312590E-01 -0.19202662561E-01  0.96580593372E-01  0.51100000000E-03 0.  1.
</event>
<event>
 8    1  0.1177602E+005  0.1043930E+01  0.7957747E-01            NaN
         13   -1    0    0    0    0  0.00000000000E+00  0.00000000000E+00  0.74505805969E-08  0.10566000000E+00  0.10566000000E+00 0.  1.
     999900   -1    0    0    0    0 -0.00000000000E+00 -0.00000000000E+00 -0.74505805969E-08  0.93827000000E+00  0.93827000000E+00 0. -1.
     999902    2    1    2    0    0  0.81069620480E-02 -0.21957761350E-01  0.35145695051E-02  0.10202610686E+01  0.10199864851E+01 0.  0.
     999903    2    3    3    0    0 -0.32301243811E-02 -0.51134234265E-02  0.12966468357E+00  0.13103325043E+00  0.17894181955E-01 0.  0.
         14    1    1    2    0    0 -0.81069620480E-02  0.21957761350E-01 -0.35145695051E-02  0.23668931449E-01  0.00000000000E+00 0.  1.
     999901    1    3    3    0    0  0.11337086429E-01 -0.16844337923E-01 -0.12615011407E+00  0.88922781813E+00  0.88000000000E+00 0. -1.
        -11    1    4    4    0    0 -0.19537286641E-05  0.29835396259E-02  0.10152177217E+00  0.10156688859E+00  0.51100000000E-03 0.  1.
         11    1    4    4    0    0 -0.32281706524E-02 -0.80969630523E-02  0.28142911409E-01  0.29466361839E-01  0.51100000000E-03 0. -1.
</event>
<event>
 8    1  0.1177602E+005  0.1043930E+01  0.7957747E-01            NaN
         13   -1    0    0    0    0  0.00000000000E+00  0.00000000000E+00  0.74505805969E-08  0.10566000000E+00  0.10566000000E+00 0. -1.
     999900   -1    0    0    0    0 -0.00000000000E+00 -0.00000000000E+00 -0.74505805969E-08  0.93827000000E+00  0.93827000000E+00 0.  1.
     999902    2    1    2    0    0 -0.12546104636E-01  0.13156435750E-01  0.14840189735E-01  0.10204624101E+01  0.10201925322E+01 0.  0.
     999903    2    3    3    0    0  0.11315519973E+00 -0.27183552942E-01 -0.49533642661E-01  0.12828971221E+00  0.21485430597E-01 0.  0.
         14    1    1    2    0    0  0.12546104636E-01 -0.13156435750E-01 -0.14840189735E-01  0.23467589875E-01  0.00000000000E+00 0.  1.
     999901    1    3    3    0    0 -0.12570130436E+00  0.40339988691E-01  0.64373832395E-01  0.89217269791E+00  0.88000000000E+00 0. -1.
        -11    1    4    4    0    0  0.21712897355E-01 -0.50869112615E-03 -0.17157297080E-01  0.27682894399E-01  0.51100000000E-03 0.  1.
         11    1    4    4    0    0  0.91442302372E-01 -0.26674861816E-01 -0.32376345581E-01  0.10060681781E+00  0.51100000000E-03 0. -1.
</event>
<event>
 8    1  0.1177602E+005  0.1043930E+01  0.7957747E-01            NaN
         13   -1    0    0    0    0  0.00000000000E+00  0.00000000000E+00  0.74505805969E-08  0.10566000000E+00  0.10566000000E+00 0. -1.
     999900   -1    0    0    0    0 -0.00000000000E+00 -0.00000000000E+00 -0.74505805969E-08  0.93827000000E+00  0.93827000000E+00 0.  1.
     999902    2    1    2    0    0 -0.17133004923E-01 -0.16436331548E-01  0.95464864750E-03  0.10201685984E+01  0.10198918398E+01 0.  0.
     999903    2    3    3    0    0  0.38623388653E-01  0.11999848915E+00  0.80533149067E-02  0.12788297888E+00  0.19944845390E-01 0.  0.
         14    1    1    2    0    0  0.17133004923E-01  0.16436331548E-01 -0.95464864750E-03  0.23761401610E-01  0.00000000000E+00 0.  1.
     999901    1    3    3    0    0 -0.55756393576E-01 -0.13643482069E+00 -0.70986662591E-02  0.89228561951E+00  0.88000000000E+00 0.  1.
        -11    1    4    4    0    0  0.29525958890E-01  0.61721258908E-01  0.80832295501E-02  0.68897719633E-01  0.51100000000E-03 0. -1.
         11    1    4    4    0    0  0.90974297622E-02  0.58277230238E-01 -0.29914643439E-04  0.58985259247E-01  0.51100000000E-03 0.  1.
</event>
<event>
 8    1  0.1177602E+005  0.1043930E+01  0.7957747E-01            NaN
         13   -1    0    0    0    0  0.00000000000E+00  0.00000000000E+00  0.74505805969E-08  0.10566000000E+00  0.10566000000E+00 0. -1.
     999900   -1    0    0    0    0 -0.00000000000E+00 -0.00000000000E+00 -0.74505805969E-08  0.93827000000E+00  0.93827000000E+00 0.  1.
     999902    2    1    2    0    0  0.91732900635E-02  0.10814644666E-01 -0.19060695931E-01  0.10201725608E+01  0.10198958956E+01 0.  0.
     999903    2    3    3    0    0 -0.48157173437E-01 -0.10395737831E+00  0.53351040898E-01  0.12792659751E+00  0.19814916790E-01 0.  0.
         14    1    1    2    0    0 -0.91732900635E-02 -0.10814644666E-01  0.19060695931E-01  0.23757439239E-01  0.00000000000E+00 0. -1.
     999901    1    3    3    0    0  0.57330463501E-01  0.11477202298E+00 -0.72411736828E-01  0.89224596325E+00  0.88000000000E+00 0.  1.
        -11    1    4    4    0    0 -0.14353432745E-01 -0.26428810518E-01  0.23721860117E-01  0.38307842870E-01  0.51100000000E-03 0.  1.
         11    1    4    4    0    0 -0.33803740692E-01 -0.77528567793E-01  0.29629180781E-01  0.89618754642E-01  0.51100000000E-03 0. -1.
</event>
<event>
 8    1  0.1177602E+005  0.1043930E+01  0.7957747E-01            NaN
         13   -1    0    0    0    0  0.00000000000E+00  0.00000000000E+00  0.74505805969E-08  0.10566000000E+00  0.10566000000E+00 0.  1.
     999900   -1    0    0    0    0 -0.00000000000E+00 -0.00000000000E+00 -0.74505805969E-08  0.93827000000E+00  0.93827000000E+00 0. -1.
     999902    2    1    2    0    0 -0.20878117701E-01 -0.37294680656E-03 -0.10795408806E-01  0.10204230704E+01  0.10201522763E+01 0.  0.
     999903    2    3    3    0    0 -0.82683796764E-01 -0.86716835213E-01  0.51285576848E-01  0.13186848130E+00  0.20066544562E-01 0.  0.
         14    1    1    2    0    0  0.20878117701E-01  0.37294680656E-03  0.10795408806E-01  0.23506929603E-01  0.00000000000E+00 0.  1.
     999901    1    3    3    0    0  0.61805679063E-01  0.86343888406E-01 -0.62080985654E-01  0.88855458910E+00  0.88000000000E+00 0. -1.
        -11    1    4    4    0    0 -0.38932618789E-01 -0.26704186178E-01  0.20452342613E-01  0.51453102963E-01  0.51100000000E-03 0.  1.
         11    1    4    4    0    0 -0.43751177975E-01 -0.60012649035E-01  0.30833234235E-01  0.80415378335E-01  0.51100000000E-03 0. -1.
</event>
<event>
 8    1  0.1177602E+005  0.1043930E+01  0.7957747E-01            NaN
         13   -1    0    0    0    0  0.00000000000E+00  0.00000000000E+00  0.74505805969E-08  0.10566000000E+00  0.10566000000E+00 0.  1.
     999900   -1    0    0    0    0 -0.00000000000E+00 -0.00000000000E+00 -0.74505805969E-08  0.93827000000E+00  0.93827000000E+00 0. -1.
     999902    2    1    2    0    0  0.71236079688E-02 -0.30574115618E-02  0.23869244057E-01  0.10188334989E+01  0.10185243562E+01 0.  0.
     999903    2    3    3    0    0  0.83002220411E-01  0.32241899419E-01  0.95332643775E-01  0.13197915759E+00  0.20031884556E-01 0.  0.
         14    1    1    2    0    0 -0.71236079688E-02  0.30574115618E-02 -0.23869244057E-01  0.25096501107E-01  0.00000000000E+00 0. -1.
     999901    1    3    3    0    0 -0.75878612442E-01 -0.35299310981E-01 -0.71463399718E-01  0.88685434130E+00  0.88000000000E+00 0. -1.
        -11    1    4    4    0    0  0.32559367454E-01  0.19040902959E-01  0.28864775729E-01  0.47498471484E-01  0.51100000000E-03 0. -1.
         11    1    4    4    0    0  0.50442852957E-01  0.13200996460E-01  0.66467868046E-01  0.84480686110E-01  0.51100000000E-03 0.  1.
</event>
<event>
 8    1  0.1192370E+005  0.1043930E+01  0.7957747E-01            NaN
         13   -1    0    0    0    0  0.00000000000E+00  0.00000000000E+00  0.74505805969E-08  0.10566000000E+00  0.10566000000E+00 0.  1.
     999900   -1    0    0    0    0 -0.00000000000E+00 -0.00000000000E+00 -0.74505805969E-08  0.93827000000E+00  0.93827000000E+00 0. -1.
     999902    2    1    2    0    0 -0.16537797071E-02  0.32072563139E-01  0.95812622629E-02  0.10104160495E+01  0.10098600934E+01 0.  0.
     999903    2    3    3    0    0 -0.10517526571E+00  0.52844231332E-01 -0.30366679056E-01  0.12320468892E+00  0.20072639928E-01 0.  0.
         14    1    1    2    0    0  0.16537797071E-02 -0.32072563139E-01 -0.95812622629E-02  0.33513950530E-01  0.00000000000E+00 0. -1.
     999901    1    3    3    0    0  0.10352148600E+00 -0.20771668194E-01  0.39947941319E-01  0.88721136054E+00  0.88000000000E+00 0.  1.
        -11    1    4    4    0    0 -0.38673444588E-01  0.30207852035E-01 -0.14676721301E-01  0.51223206752E-01  0.51100000000E-03 0. -1.
         11    1    4    4    0    0 -0.66501821123E-01  0.22636379298E-01 -0.15689957755E-01  0.71981482173E-01  0.51100000000E-03 0.  1.
</event>
<event>
 8    1  0.1177602E+005  0.1043930E+01  0.7957747E-01            NaN
         13   -1    0    0    0    0  0.00000000000E+00  0.00000000000E+00  0.74505805969E-08  0.10566000000E+00  0.10566000000E+00 0.  1.
     999900   -1    0    0    0    0 -0.00000000000E+00 -0.00000000000E+00 -0.74505805969E-08  0.93827000000E+00  0.93827000000E+00 0. -1.
     999902    2    1    2    0    0  0.17912429278E-02  0.11583890375E-01 -0.20005844702E-01  0.10207431742E+01  0.10204797885E+01 0.  0.
     999903    2    3    3    0    0 -0.38284471013E-01 -0.50188394856E-01  0.10944409373E+00  0.12823033699E+00  0.21918804097E-01 0.  0.
         14    1    1    2    0    0 -0.17912429278E-02 -0.11583890375E-01  0.20005844702E-01  0.23186825779E-01  0.00000000000E+00 0.  1.
     999901    1    3    3    0    0  0.40075713941E-01  0.61772285231E-01 -0.12944993843E+00  0.89251283724E+00  0.88000000000E+00 0. -1.
        -11    1    4    4    0    0 -0.26396486484E-01 -0.44876271141E-01  0.97607418311E-01  0.11062605227E+00  0.51100000000E-03 0. -1.
         11    1    4    4    0    0 -0.11887984529E-01 -0.53121237154E-02  0.11836675415E-01  0.17604284717E-01  0.51100000000E-03 0.  1.
</event>
<event>
 8    1  0.1177602E+005  0.1043930E+01  0.7957747E-01            NaN
         13   -1    0    0    0    0  0.00000000000E+00  0.00000000000E+00  0.74505805969E-08  0.10566000000E+00  0.10566000000E+00 0. -1.
     999900   -1    0    0    0    0 -0.00000000000E+00 -0.00000000000E+00 -0.74505805969E-08  0.93827000000E+00  0.93827000000E+00 0. -1.
     999902    2    1    2    0    0  0.24449788049E-02 -0.25835438369E-02  0.23499333071E-01  0.10201629793E+01  0.10198860882E+01 0.  0.
     999903    2    3    3    0    0  0.59550490185E-02  0.36989570990E-01  0.12637600169E+00  0.13327969440E+00  0.19720349057E-01 0.  0.
         14    1    1    2    0    0 -0.24449788049E-02  0.25835438369E-02 -0.23499333071E-01  0.23767020741E-01  0.00000000000E+00 0.  1.
     999901    1    3    3    0    0 -0.35100702136E-02 -0.39573114827E-01 -0.10287666862E+00  0.88688328486E+00  0.88000000000E+00 0. -1.
        -11    1    4    4    0    0  0.13115160461E-01  0.20452772776E-01  0.73936727909E-01  0.77828171012E-01  0.51100000000E-03 0.  1.
         11    1    4    4    0    0 -0.71601114428E-02  0.16536798214E-01  0.52439273778E-01  0.55451523392E-01  0.51100000000E-03 0. -1.
</event>
<event>
 8    1  0.1177602E+005  0.1043930E+01  0.7957747E-01            NaN
         13   -1    0    0    0    0  0.00000000000E+00  0.00000000000E+00  0.74505805969E-08  0.10566000000E+00  0.10566000000E+00 0.  1.
     999900   -1    0    0    0    0 -0.00000000000E+00 -0.00000000000E+00 -0.74505805969E-08  0.93827000000E+00  0.93827000000E+00 0. -1.
     999902    2    1    2    0    0 -0.12359636133E-01  0.12702316211E-01  0.13023804771E-01  0.10219361615E+01  0.10216994613E+01 0.  0.
     999903    2    3    3    0    0 -0.12137492735E+00 -0.33664874724E-01  0.39024632651E-01  0.13361735993E+00  0.21574988845E-01 0.  0.
         14    1    1    2    0    0  0.12359636133E-01 -0.12702316211E-01 -0.13023804771E-01  0.21993838528E-01  0.00000000000E+00 0. -1.
     999901    1    3    3    0    0  0.10901529121E+00  0.46367190935E-01 -0.26000827880E-01  0.88831880154E+00  0.88000000000E+00 0. -1.
        -11    1    4    4    0    0 -0.50129882524E-01 -0.36710792963E-02  0.19237423378E-01  0.53822128575E-01  0.51100000000E-03 0. -1.
         11    1    4    4    0    0 -0.71245044823E-01 -0.29993795428E-01  0.19787209273E-01  0.79795231360E-01  0.51100000000E-03 0.  1.
</event>
<event>
 8    1  0.1177602E+005  0.1043930E+01  0.7957747E-01            NaN
         13   -1    0    0    0    0  0.00000000000E+00  0.00000000000E+00  0.74505805969E-08  0.10566000000E+00  0.10566000000E+00 0.  1.
     999900   -1    0    0    0    0 -0.00000000000E+00 -0.00000000000E+00 -0.74505805969E-08  0.93827000000E+00  0.93827000000E+00 0. -1.
     999902    2    1    2    0    0  0.19250918838E-01 -0.15476634504E-01  0.52405196907E-03  0.10192237514E+01  0.10189242644E+01 0.  0.
     999903    2    3    3    0    0 -0.13917000059E-01 -0.35954653821E-01  0.12252966101E+00  0.12995167333E+00  0.19685008290E-01 0.  0.
         14    1    1    2    0    0 -0.19250918838E-01  0.15476634504E-01 -0.52405196907E-03  0.24706248646E-01  0.00000000000E+00 0. -1.
     999901    1    3    3    0    0  0.33167918898E-01  0.20478019317E-01 -0.12200560904E+00  0.88927207803E+00  0.88000000000E+00 0. -1.
        -11    1    4    4    0    0  0.98547559510E-03 -0.21243294430E-01  0.47359227270E-01  0.51917302020E-01  0.51100000000E-03 0. -1.
         11    1    4    4    0    0 -0.14902475655E-01 -0.14711359391E-01  0.75170433740E-01  0.78034371308E-01  0.51100000000E-03 0.  1.
</event>
<event>
 8    1  0.1177602E+005  0.1043930E+01  0.7957747E-01            NaN
         13   -1    0    0    0    0  0.00000000000E+00  0.00000000000E+00  0.74505805969E-08  0.10566000000E+00  0.10566000000E+00 0.  1.
     999900   -1    0    0    0    0 -0.00000000000E+00 -0.00000000000E+00 -0.74505805969E-08  0.93827000000E+00  0.93827000000E+00 0.  1.
     999902    2    1    2    0    0  0.30354096706E-02  0.19449311871E-01  0.11747675991E-01  0.10210062713E+01  0.10207488961E+01 0.  0.
     999903    2    3    3    0    0  0.74814898898E-01  0.80930917342E-01 -0.70227646375E-01  0.13215744485E+00  0.19661776005E-01 0.  0.
         14    1    1    2    0    0 -0.30354096706E-02 -0.19449311871E-01 -0.11747675991E-01  0.22923728652E-01  0.00000000000E+00 0. -1.
     999901    1    3    3    0    0 -0.71779489227E-01 -0.61481605471E-01  0.81975322366E-01  0.88884882650E+00  0.88000000000E+00 0.  1.
        -11    1    4    4    0    0  0.21295485274E-01  0.36875408140E-01 -0.24883140833E-01  0.49322664539E-01  0.51100000000E-03 0. -1.
         11    1    4    4    0    0  0.53519413624E-01  0.44055509202E-01 -0.45344505542E-01  0.82834780314E-01  0.51100000000E-03 0.  1.
</event>
<event>
 8    1  0.1177602E+005  0.1043930E+01  0.7957747E-01            NaN
         13   -1    0    0    0    0  0.00000000000E+00  0.00000000000E+00  0.74505805969E-08  0.10566000000E+00  0.10566000000E+00 0. -1.
     999900   -1    0    0    0    0 -0.00000000000E+00 -0.00000000000E+00 -0.74505805969E-08  0.93827000000E+00  0.93827000000E+00 0. -1.
     999902    2    1    2    0    0  0.20692063020E-01  0.13819464682E-01 -0.39332439785E-04  0.10190474635E+01  0.10187436342E+01 0.  0.
     999903    2    3    3    0    0 -0.97015971929E-01  0.26078223644E-01 -0.76516415688E-01  0.12783805885E+00  0.19890572198E-01 0.  0.
         14    1    1    2    0    0 -0.20692063020E-01 -0.13819464682E-01  0.39332439785E-04  0.24882536509E-01  0.00000000000E+00 0. -1.
     999901    1    3    3    0    0  0.11770803495E+00 -0.12258758962E-01  0.76477083248E-01  0.89120940464E+00  0.88000000000E+00 0.  1.
        -11    1    4    4    0    0 -0.31485550824E-01 -0.96921774043E-03 -0.22692844317E-01  0.38826609405E-01  0.51100000000E-03 0.  1.
         11    1    4    4    0    0 -0.65530421104E-01  0.27047441384E-01 -0.53823571372E-01  0.89011449442E-01  0.51100000000E-03 0. -1.
</event>
<event>
 8    1  0.1177602E+005  0.1043930E+01  0.7957747E-01            NaN
         13   -1    0    0    0    0  0.00000000000E+00  0.00000000000E+00  0.74505805969E-08  0.10566000000E+00  0.10566000000E+00 0. -1.
     999900   -1    0    0    0    0 -0.00000000000E+00 -0.00000000000E+00 -0.74505805969E-08  0.93827000000E+00  0.93827000000E+00 0. -1.
     999902    2    1    2    0    0 -0.16505292823E-01  0.10904673882E-02  0.17179137608E-01  0.10200818013E+01  0.10198029932E+01 0.  0.
     999903    2    3    3    0    0 -0.48494341540E-01  0.57457556666E-01 -0.10352564825E+00  0.12948077208E+00  0.19865510630E-01 0.  0.
         14    1    1    2    0    0  0.16505292823E-01 -0.10904673882E-02 -0.17179137608E-01  0.23848198658E-01  0.00000000000E+00 0.  1.
     999901    1    3    3    0    0  0.31989048717E-01 -0.56367089277E-01  0.12070478586E+00  0.89060102926E+00  0.88000000000E+00 0.  1.
        -11    1    4    4    0    0 -0.36306886732E-01  0.53042338130E-01 -0.91273517191E-01  0.11163689229E+00  0.51100000000E-03 0.  1.
         11    1    4    4    0    0 -0.12187454808E-01  0.44152185358E-02 -0.12252131063E-01  0.17843879792E-01  0.51100000000E-03 0. -1.
</event>
<event>
 8    1  0.1177602E+005  0.1043930E+01  0.7957747E-01            NaN
         13   -1    0    0    0    0  0.00000000000E+00  0.00000000000E+00  0.74505805969E-08  0.10566000000E+00  0.10566000000E+00 0.  1.
     999900   -1    0    0    0    0 -0.00000000000E+00 -0.00000000000E+00 -0.74505805969E-08  0.93827000000E+00  0.93827000000E+00 0. -1.
     999902    2    1    2    0    0 -0.72243325203E-02 -0.21529760792E-01 -0.45870878116E-02  0.10207618547E+01  0.10204988982E+01 0.  0.
     999903    2    3    3    0    0  0.12011947977E+00 -0.48216546816E-01  0.40328975794E-02  0.13115355036E+00  0.20771728451E-01 0.  0.
         14    1    1    2    0    0  0.72243325203E-02  0.21529760792E-01  0.45870878116E-02  0.23168145258E-01  0.00000000000E+00 0.  1.
     999901    1    3    3    0    0 -0.12734381229E+00  0.26686786024E-01 -0.86199853910E-02  0.88960830438E+00  0.88000000000E+00 0.  1.
        -11    1    4    4    0    0  0.23090967203E-01 -0.87969591150E-03  0.15211100322E-02  0.23163366076E-01  0.51100000000E-03 0. -1.
         11    1    4    4    0    0  0.97028512564E-01 -0.47336850905E-01  0.25117875472E-02  0.10799018428E+00  0.51100000000E-03 0.  1.
</event>
<event>
 8    1  0.1177602E+005  0.1043930E+01  0.7957747E-01            NaN
         13   -1    0    0    0    0  0.00000000000E+00  0.00000000000E+00  0.74505805969E-08  0.10566000000E+00  0.10566000000E+00 0.  1.
     999900   -1    0    0    0    0 -0.00000000000E+00 -0.00000000000E+00 -0.74505805969E-08  0.93827000000E+00  0.93827000000E+00 0. -1.
     999902    2    1    2    0    0  0.18310731321E-01 -0.13201867287E-01 -0.77188977512E-02  0.10200730605E+01  0.10197940454E+01 0.  0.
     999903    2    3    3    0    0  0.74988752015E-01 -0.94892958630E-01 -0.52420841803E-01  0.13334644181E+00  0.20133116040E-01 0.  0.
         14    1    1    2    0    0 -0.18310731321E-01  0.13201867287E-01  0.77188977512E-02  0.23856939533E-01  0.00000000000E+00 0.  1.
     999901    1    3    3    0    0 -0.56678020694E-01  0.81691091343E-01  0.44701944052E-01  0.88672661866E+00  0.88000000000E+00 0.  1.
        -11    1    4    4    0    0  0.45644165976E-01 -0.64176949013E-01 -0.24375611479E-01  0.82440901428E-01  0.51100000000E-03 0.  1.
         11    1    4    4    0    0  0.29344586039E-01 -0.30716009618E-01 -0.28045230324E-01  0.50905540382E-01  0.51100000000E-03 0. -1.
</event>
<event>
 8    1  0.1177602E+005  0.1043930E+01  0.7957747E-01            NaN
         13   -1    0    0    0    0  0.00000000000E+00  0.00000000000E+00  0.74505805969E-08  0.10566000000E+00  0.10566000000E+00 0.  1.
     999900   -1    0    0    0    0 -0.00000000000E+00 -0.00000000000E+00 -0.74505805969E-08  0.93827000000E+00  0.93827000000E+00 0.  1.
     999902    2    1    2    0    0 -0.70862168478E-02  0.16489031953E-01  0.16097068214E-01  0.10198215316E+01  0.10195365310E+01 0.  0.
     999903    2    3    3    0    0 -0.60938792023E-01  0.68268463505E-01  0.94691879434E-01  0.13316581840E+00  0.19810696018E-01 0.  0.
         14    1    1    2    0    0  0.70862168478E-02 -0.16489031953E-01 -0.16097068214E-01  0.24108468409E-01  0.00000000000E+00 0. -1.
     999901    1    3    3    0    0  0.53852575175E-01 -0.51779431552E-01 -0.78594811219E-01  0.88665571319E+00  0.88000000000E+00 0. -1.
        -11    1    4    4    0    0 -0.41046373686E-01  0.36066050514E-01  0.65891108606E-01  0.85600608098E-01  0.51100000000E-03 0.  1.
         11    1    4    4    0    0 -0.19892418337E-01  0.32202412990E-01  0.28800770828E-01  0.47565210301E-01  0.51100000000E-03 0. -1.
</event>
<event>
 8    1  0.1177602E+005  0.1043930E+01  0.7957747E-01            NaN
         13   -1    0    0    0    0  0.00000000000E+00  0.00000000000E+00  0.74505805969E-08  0.10566000000E+00  0.10566000000E+00 0. -1.
     999900   -1    0    0    0    0 -0.00000000000E+00 -0.00000000000E+00 -0.74505805969E-08  0.93827000000E+00  0.93827000000E+00 0. -1.
     999902    2    1    2    0    0 -0.23347398939E-01  0.46247986481E-02 -0.48689525074E-02  0.10196360399E+01  0.10193465835E+01 0.  0.
     999903    2    3    3    0    0  0.83603067512E-01  0.46904260388E-01 -0.83441396458E-01  0.12868172898E+00  0.20175187516E-01 0.  0.
         14    1    1    2    0    0  0.23347398939E-01 -0.46247986481E-02  0.48689525074E-02  0.24293960119E-01  0.00000000000E+00 0. -1.
     999901    1    3    3    0    0 -0.10695046645E+00 -0.42279461740E-01  0.78572443950E-01  0.89095431090E+00  0.88000000000E+00 0. -1.
        -11    1    4    4    0    0  0.37344625890E-01  0.12909864713E-01 -0.25001257849E-01  0.46761198710E-01  0.51100000000E-03 0.  1.
         11    1    4    4    0    0  0.46258441622E-01  0.33994395675E-01 -0.58440138609E-01  0.81920530273E-01  0.51100000000E-03 0. -1.
</event>
<event>
 8    1  0.1177602E+005  0.1043930E+01  0.7957747E-01            NaN
         13   -1    0    0    0    0  0.00000000000E+00  0.00000000000E+00  0.74505805969E-08  0.10566000000E+00  0.10566000000E+00 0. -1.
     999900   -1    0    0    0    0 -0.00000000000E+00 -0.00000000000E+00 -0.74505805969E-08  0.93827000000E+00  0.93827000000E+00 0. -1.
     999902    2    1    2    0    0 -0.50028929622E-02 -0.80429144970E-02 -0.21283308645E-01  0.10206341498E+01  0.10203682526E+01 0.  0.
     999903    2    3    3    0    0 -0.84441191769E-01 -0.87769211102E-01  0.43873541347E-01  0.13107687741E+00  0.20555069360E-01 0.  0.
         14    1    1    2    0    0  0.50028929622E-02  0.80429144970E-02  0.21283308645E-01  0.23295850241E-01  0.00000000000E+00 0. -1.
     999901    1    3    3    0    0  0.79438298807E-01  0.79726296605E-01 -0.65156849992E-01  0.88955727235E+00  0.88000000000E+00 0. -1.
        -11    1    4    4    0    0 -0.20774964358E-01 -0.27010308249E-01  0.21413826368E-01  0.40248838201E-01  0.51100000000E-03 0. -1.
         11    1    4    4    0    0 -0.63666227411E-01 -0.60758902853E-01  0.22459714978E-01  0.90828039209E-01  0.51100000000E-03 0.  1.
</event>
<event>
 8    1  0.1177602E+005  0.1043930E+01  0.7957747E-01            NaN
         13   -1    0    0    0    0  0.00000000000E+00  0.00000000000E+00  0.74505805969E-08  0.10566000000E+00  0.10566000000E+00 0. -1.
     999900   -1    0    0    0    0 -0.00000000000E+00 -0.00000000000E+00 -0.74505805969E-08  0.93827000000E+00  0.93827000000E+00 0. -1.
     999902    2    1    2    0    0  0.24023683630E-01 -0.88536465583E-03 -0.42129348926E-02  0.10195236470E+01  0.10192314736E+01 0.  0.
     999903    2    3    3    0    0  0.90663173908E-01 -0.94010209541E-01  0.56927297082E-02  0.13204903859E+00  0.18622857480E-01 0.  0.
         14    1    1    2    0    0 -0.24023683630E-01  0.88536465583E-03  0.42129348926E-02  0.24406352987E-01  0.00000000000E+00 0.  1.
     999901    1    3    3    0    0 -0.66639490278E-01  0.93124844885E-01 -0.99056646008E-02  0.88747460842E+00  0.88000000000E+00 0. -1.
        -11    1    4    4    0    0  0.48654485050E-01 -0.56723561499E-01  0.11360276021E-01  0.75591919786E-01  0.51100000000E-03 0.  1.
         11    1    4    4    0    0  0.42008688858E-01 -0.37286648041E-01 -0.56675463131E-02  0.56457118807E-01  0.51100000000E-03 0. -1.
</event>
<event>
 7    1  0.1177602E+005  0.1043930E+01  0.7957747E-01            NaN
         13   -1    0    0    0    0  0.00000000000E+00  0.00000000000E+00  0.74505805969E-08  0.10566000000E+00  0.10566000000E+00 0.  1.
     999900   -1    0    0    0    0 -0.00000000000E+00 -0.00000000000E+00 -0.74505805969E-08  0.93827000000E+00  0.93827000000E+00 0.  1.
     999903    2    1    2    0    0  0.56660187742E-02  0.59755400843E-01 -0.63332764269E-01  0.89523475892E-01  0.20015044521E-01 0.  0.
         14    1    1    2    0    0 -0.11169335736E-01  0.25362804912E-01 -0.55789465437E-01  0.62293582234E-01  0.00000000000E+00 0. -1.
     999901    1    1    2    0    0  0.55033169617E-02 -0.85118205755E-01  0.11912222971E+00  0.89211294187E+00  0.88000000000E+00 0. -1.
        -11    1    3    3    0    0  0.11402938394E-01  0.49034943842E-01 -0.45039305481E-01  0.67551853274E-01  0.51100000000E-03 0. -1.
         11    1    3    3    0    0 -0.57369196194E-02  0.10720457001E-01 -0.18293458788E-01  0.21971622618E-01  0.51100000000E-03 0.  1.
</event>
<event>
 8    1  0.1177602E+005  0.1043930E+01  0.7957747E-01            NaN
         13   -1    0    0    0    0  0.00000000000E+00  0.00000000000E+00  0.74505805969E-08  0.10566000000E+00  0.10566000000E+00 0. -1.
     999900   -1    0    0    0    0 -0.00000000000E+00 -0.00000000000E+00 -0.74505805969E-08  0.93827000000E+00  0.93827000000E+00 0.  1.
     999902    2    1    2    0    0  0.66596243072E-02  0.86889447400E-02  0.21234639391E-01  0.10200394524E+01  0.10197596413E+01 0.  0.
     999903    2    3    3    0    0  0.11766947732E+00  0.14109207099E-01  0.55729946526E-01  0.13237820339E+00  0.19312849969E-01 0.  0.
         14    1    1    2    0    0 -0.66596243072E-02 -0.86889447400E-02 -0.21234639391E-01  0.23890547643E-01  0.00000000000E+00 0.  1.
     999901    1    3    3    0    0 -0.11100985301E+00 -0.54202623593E-02 -0.34495307136E-01  0.88766124897E+00  0.88000000000E+00 0.  1.
        -11    1    4    4    0    0  0.21173374237E-01 -0.41362390261E-02  0.65932409062E-02  0.22564401089E-01  0.51100000000E-03 0.  1.
         11    1    4    4    0    0  0.96496103085E-01  0.18245446125E-01  0.49136705620E-01  0.10981380230E+00  0.51100000000E-03 0. -1.
</event>
<event>
 8    1  0.1177602E+005  0.1043930E+01  0.7957747E-01            NaN
         13   -1    0    0    0    0  0.00000000000E+00  0.00000000000E+00  0.74505805969E-08  0.10566000000E+00  0.10566000000E+00 0. -1.
     999900   -1    0    0    0    0 -0.00000000000E+00 -0.00000000000E+00 -0.74505805969E-08  0.93827000000E+00  0.93827000000E+00 0. -1.
     999902    2    1    2    0    0 -0.59863685924E-02  0.14608510622E-01  0.18241507424E-01  0.10198053698E+01  0.10195199823E+01 0.  0.
     999903    2    3    3    0    0  0.27577206100E-01  0.37145294973E-01  0.12273657161E+00  0.13270129545E+00  0.20126911594E-01 0.  0.
         14    1    1    2    0    0  0.59863685924E-02 -0.14608510622E-01 -0.18241507424E-01  0.24124630248E-01  0.00000000000E+00 0.  1.
     999901    1    3    3    0    0 -0.33563574692E-01 -0.22536784351E-01 -0.10449506418E+00  0.88710407430E+00  0.88000000000E+00 0. -1.
        -11    1    4    4    0    0  0.11901890709E-02  0.17384017551E-01  0.39702503218E-01  0.43360932866E-01  0.51100000000E-03 0.  1.
         11    1    4    4    0    0  0.26387017029E-01  0.19761277422E-01  0.83034068390E-01  0.89340362589E-01  0.51100000000E-03 0. -1.
</event>
<event>
 8    1  0.1177602E+005  0.1043930E+01  0.7957747E-01            NaN
         13   -1    0    0    0    0  0.00000000000E+00  0.00000000000E+00  0.74505805969E-08  0.10566000000E+00  0.10566000000E+00 0. -1.
     999900   -1    0    0    0    0 -0.00000000000E+00 -0.00000000000E+00 -0.74505805969E-08  0.93827000000E+00  0.93827000000E+00 0. -1.
     999902    2    1    2    0    0  0.19404546915E-01 -0.49281068083E-02 -0.13752839453E-01  0.10196408405E+01  0.10193514999E+01 0.  0.
     999903    2    3    3    0    0 -0.87434780060E-01 -0.85724820703E-01  0.33177913369E-01  0.12826816514E+00  0.18930467609E-01 0.  0.
         14    1    1    2    0    0 -0.19404546915E-01  0.49281068083E-02  0.13752839453E-01  0.24289159531E-01  0.00000000000E+00 0. -1.
     999901    1    3    3    0    0  0.10683932698E+00  0.80796713895E-01 -0.46930752822E-01  0.89137267533E+00  0.88000000000E+00 0. -1.
        -11    1    4    4    0    0 -0.50980720274E-01 -0.46167163062E-01  0.27867136866E-01  0.74211045155E-01  0.51100000000E-03 0.  1.
         11    1    4    4    0    0 -0.36454059786E-01 -0.39557657641E-01  0.53107765029E-02  0.54057119985E-01  0.51100000000E-03 0. -1.
</event>
