<event>
 7    1  0.5676831E-066  0.9118800E+02  0.7957747E-01            NaN
     999900   -1    0    0    0    0  0.00000000000E+00  0.00000000000E+00  0.99999998245E-14  0.93827000000E+00  0.93827000000E+00 0.  1.
        -11    1    1    0    0    0 -0.15858894168E-02 -0.67502449569E-02 -0.85792094727E-03  0.70055693254E-02  0.51100000000E-03 0. -1.
        -14    1    1    0    0    0 -0.24134997422E-02  0.62461389457E-03 -0.16765504463E-05  0.24930155101E-02  0.00000000000E+00 0. -1.
         12    1    1    0    0    0  0.57038400662E-03 -0.12470327086E-02 -0.10526344500E-02  0.17287185360E-02  0.00000000000E+00 0.  1.
         14    1    1    0    0    0 -0.12081700614E-02  0.32973442089E-02  0.13224499212E-02  0.37524695233E-02  0.00000000000E+00 0.  1.
     999901    1    1    0    0    0  0.12421490993E-01 -0.22241019480E-02 -0.55143207117E-02  0.90010535372E+00  0.90000000000E+00 0.  1.
     999903    1    1    0    0    0 -0.77843157789E-02  0.62994215101E-02  0.61041027383E-02  0.23184873382E-01  0.20000000000E-01 0.  0.
</event>
<event>
 7    1  0.5676831E-066  0.9118800E+02  0.7957747E-01            NaN
     999900   -1    0    0    0    0  0.00000000000E+00  0.00000000000E+00  0.99999998245E-14  0.93827000000E+00  0.93827000000E+00 0. -1.
        -11    1    1    0    0    0 -0.45831823939E-02  0.45258341623E-03  0.43778786527E-02  0.63747419636E-02  0.51100000000E-03 0. -1.
        -14    1    1    0    0    0 -0.51909362419E-02  0.13898319490E-02 -0.21014272186E-02  0.57700475101E-02  0.00000000000E+00 0. -1.
         12    1    1    0    0    0 -0.42489857161E-03 -0.36129858920E-03 -0.73406974036E-03  0.92191857039E-03  0.00000000000E+00 0.  1.
         14    1    1    0    0    0  0.23698598884E-02  0.28454365535E-02  0.28779794465E-03  0.37142391855E-02  0.00000000000E+00 0.  1.
     999901    1    1    0    0    0  0.21098591771E-02 -0.22515625679E-03 -0.52198429099E-02  0.90001763814E+00  0.90000000000E+00 0.  1.
     999903    1    1    0    0    0  0.57192981419E-02 -0.41013970727E-02  0.33896632715E-02  0.21471414631E-01  0.20000000000E-01 0.  0.
</event>
<event>
 7    1  0.5676831E-066  0.9118800E+02  0.7957747E-01            NaN
     999900   -1    0    0    0    0  0.00000000000E+00  0.00000000000E+00  0.99999998245E-14  0.93827000000E+00  0.93827000000E+00 0. -1.
        -11    1    1    0    0    0  0.18359440668E-02 -0.33700402287E-02 -0.36311183589E-02  0.53079189233E-02  0.51100000000E-03 0. -1.
        -14    1    1    0    0    0 -0.31853485149E-03 -0.26369868229E-02  0.32541206905E-02  0.42005315644E-02  0.00000000000E+00 0. -1.
         12    1    1    0    0    0  0.18816850976E-02  0.57615659308E-03 -0.10395480728E-02  0.22256134933E-02  0.00000000000E+00 0.  1.
         14    1    1    0    0    0 -0.25981681612E-02  0.39937174394E-02  0.11232568399E-03  0.47658025388E-02  0.00000000000E+00 0.  1.
     999901    1    1    0    0    0 -0.74188341242E-02  0.44509541610E-02 -0.30574965410E-02  0.90004677566E+00  0.90000000000E+00 0.  1.
     999903    1    1    0    0    0  0.66179079725E-02 -0.30138011418E-02  0.43617165983E-02  0.21723357819E-01  0.20000000000E-01 0.  0.
</event>
<event>
 7    1  0.5676831E-066  0.9118800E+02  0.7957747E-01            NaN
     999900   -1    0    0    0    0  0.00000000000E+00  0.00000000000E+00  0.99999998245E-14  0.93827000000E+00  0.93827000000E+00 0.  1.
        -11    1    1    0    0    0 -0.16761468815E-02 -0.13406127811E-02  0.35679150590E-02  0.41949791257E-02  0.51100000000E-03 0. -1.
        -14    1    1    0    0    0  0.50801843386E-03 -0.61973990395E-03 -0.42370330894E-02  0.43121467598E-02  0.00000000000E+00 0. -1.
         12    1    1    0    0    0  0.18341589992E-02 -0.27351933500E-02  0.14146946866E-02  0.35842409172E-02  0.00000000000E+00 0.  1.
         14    1    1    0    0    0  0.65200354478E-04  0.33755587715E-02 -0.16312199877E-02  0.37496035463E-02  0.00000000000E+00 0.  1.
     999901    1    1    0    0    0  0.57173349529E-02  0.22889984925E-03  0.84805184341E-02  0.90005814229E+00  0.90000000000E+00 0.  1.
     999903    1    1    0    0    0 -0.64485658588E-02  0.10910874143E-02 -0.75948751026E-02  0.22370887358E-01  0.20000000000E-01 0.  0.
</event>
<event>
 7    1  0.5676831E-066  0.9118800E+02  0.7957747E-01            NaN
     999900   -1    0    0    0    0  0.00000000000E+00  0.00000000000E+00  0.99999998245E-14  0.93827000000E+00  0.93827000000E+00 0. -1.
        -11    1    1    0    0    0 -0.21092831532E-02  0.82117659050E-02  0.40707969898E-03  0.85034704433E-02  0.51100000000E-03 0. -1.
        -14    1    1    0    0    0 -0.36200675639E-03 -0.18172027727E-02  0.14097492029E-02  0.23282327254E-02  0.00000000000E+00 0. -1.
         12    1    1    0    0    0 -0.15530399037E-02 -0.12553979388E-02  0.27373060282E-03  0.20156600334E-02  0.00000000000E+00 0.  1.
         14    1    1    0    0    0 -0.13087590658E-02 -0.78110979315E-03 -0.23392759014E-02  0.27919875616E-02  0.00000000000E+00 0.  1.
     999901    1    1    0    0    0  0.96205996287E-02  0.46970041556E-02  0.31875575799E-02  0.90006931861E+00  0.90000000000E+00 0. -1.
     999903    1    1    0    0    0 -0.42875107496E-02 -0.90550595559E-02 -0.29388411832E-02  0.22561330623E-01  0.20000000000E-01 0.  0.
</event>
<event>
 7    1  0.5676831E-066  0.9118800E+02  0.7957747E-01            NaN
     999900   -1    0    0    0    0  0.00000000000E+00  0.00000000000E+00  0.99999998245E-14  0.93827000000E+00  0.93827000000E+00 0. -1.
        -11    1    1    0    0    0 -0.47616164535E-02 -0.35819735192E-03 -0.25910911300E-02  0.54567546067E-02  0.51100000000E-03 0. -1.
        -14    1    1    0    0    0 -0.35021139995E-02  0.14332965071E-02  0.31666699125E-02  0.49342618169E-02  0.00000000000E+00 0. -1.
         12    1    1    0    0    0  0.13281503671E-02  0.20567665406E-02  0.60161379948E-03  0.25211527451E-02  0.00000000000E+00 0.  1.
         14    1    1    0    0    0  0.15246955264E-03 -0.35134880502E-02 -0.91937839511E-03  0.36349830641E-02  0.00000000000E+00 0.  1.
     999901    1    1    0    0    0  0.87535877768E-02  0.39130859759E-02 -0.74668529248E-02  0.90008204706E+00  0.90000000000E+00 0. -1.
     999903    1    1    0    0    0 -0.19704772435E-02 -0.35314636215E-02  0.72090387379E-02  0.21640800711E-01  0.20000000000E-01 0.  0.
</event>
<event>
 7    1  0.5676831E-066  0.9118800E+02  0.7957747E-01            NaN
     999900   -1    0    0    0    0  0.00000000000E+00  0.00000000000E+00  0.99999998245E-14  0.93827000000E+00  0.93827000000E+00 0.  1.
        -11    1    1    0    0    0  0.71446977505E-03  0.59056158241E-03  0.68324823220E-03  0.12598330004E-02  0.51100000000E-03 0.  1.
        -14    1    1    0    0    0  0.10513813909E-02 -0.12875340762E-02 -0.48431066130E-02  0.51204324516E-02  0.00000000000E+00 0. -1.
         12    1    1    0    0    0 -0.48080662194E-02 -0.35593672023E-02  0.25310947157E-02  0.64956166844E-02  0.00000000000E+00 0.  1.
         14    1    1    0    0    0  0.13933035203E-02 -0.30045138655E-02  0.20724641121E-02  0.39068536911E-02  0.00000000000E+00 0.  1.
     999901    1    1    0    0    0 -0.10447726897E-03  0.18899192373E-02  0.49517170914E-02  0.90001561220E+00  0.90000000000E+00 0.  1.
     999903    1    1    0    0    0  0.17533888022E-02  0.53709343243E-02 -0.53954175385E-02  0.21471651968E-01  0.20000000000E-01 0.  0.
</event>
<event>
 7    1  0.5676831E-066  0.9118800E+02  0.7957747E-01            NaN
     999900   -1    0    0    0    0  0.00000000000E+00  0.00000000000E+00  0.99999998245E-14  0.93827000000E+00  0.93827000000E+00 0. -1.
        -11    1    1    0    0    0 -0.34567003103E-02  0.12985283664E-02  0.14368720320E-02  0.39950813747E-02  0.51100000000E-03 0. -1.
        -14    1    1    0    0    0 -0.45277194329E-02 -0.46918582077E-02  0.11190182723E-02  0.66155860359E-02  0.00000000000E+00 0. -1.
         12    1    1    0    0    0 -0.24588665512E-02  0.34182988740E-02 -0.18786372677E-02  0.46108643324E-02  0.00000000000E+00 0.  1.
         14    1    1    0    0    0  0.35909898105E-03 -0.77740724823E-03 -0.15299760186E-02  0.17533227670E-02  0.00000000000E+00 0.  1.
     999901    1    1    0    0    0  0.10519739935E-01 -0.54453405423E-02  0.41923331863E-02  0.90008771368E+00  0.90000000000E+00 0. -1.
     999903    1    1    0    0    0 -0.43555262200E-03  0.61977787578E-02 -0.33396102044E-02  0.21207431809E-01  0.20000000000E-01 0.  0.
</event>
<event>
 7    1  0.5676831E-066  0.9118800E+02  0.7957747E-01            NaN
     999900   -1    0    0    0    0  0.00000000000E+00  0.00000000000E+00  0.99999998245E-14  0.93827000000E+00  0.93827000000E+00 0. -1.
        -11    1    1    0    0    0 -0.96541858187E-04 -0.48108654218E-03  0.22973589854E-02  0.24041097935E-02  0.51100000000E-03 0. -1.
        -14    1    1    0    0    0  0.40835068295E-02 -0.27961871908E-02  0.42767097062E-03  0.49675540552E-02  0.00000000000E+00 0. -1.
         12    1    1    0    0    0 -0.12433171446E-03 -0.83640616952E-03 -0.24789345517E-02  0.26191888377E-02  0.00000000000E+00 0.  1.
         14    1    1    0    0    0  0.58105232112E-03  0.21987375974E-02 -0.35330142494E-04  0.22744926997E-02  0.00000000000E+00 0.  1.
     999901    1    1    0    0    0 -0.42726582863E-02 -0.45430430302E-02 -0.15266419902E-01  0.90015107533E+00  0.90000000000E+00 0.  1.
     999903    1    1    0    0    0 -0.17102729170E-03  0.64579853353E-02  0.15055654640E-01  0.25853579280E-01  0.20000000000E-01 0.  0.
</event>
<event>
 7    1  0.5676831E-066  0.9118800E+02  0.7957747E-01            NaN
     999900   -1    0    0    0    0  0.00000000000E+00  0.00000000000E+00  0.99999998245E-14  0.93827000000E+00  0.93827000000E+00 0. -1.
        -11    1    1    0    0    0 -0.13773913567E-02  0.67909903025E-02 -0.77785854872E-03  0.69914906250E-02  0.51100000000E-03 0. -1.
        -14    1    1    0    0    0 -0.34646037949E-02  0.36776427735E-03 -0.36943992792E-02  0.50781213115E-02  0.00000000000E+00 0. -1.
         12    1    1    0    0    0  0.79589250290E-03 -0.23606789015E-02  0.28472723443E-03  0.25074527613E-02  0.00000000000E+00 0.  1.
         14    1    1    0    0    0 -0.22458096762E-02  0.41888565077E-03 -0.42891244969E-04  0.22849433142E-02  0.00000000000E+00 0.  1.
     999901    1    1    0    0    0  0.10233380444E-01  0.55225700809E-03  0.15983666880E-02  0.90005976570E+00  0.90000000000E+00 0.  1.
     999903    1    1    0    0    0 -0.39414681192E-02 -0.57692183372E-02  0.26320551505E-02  0.21348226284E-01  0.20000000000E-01 0.  0.
</event>
<event>
 7    1  0.5676831E-066  0.9118800E+02  0.7957747E-01            NaN
     999900   -1    0    0    0    0  0.00000000000E+00  0.00000000000E+00  0.99999998245E-14  0.93827000000E+00  0.93827000000E+00 0. -1.
        -11    1    1    0    0    0 -0.51267056333E-03 -0.44543420768E-02 -0.59666466110E-02  0.74810418542E-02  0.51100000000E-03 0. -1.
        -14    1    1    0    0    0 -0.35826660223E-03  0.55291604252E-03 -0.13221873073E-03  0.67197686054E-03  0.00000000000E+00 0. -1.
         12    1    1    0    0    0 -0.89759894508E-04 -0.18190575269E-02  0.33213359776E-03  0.18513076059E-02  0.00000000000E+00 0.  1.
         14    1    1    0    0    0 -0.27442516241E-03  0.15718277546E-02  0.18364262752E-02  0.24327788893E-02  0.00000000000E+00 0.  1.
     999901    1    1    0    0    0 -0.12484037595E-01  0.83015271627E-02  0.11134825101E-01  0.90019372964E+00  0.90000000000E+00 0. -1.
     999903    1    1    0    0    0  0.13719159818E-01 -0.41528713562E-02 -0.72045196326E-02  0.25639165153E-01  0.20000000000E-01 0.  0.
</event>
<event>
 7    1  0.5676831E-066  0.9118800E+02  0.7957747E-01            NaN
     999900   -1    0    0    0    0  0.00000000000E+00  0.00000000000E+00  0.99999998245E-14  0.93827000000E+00  0.93827000000E+00 0.  1.
        -11    1    1    0    0    0  0.12123546700E-02 -0.20517799021E-02 -0.56691467799E-03  0.25024223993E-02  0.51100000000E-03 0. -1.
        -14    1    1    0    0    0  0.23868104837E-02  0.28761453076E-02  0.17727873436E-02  0.41366473238E-02  0.00000000000E+00 0. -1.
         12    1    1    0    0    0  0.32124069398E-02 -0.24815760902E-02 -0.24308299086E-04  0.40593557533E-02  0.00000000000E+00 0.  1.
         14    1    1    0    0    0 -0.23289837725E-02 -0.13973754930E-02 -0.34976744894E-02  0.44283801232E-02  0.00000000000E+00 0.  1.
     999901    1    1    0    0    0 -0.41974495053E-02  0.32318672499E-02 -0.91991409429E-02  0.90006260212E+00  0.90000000000E+00 0. -1.
     999903    1    1    0    0    0 -0.28513881565E-03 -0.17728107231E-03  0.11515251066E-01  0.23080592276E-01  0.20000000000E-01 0.  0.
</event>
<event>
 7    1  0.5676831E-066  0.9118800E+02  0.7957747E-01            NaN
     999900   -1    0    0    0    0  0.00000000000E+00  0.00000000000E+00  0.99999998245E-14  0.93827000000E+00  0.93827000000E+00 0. -1.
        -11    1    1    0    0    0  0.14283022519E-02  0.18772200164E-02  0.13155425642E-02  0.27487771010E-02  0.51100000000E-03 0. -1.
        -14    1    1    0    0    0 -0.20304382983E-02 -0.22069646035E-02  0.66448627732E-04  0.29996312881E-02  0.00000000000E+00 0. -1.
         12    1    1    0    0    0 -0.71091828081E-03 -0.59232096540E-02  0.54388179916E-02  0.80728284110E-02  0.00000000000E+00 0.  1.
         14    1    1    0    0    0 -0.74359087870E-03  0.35013714626E-04 -0.15206774224E-02  0.16931075506E-02  0.00000000000E+00 0.  1.
     999901    1    1    0    0    0 -0.68958516562E-02  0.11819470578E-01 -0.42421430144E-02  0.90011401968E+00  0.90000000000E+00 0.  1.
     999903    1    1    0    0    0  0.89524968621E-02 -0.56015300515E-02 -0.10579887467E-02  0.22641635965E-01  0.20000000000E-01 0.  0.
</event>
<event>
 7    1  0.5676831E-066  0.9118800E+02  0.7957747E-01            NaN
     999900   -1    0    0    0    0  0.00000000000E+00  0.00000000000E+00  0.99999998245E-14  0.93827000000E+00  0.93827000000E+00 0.  1.
        -11    1    1    0    0    0  0.28518530644E-02  0.31134839512E-02 -0.67330500616E-03  0.43059620117E-02  0.51100000000E-03 0. -1.
        -14    1    1    0    0    0 -0.10720891870E-02  0.17300795952E-02  0.37116204419E-02  0.42330458225E-02  0.00000000000E+00 0. -1.
         12    1    1    0    0    0 -0.24901932927E-02 -0.69139162213E-03 -0.38298705427E-02  0.46202806608E-02  0.00000000000E+00 0.  1.
         14    1    1    0    0    0 -0.21826296701E-02 -0.23898131128E-02  0.12111239259E-02  0.34557054497E-02  0.00000000000E+00 0.  1.
     999901    1    1    0    0    0  0.56336509461E-02 -0.51129805843E-02  0.64940091337E-02  0.90005558314E+00  0.90000000000E+00 0.  1.
     999903    1    1    0    0    0 -0.27405918607E-02  0.33506217728E-02 -0.69135779526E-02  0.21599422912E-01  0.20000000000E-01 0.  0.
</event>
<event>
 7    1  0.5676831E-066  0.9118800E+02  0.7957747E-01            NaN
     999900   -1    0    0    0    0  0.00000000000E+00  0.00000000000E+00  0.99999998245E-14  0.93827000000E+00  0.93827000000E+00 0. -1.
        -11    1    1    0    0    0  0.49894879912E-04  0.17481116025E-02 -0.66518363417E-03  0.19395808673E-02  0.51100000000E-03 0. -1.
        -14    1    1    0    0    0 -0.41922967752E-02 -0.28517175098E-02  0.28150833610E-02  0.57993395604E-02  0.00000000000E+00 0. -1.
         12    1    1    0    0    0 -0.18261743279E-02  0.73642925357E-03 -0.51948395140E-02  0.55555016243E-02  0.00000000000E+00 0.  1.
         14    1    1    0    0    0 -0.17327703915E-02 -0.16941621142E-02  0.21717341600E-02  0.32540909270E-02  0.00000000000E+00 0.  1.
     999901    1    1    0    0    0  0.14944783871E-01 -0.19071171557E-03  0.37993008825E-02  0.90013211121E+00  0.90000000000E+00 0.  1.
     999903    1    1    0    0    0 -0.72434372561E-02  0.22520504836E-02 -0.29260952555E-02  0.21589375816E-01  0.20000000000E-01 0.  0.
</event>
<event>
 7    1  0.5676831E-066  0.9118800E+02  0.7957747E-01            NaN
     999900   -1    0    0    0    0  0.00000000000E+00  0.00000000000E+00  0.99999998245E-14  0.93827000000E+00  0.93827000000E+00 0.  1.
        -11    1    1    0    0    0  0.15924203232E-02 -0.11207500425E-02  0.30128902604E-02  0.36236048163E-02  0.51100000000E-03 0. -1.
        -14    1    1    0    0    0 -0.13227898700E-02 -0.35408627973E-03 -0.14308888536E-02  0.19805537218E-02  0.00000000000E+00 0. -1.
         12    1    1    0    0    0 -0.30012832011E-02 -0.50141692819E-02 -0.24059763435E-02  0.63196769384E-02  0.00000000000E+00 0.  1.
         14    1    1    0    0    0 -0.81860390047E-03  0.23439142008E-02  0.26526178484E-03  0.24968800414E-02  0.00000000000E+00 0.  1.
     999901    1    1    0    0    0  0.53265814007E-02  0.46711666036E-02 -0.12096752031E-01  0.90010917320E+00  0.90000000000E+00 0. -1.
     999903    1    1    0    0    0 -0.17763247524E-02 -0.52607520034E-03  0.12655465183E-01  0.23740111283E-01  0.20000000000E-01 0.  0.
</event>
<event>
 7    1  0.5676831E-066  0.9118800E+02  0.7957747E-01            NaN
     999900   -1    0    0    0    0  0.00000000000E+00  0.00000000000E+00  0.99999998245E-14  0.93827000000E+00  0.93827000000E+00 0.  1.
        -11    1    1    0    0    0 -0.21887892024E-02 -0.15922593326E-02 -0.25014030384E-02  0.37207829976E-02  0.51100000000E-03 0. -1.
        -14    1    1    0    0    0 -0.20167613936E-02 -0.19608613124E-02  0.44608220788E-02  0.52736360534E-02  0.00000000000E+00 0. -1.
         12    1    1    0    0    0  0.40530678817E-02  0.16020059113E-02  0.21873597101E-02  0.48763023588E-02  0.00000000000E+00 0.  1.
         14    1    1    0    0    0 -0.17485607836E-02  0.41105481802E-03 -0.36793445457E-03  0.18335230132E-02  0.00000000000E+00 0.  1.
     999901    1    1    0    0    0  0.67972946212E-02  0.15772151751E-02  0.53481796357E-02  0.90004294000E+00  0.90000000000E+00 0.  1.
     999903    1    1    0    0    0 -0.48962511234E-02 -0.37155259413E-04 -0.91270239317E-02  0.22522815575E-01  0.20000000000E-01 0.  0.
</event>
<event>
 7    1  0.5676831E-066  0.9118800E+02  0.7957747E-01            NaN
     999900   -1    0    0    0    0  0.00000000000E+00  0.00000000000E+00  0.99999998245E-14  0.93827000000E+00  0.93827000000E+00 0.  1.
        -11    1    1    0    0    0 -0.61495008830E-04  0.52878581433E-04  0.41091313103E-02  0.41415768622E-02  0.51100000000E-03 0. -1.
        -14    1    1    0    0    0  0.72736848586E-03  0.73859064988E-03 -0.12954736682E-02  0.16591663832E-02  0.00000000000E+00 0. -1.
         12    1    1    0    0    0 -0.14661515160E-02  0.11663080755E-02  0.38984329149E-02  0.43252345586E-02  0.00000000000E+00 0.  1.
         14    1    1    0    0    0 -0.15938593684E-02  0.37970186248E-02  0.23997832488E-02  0.47662037058E-02  0.00000000000E+00 0.  1.
     999901    1    1    0    0    0  0.11148004760E-01  0.22508682450E-02 -0.94693518674E-02  0.90012166569E+00  0.90000000000E+00 0. -1.
     999903    1    1    0    0    0 -0.87538673529E-02 -0.80056641767E-02  0.35747806155E-03  0.23256152801E-01  0.20000000000E-01 0.  0.
</event>
<event>
 7    1  0.5676831E-066  0.9118800E+02  0.7957747E-01            NaN
     999900   -1    0    0    0    0  0.00000000000E+00  0.00000000000E+00  0.99999998245E-14  0.93827000000E+00  0.93827000000E+00 0.  1.
        -11    1    1    0    0    0  0.62537858401E-03 -0.38357736389E-02 -0.14761489953E-02  0.41886029460E-02  0.51100000000E-03 0. -1.
        -14    1    1    0    0    0  0.31901783564E-03  0.22420341406E-02  0.28755840019E-02  0.36602558406E-02  0.00000000000E+00 0. -1.
         12    1    1    0    0    0  0.26116592502E-02 -0.17718293926E-02 -0.47169085701E-04  0.31563219668E-02  0.00000000000E+00 0.  1.
         14    1    1    0    0    0 -0.24430045638E-02  0.21423082625E-02 -0.53370153384E-02  0.62483188709E-02  0.00000000000E+00 0.  1.
     999901    1    1    0    0    0 -0.58241297802E-02  0.34514548007E-02  0.74723420315E-02  0.90005648096E+00  0.90000000000E+00 0.  1.
     999903    1    1    0    0    0  0.47110786742E-02 -0.22281941722E-02 -0.34875926139E-02  0.20960019413E-01  0.20000000000E-01 0.  0.
</event>
<event>
 7    1  0.9965022E-066  0.9118800E+02  0.7957747E-01            NaN
     999900   -1    0    0    0    0  0.00000000000E+00  0.00000000000E+00  0.99999998245E-14  0.93827000000E+00  0.93827000000E+00 0.  1.
        -11    1    1    0    0    0  0.53041161690E-02  0.39317367984E-02  0.12027037654E-02  0.67305140913E-02  0.51100000000E-03 0. -1.
        -14    1    1    0    0    0 -0.31701870493E-02 -0.32904451090E-02  0.42606129420E-02  0.62473944637E-02  0.00000000000E+00 0. -1.
         12    1    1    0    0    0 -0.13890212236E-02 -0.21163339297E-03  0.11528971231E-03  0.14097731627E-02  0.00000000000E+00 0.  1.
         14    1    1    0    0    0  0.30427924754E-02 -0.24612750229E-03 -0.41150094933E-04  0.30530080455E-02  0.00000000000E+00 0.  1.
     999901    1    1    0    0    0 -0.87216350049E-02 -0.13275052961E-02 -0.77764289052E-02  0.90007683118E+00  0.90000000000E+00 0.  1.
     999903    1    1    0    0    0  0.49339346335E-02  0.11439745018E-02  0.22389725804E-02  0.20752479053E-01  0.20000000000E-01 0.  0.
</event>
<event>
 7    1  0.5676831E-066  0.9118800E+02  0.7957747E-01            NaN
     999900   -1    0    0    0    0  0.00000000000E+00  0.00000000000E+00  0.99999998245E-14  0.93827000000E+00  0.93827000000E+00 0.  1.
        -11    1    1    0    0    0  0.59981115069E-03  0.30137555499E-02  0.34692368529E-02  0.46625337825E-02  0.51100000000E-03 0. -1.
        -14    1    1    0    0    0  0.25815229195E-03 -0.20500605988E-02 -0.13646198371E-02  0.24762024078E-02  0.00000000000E+00 0. -1.
         12    1    1    0    0    0  0.25011198473E-02 -0.52221018582E-03 -0.13561785713E-02  0.28926673307E-02  0.00000000000E+00 0.  1.
         14    1    1    0    0    0  0.40787956402E-03 -0.61063782929E-02  0.32973898808E-02  0.69517624831E-02  0.00000000000E+00 0.  1.
     999901    1    1    0    0    0 -0.60167199348E-02 -0.10145991885E-02 -0.54166478152E-02  0.90003698280E+00  0.90000000000E+00 0. -1.
     999903    1    1    0    0    0  0.22497570809E-02  0.66794927162E-02  0.13708194899E-02  0.21249851198E-01  0.20000000000E-01 0.  0.
</event>
<event>
 7    1  0.5676831E-066  0.9118800E+02  0.7957747E-01            NaN
     999900   -1    0    0    0    0  0.00000000000E+00  0.00000000000E+00  0.99999998245E-14  0.93827000000E+00  0.93827000000E+00 0.  1.
        -11    1    1    0    0    0 -0.36786614736E-02 -0.20194665106E-02 -0.23102096215E-02  0.48175704167E-02  0.51100000000E-03 0. -1.
        -14    1    1    0    0    0  0.12693168848E-02  0.39949591837E-03 -0.21581058416E-02  0.25353861967E-02  0.00000000000E+00 0. -1.
         12    1    1    0    0    0  0.15031983291E-02  0.23246298958E-02 -0.16703214867E-02  0.32331846898E-02  0.00000000000E+00 0.  1.
         14    1    1    0    0    0 -0.25336288527E-02 -0.38098062772E-02 -0.12987307566E-02  0.47561119217E-02  0.00000000000E+00 0.  1.
     999901    1    1    0    0    0  0.11866499465E-01  0.87145825536E-02  0.32625188333E-02  0.90012632546E+00  0.90000000000E+00 0.  1.
     999903    1    1    0    0    0 -0.84267243524E-02 -0.56094355800E-02  0.41748488731E-02  0.22801421314E-01  0.20000000000E-01 0.  0.
</event>
<event>
 7    1  0.5676831E-066  0.9118800E+02  0.7957747E-01            NaN
     999900   -1    0    0    0    0  0.00000000000E+00  0.00000000000E+00  0.99999998245E-14  0.93827000000E+00  0.93827000000E+00 0.  1.
        -11    1    1    0    0    0 -0.32750708382E-02  0.22961460862E-02 -0.12317872990E-02  0.42162538817E-02  0.51100000000E-03 0. -1.
        -14    1    1    0    0    0  0.24649935222E-02 -0.25791017669E-04 -0.12034822928E-02  0.27432148786E-02  0.00000000000E+00 0. -1.
         12    1    1    0    0    0  0.23660012422E-02 -0.23747836516E-02 -0.45359176166E-04  0.33525537616E-02  0.00000000000E+00 0.  1.
         14    1    1    0    0    0 -0.20424870174E-02 -0.15043781196E-02  0.47042291057E-04  0.25371479500E-02  0.00000000000E+00 0.  1.
     999901    1    1    0    0    0  0.15534740048E-01 -0.12273636803E-02  0.22328302267E-03  0.90013492568E+00  0.90000000000E+00 0.  1.
     999903    1    1    0    0    0 -0.15048176957E-01  0.28361703830E-02  0.22103034542E-02  0.25285903850E-01  0.20000000000E-01 0.  0.
</event>
<event>
 7    1  0.5676831E-066  0.9118800E+02  0.7957747E-01            NaN
     999900   -1    0    0    0    0  0.00000000000E+00  0.00000000000E+00  0.99999998245E-14  0.93827000000E+00  0.93827000000E+00 0. -1.
        -11    1    1    0    0    0  0.50538581473E-03 -0.59099995901E-02  0.47803584734E-02  0.76352117266E-02  0.51100000000E-03 0. -1.
        -14    1    1    0    0    0  0.82703166905E-03  0.28189251664E-03  0.19554955200E-03  0.89536830402E-03  0.00000000000E+00 0. -1.
         12    1    1    0    0    0  0.29927901746E-03  0.77746609569E-03  0.17718429675E-02  0.19579195493E-02  0.00000000000E+00 0.  1.
         14    1    1    0    0    0  0.33093356545E-03 -0.43816384819E-02 -0.27446559339E-02  0.51808695222E-02  0.00000000000E+00 0.  1.
     999901    1    1    0    0    0 -0.10148308487E-01  0.37233477127E-02 -0.76423714029E-03  0.90006523960E+00  0.90000000000E+00 0. -1.
     999903    1    1    0    0    0  0.81856784202E-02  0.55089317469E-02 -0.32388579186E-02  0.22535391295E-01  0.20000000000E-01 0.  0.
</event>
<event>
 7    1  0.5676831E-066  0.9118800E+02  0.7957747E-01            NaN
     999900   -1    0    0    0    0  0.00000000000E+00  0.00000000000E+00  0.99999998245E-14  0.93827000000E+00  0.93827000000E+00 0.  1.
        -11    1    1    0    0    0  0.17996339046E-02 -0.28399784500E-03 -0.28837040747E-02  0.34490878732E-02  0.51100000000E-03 0. -1.
        -14    1    1    0    0    0 -0.20231704202E-02 -0.23652750844E-03 -0.21790972672E-02  0.29828893226E-02  0.00000000000E+00 0. -1.
         12    1    1    0    0    0 -0.11075144289E-02 -0.52983749671E-02 -0.95371923552E-03  0.54962665403E-02  0.00000000000E+00 0.  1.
         14    1    1    0    0    0 -0.38314457366E-02  0.26444961182E-02 -0.95546189734E-03  0.47524986680E-02  0.00000000000E+00 0.  1.
     999901    1    1    0    0    0 -0.25625279739E-02  0.92019927587E-03  0.69586654653E-02  0.90003101966E+00  0.90000000000E+00 0. -1.
     999903    1    1    0    0    0  0.77250246550E-02  0.22542049264E-02  0.13317009431E-04  0.21558237941E-01  0.20000000000E-01 0.  0.
</event>
<event>
 7    1  0.5676831E-066  0.9118800E+02  0.7957747E-01            NaN
     999900   -1    0    0    0    0  0.00000000000E+00  0.00000000000E+00  0.99999998245E-14  0.93827000000E+00  0.93827000000E+00 0.  1.
        -11    1    1    0    0    0  0.19491521550E-02  0.94977999315E-03  0.38004565294E-03  0.22598300505E-02  0.51100000000E-03 0. -1.
        -14    1    1    0    0    0 -0.40465004339E-02  0.10303018696E-02  0.18235976217E-02  0.45564455434E-02  0.00000000000E+00 0. -1.
         12    1    1    0    0    0  0.21369490300E-02  0.12838203379E-03 -0.51666072682E-02  0.55925721960E-02  0.00000000000E+00 0.  1.
         14    1    1    0    0    0 -0.49843655087E-03  0.13068224676E-02  0.42452942258E-03  0.14616597373E-02  0.00000000000E+00 0.  1.
     999901    1    1    0    0    0 -0.88280332519E-02  0.58924151922E-02  0.67994744484E-02  0.90008826655E+00  0.90000000000E+00 0.  1.
     999903    1    1    0    0    0  0.92868690516E-02 -0.93077015563E-02 -0.42610398775E-02  0.24311225923E-01  0.20000000000E-01 0.  0.
</event>
<event>
 7    1  0.5676831E-066  0.9118800E+02  0.7957747E-01            NaN
     999900   -1    0    0    0    0  0.00000000000E+00  0.00000000000E+00  0.99999998245E-14  0.93827000000E+00  0.93827000000E+00 0.  1.
        -11    1    1    0    0    0  0.13150236613E-02  0.26422991740E-02 -0.12061175538E-03  0.29977825722E-02  0.51100000000E-03 0. -1.
        -14    1    1    0    0    0 -0.93611663391E-03 -0.30505726532E-02  0.15266807274E-02  0.35373806564E-02  0.00000000000E+00 0. -1.
         12    1    1    0    0    0 -0.26014130422E-02 -0.28605570667E-02 -0.43260735390E-03  0.38906664815E-02  0.00000000000E+00 0.  1.
         14    1    1    0    0    0 -0.20288965285E-02  0.43598047661E-02  0.24369897580E-02  0.53910330923E-02  0.00000000000E+00 0.  1.
     999901    1    1    0    0    0  0.84418045029E-03 -0.76937314444E-02  0.34559117141E-02  0.90003991549E+00  0.90000000000E+00 0.  1.
     999903    1    1    0    0    0  0.34072220930E-02  0.66027572242E-02 -0.68663630902E-02  0.22413221710E-01  0.20000000000E-01 0.  0.
</event>
<event>
 7    1  0.5676831E-066  0.9118800E+02  0.7957747E-01            NaN
     999900   -1    0    0    0    0  0.00000000000E+00  0.00000000000E+00  0.99999998245E-14  0.93827000000E+00  0.93827000000E+00 0. -1.
        -11    1    1    0    0    0 -0.14373701771E-02  0.19200563713E-02  0.35757656147E-03  0.24782315251E-02  0.51100000000E-03 0. -1.
        -14    1    1    0    0    0  0.13874853617E-03 -0.21908584377E-02 -0.75276584381E-04  0.21965378245E-02  0.00000000000E+00 0. -1.
         12    1    1    0    0    0 -0.37952120064E-02  0.82118894613E-02 -0.14779682155E-02  0.91664143886E-02  0.00000000000E+00 0.  1.
         14    1    1    0    0    0  0.31370478321E-03 -0.23287852862E-02 -0.40909065575E-04  0.23501755577E-02  0.00000000000E+00 0.  1.
     999901    1    1    0    0    0 -0.29021882882E-02 -0.17608589838E-02 -0.23954202145E-02  0.90000958959E+00  0.90000000000E+00 0.  1.
     999903    1    1    0    0    0  0.76823171523E-02 -0.38514431248E-02  0.36319975185E-02  0.22069051111E-01  0.20000000000E-01 0.  0.
</event>
<event>
 7    1  0.5676831E-066  0.9118800E+02  0.7957747E-01            NaN
     999900   -1    0    0    0    0  0.00000000000E+00  0.00000000000E+00  0.99999998245E-14  0.93827000000E+00  0.93827000000E+00 0. -1.
        -11    1    1    0    0    0  0.22164423556E-02 -0.26908686349E-02  0.28716155837E-02  0.45454029289E-02  0.51100000000E-03 0. -1.
        -14    1    1    0    0    0 -0.46194947993E-03  0.25437231793E-02  0.10413017424E-02  0.27871552260E-02  0.00000000000E+00 0. -1.
         12    1    1    0    0    0  0.23940749444E-02 -0.55432316279E-03 -0.17835843728E-02  0.30364522428E-02  0.00000000000E+00 0.  1.
         14    1    1    0    0    0 -0.22898914805E-02  0.22578396360E-03  0.29981684575E-02  0.37793644294E-02  0.00000000000E+00 0.  1.
     999901    1    1    0    0    0  0.28439166622E-02  0.58201997289E-02  0.62308190805E-02  0.90004487982E+00  0.90000000000E+00 0. -1.
     999903    1    1    0    0    0 -0.47025930018E-02 -0.53445150742E-02 -0.11358320491E-01  0.24076745351E-01  0.20000000000E-01 0.  0.
</event>
<event>
 7    1  0.5676831E-066  0.9118800E+02  0.7957747E-01            NaN
     999900   -1    0    0    0    0  0.00000000000E+00  0.00000000000E+00  0.99999998245E-14  0.93827000000E+00  0.93827000000E+00 0. -1.
        -11    1    1    0    0    0 -0.51125856359E-02 -0.64713514980E-03 -0.38650988573E-03  0.51930556206E-02  0.51100000000E-03 0. -1.
        -14    1    1    0    0    0 -0.22186107085E-03 -0.12269291791E-02 -0.57722026833E-03  0.13739580719E-02  0.00000000000E+00 0. -1.
         12    1    1    0    0    0  0.65194642569E-03  0.11885760200E-02 -0.49371320272E-03  0.14427403869E-02  0.00000000000E+00 0.  1.
         14    1    1    0    0    0 -0.43554267574E-02 -0.29105680441E-02  0.18661907003E-02  0.55609186569E-02  0.00000000000E+00 0.  1.
     999901    1    1    0    0    0  0.20761512885E-01  0.14280217833E-02 -0.77872088398E-02  0.90027424726E+00  0.90000000000E+00 0.  1.
     999903    1    1    0    0    0 -0.11723585846E-01  0.21680345696E-02  0.73784614963E-02  0.24425080001E-01  0.20000000000E-01 0.  0.
</event>
<event>
 7    1  0.5676831E-066  0.9118800E+02  0.7957747E-01            NaN
     999900   -1    0    0    0    0  0.00000000000E+00  0.00000000000E+00  0.99999998245E-14  0.93827000000E+00  0.93827000000E+00 0. -1.
        -11    1    1    0    0    0 -0.21813773976E-02 -0.93998071711E-03  0.26743722607E-02  0.36132200443E-02  0.51100000000E-03 0. -1.
        -14    1    1    0    0    0 -0.49529384378E-03 -0.32769464092E-02  0.79062027879E-03  0.34071651245E-02  0.00000000000E+00 0. -1.
         12    1    1    0    0    0 -0.20677435233E-02  0.35219161004E-02  0.96844215835E-03  0.41973010984E-02  0.00000000000E+00 0.  1.
         14    1    1    0    0    0  0.16680638244E-02 -0.56019255155E-03 -0.16542284538E-02  0.24151033921E-02  0.00000000000E+00 0.  1.
     999901    1    1    0    0    0 -0.93919231172E-02  0.46985841177E-02  0.32518426092E-02  0.90006714160E+00  0.90000000000E+00 0. -1.
     999903    1    1    0    0    0  0.12468274057E-01 -0.34433805402E-02 -0.60310488532E-02  0.24570068738E-01  0.20000000000E-01 0.  0.
</event>
<event>
 7    1  0.5676831E-066  0.9118800E+02  0.7957747E-01            NaN
     999900   -1    0    0    0    0  0.00000000000E+00  0.00000000000E+00  0.99999998245E-14  0.93827000000E+00  0.93827000000E+00 0.  1.
        -11    1    1    0    0    0 -0.93120204844E-03  0.16798803697E-02 -0.86075383247E-03  0.21659070782E-02  0.51100000000E-03 0. -1.
        -14    1    1    0    0    0 -0.42848847546E-03  0.12580913275E-03  0.20496614560E-02  0.20977469809E-02  0.00000000000E+00 0. -1.
         12    1    1    0    0    0 -0.32333246376E-02 -0.21175144329E-02  0.25705932503E-04  0.38650894401E-02  0.00000000000E+00 0.  1.
         14    1    1    0    0    0  0.29328858643E-02  0.66553104177E-02 -0.23926142161E-02  0.76563424059E-02  0.00000000000E+00 0.  1.
     999901    1    1    0    0    0  0.66316531211E-02  0.56420321573E-03 -0.44381946454E-02  0.90003555192E+00  0.90000000000E+00 0.  1.
     999903    1    1    0    0    0 -0.49715238239E-02 -0.69076887029E-02  0.56161953054E-02  0.22449362175E-01  0.20000000000E-01 0.  0.
</event>
<event>
 7    1  0.5676831E-066  0.9118800E+02  0.7957747E-01            NaN
     999900   -1    0    0    0    0  0.00000000000E+00  0.00000000000E+00  0.99999998245E-14  0.93827000000E+00  0.93827000000E+00 0. -1.
        -11    1    1    0    0    0  0.65120299777E-03  0.57747221348E-02  0.29908831977E-02  0.65557596341E-02  0.51100000000E-03 0. -1.
        -14    1    1    0    0    0 -0.17856324671E-02 -0.22140225437E-03  0.98824527578E-03  0.20528348669E-02  0.00000000000E+00 0. -1.
         12    1    1    0    0    0 -0.51295564252E-03  0.93199085944E-03 -0.17440246439E-03  0.10780290686E-02  0.00000000000E+00 0.  1.
         14    1    1    0    0    0  0.12903621141E-02  0.16705492142E-02 -0.12363078631E-02  0.24462678093E-02  0.00000000000E+00 0.  1.
     999901    1    1    0    0    0  0.82834227871E-02 -0.20386913185E-01 -0.99110362587E-02  0.90032353627E+00  0.90000000000E+00 0. -1.
     999903    1    1    0    0    0 -0.79263997894E-02  0.12231053231E-01  0.73426181128E-02  0.25813572351E-01  0.20000000000E-01 0.  0.
</event>
<event>
 7    1  0.5676831E-066  0.9118800E+02  0.7957747E-01            NaN
     999900   -1    0    0    0    0  0.00000000000E+00  0.00000000000E+00  0.99999998245E-14  0.93827000000E+00  0.93827000000E+00 0.  1.
        -11    1    1    0    0    0  0.19886769613E-02 -0.29712324669E-02 -0.42986641363E-04  0.36119284711E-02  0.51100000000E-03 0. -1.
        -14    1    1    0    0    0 -0.14836282657E-02  0.48990322913E-02  0.10927236280E-02  0.52340916259E-02  0.00000000000E+00 0. -1.
         12    1    1    0    0    0  0.31935967080E-02  0.14799248038E-02 -0.56621211076E-03  0.35650853444E-02  0.00000000000E+00 0.  1.
         14    1    1    0    0    0 -0.12318644993E-02  0.24624465934E-02  0.16124860258E-02  0.31908062544E-02  0.00000000000E+00 0.  1.
     999901    1    1    0    0    0  0.91060527722E-03 -0.10534078513E-01  0.66650692086E-02  0.90008678424E+00  0.90000000000E+00 0.  1.
     999903    1    1    0    0    0 -0.33773861816E-02  0.46639072911E-02 -0.87610801103E-02  0.22581304066E-01  0.20000000000E-01 0.  0.
</event>
<event>
 7    1  0.5676831E-066  0.9118800E+02  0.7957747E-01            NaN
     999900   -1    0    0    0    0  0.00000000000E+00  0.00000000000E+00  0.99999998245E-14  0.93827000000E+00  0.93827000000E+00 0. -1.
        -11    1    1    0    0    0 -0.14526060683E-02  0.72868313844E-03  0.73953495559E-03  0.18571689359E-02  0.51100000000E-03 0. -1.
        -14    1    1    0    0    0  0.32666985392E-04  0.14610242040E-02 -0.73374025967E-03  0.16352472673E-02  0.00000000000E+00 0. -1.
         12    1    1    0    0    0 -0.44192203210E-02  0.79035145986E-02  0.17086957909E-02  0.92149168505E-02  0.00000000000E+00 0.  1.
         14    1    1    0    0    0 -0.37439748564E-02 -0.23497749115E-02  0.76195222820E-03  0.44854610753E-02  0.00000000000E+00 0.  1.
     999901    1    1    0    0    0  0.47846502936E-02 -0.33635787339E-02 -0.13835527506E-02  0.90002006686E+00  0.90000000000E+00 0.  1.
     999903    1    1    0    0    0  0.47984839667E-02 -0.43798682957E-02 -0.10928899644E-02  0.21057139007E-01  0.20000000000E-01 0.  0.
</event>
<event>
 7    1  0.5676831E-066  0.9118800E+02  0.7957747E-01            NaN
     999900   -1    0    0    0    0  0.00000000000E+00  0.00000000000E+00  0.99999998245E-14  0.93827000000E+00  0.93827000000E+00 0. -1.
        -11    1    1    0    0    0 -0.15032812722E-02  0.41114584617E-03 -0.10567730931E-02  0.19510986291E-02  0.51100000000E-03 0. -1.
        -14    1    1    0    0    0 -0.11887941481E-02 -0.11515254358E-02  0.71801553949E-03  0.18041032872E-02  0.00000000000E+00 0. -1.
         12    1    1    0    0    0 -0.48705821291E-03  0.79319109930E-03 -0.11188403358E-02  0.14553973752E-02  0.00000000000E+00 0.  1.
         14    1    1    0    0    0 -0.38843492160E-02 -0.29653893326E-02  0.41382146813E-02  0.64036336149E-02  0.00000000000E+00 0.  1.
     999901    1    1    0    0    0  0.22576878519E-01 -0.70416427847E-03  0.37492697332E-02  0.90029121306E+00  0.90000000000E+00 0. -1.
     999903    1    1    0    0    0 -0.15513395669E-01  0.36167421014E-02 -0.64298865252E-02  0.26364554033E-01  0.20000000000E-01 0.  0.
</event>
<event>
 7    1  0.5676831E-066  0.9118800E+02  0.7957747E-01            NaN
     999900   -1    0    0    0    0  0.00000000000E+00  0.00000000000E+00  0.99999998245E-14  0.93827000000E+00  0.93827000000E+00 0. -1.
        -11    1    1    0    0    0  0.18512671481E-02 -0.20941847811E-02 -0.27838326324E-02  0.39778945532E-02  0.51100000000E-03 0. -1.
        -14    1    1    0    0    0 -0.16916066509E-02  0.14744926924E-03  0.28154873756E-02  0.32878934761E-02  0.00000000000E+00 0. -1.
         12    1    1    0    0    0  0.62685427247E-02 -0.19168309112E-02 -0.29371432154E-02  0.71830132188E-02  0.00000000000E+00 0.  1.
         14    1    1    0    0    0 -0.20945141357E-02 -0.51136409235E-03 -0.65609122194E-03  0.22536500153E-02  0.00000000000E+00 0.  1.
     999901    1    1    0    0    0 -0.60125277175E-02  0.48733866572E-02  0.11156623802E-01  0.90010242231E+00  0.90000000000E+00 0. -1.
     999903    1    1    0    0    0  0.16788386313E-02 -0.49845614178E-03 -0.75950441075E-02  0.21465126430E-01  0.20000000000E-01 0.  0.
</event>
<event>
 7    1  0.5676831E-066  0.9118800E+02  0.7957747E-01            NaN
     999900   -1    0    0    0    0  0.00000000000E+00  0.00000000000E+00  0.99999998245E-14  0.93827000000E+00  0.93827000000E+00 0.  1.
        -11    1    1    0    0    0 -0.11617065671E-02  0.11277124944E-02 -0.41289395265E-02  0.44643656024E-02  0.51100000000E-03 0. -1.
        -14    1    1    0    0    0  0.91529179858E-03  0.20316133167E-02  0.75380784297E-03  0.23523260848E-02  0.00000000000E+00 0. -1.
         12    1    1    0    0    0  0.54368979099E-02 -0.10912370188E-02  0.43966748235E-02  0.70768217879E-02  0.00000000000E+00 0.  1.
         14    1    1    0    0    0 -0.23220063510E-02  0.25048103781E-03  0.80909758006E-03  0.24716579736E-02  0.00000000000E+00 0.  1.
     999901    1    1    0    0    0  0.35343586153E-02 -0.51362201461E-02  0.36120843346E-02  0.90002884376E+00  0.90000000000E+00 0.  1.
     999903    1    1    0    0    0 -0.64028354056E-02  0.28176503160E-02 -0.54427250546E-02  0.21875984790E-01  0.20000000000E-01 0.  0.
</event>
<event>
 7    1  0.5676831E-066  0.9118800E+02  0.7957747E-01            NaN
     999900   -1    0    0    0    0  0.00000000000E+00  0.00000000000E+00  0.99999998245E-14  0.93827000000E+00  0.93827000000E+00 0.  1.
        -11    1    1    0    0    0 -0.10264102143E-02 -0.10413657263E-02 -0.51216221531E-04  0.15497433998E-02  0.51100000000E-03 0. -1.
        -14    1    1    0    0    0 -0.25835497139E-02  0.10142069367E-02  0.30501786361E-02  0.41239464771E-02  0.00000000000E+00 0. -1.
         12    1    1    0    0    0  0.14358568076E-02  0.31109369763E-02 -0.21658926917E-02  0.40534805778E-02  0.00000000000E+00 0.  1.
         14    1    1    0    0    0  0.18346689520E-02 -0.50772835312E-02  0.30209650823E-02  0.61863598544E-02  0.00000000000E+00 0.  1.
     999901    1    1    0    0    0 -0.26110164348E-02 -0.14987607692E-02  0.49816546203E-02  0.90001882234E+00  0.90000000000E+00 0.  1.
     999903    1    1    0    0    0  0.29504506033E-02  0.34922661138E-02 -0.88356894254E-02  0.22337647347E-01  0.20000000000E-01 0.  0.
</event>
<event>
 7    1  0.5676831E-066  0.9118800E+02  0.7957747E-01            NaN
     999900   -1    0    0    0    0  0.00000000000E+00  0.00000000000E+00  0.99999998245E-14  0.93827000000E+00  0.93827000000E+00 0. -1.
        -11    1    1    0    0    0 -0.33504987304E-02 -0.34282668955E-02  0.33526167835E-03  0.48324297245E-02  0.51100000000E-03 0. -1.
        -14    1    1    0    0    0  0.19673343507E-02  0.47882672142E-03  0.24184235609E-02  0.31541166746E-02  0.00000000000E+00 0. -1.
         12    1    1    0    0    0  0.21502513704E-03 -0.25438843592E-02 -0.51997320465E-03  0.26053705257E-02  0.00000000000E+00 0.  1.
         14    1    1    0    0    0 -0.11205608737E-02  0.21057686459E-02  0.22641514810E-02  0.32888144050E-02  0.00000000000E+00 0.  1.
     999901    1    1    0    0    0  0.14547134066E-01  0.29989257593E-03  0.91398429093E-03  0.90011807248E+00  0.90000000000E+00 0. -1.
     999903    1    1    0    0    0 -0.12258433950E-01  0.30876633115E-02 -0.54118478066E-02  0.24271196186E-01  0.20000000000E-01 0.  0.
</event>
<event>
 7    1  0.5676831E-066  0.9118800E+02  0.7957747E-01            NaN
     999900   -1    0    0    0    0  0.00000000000E+00  0.00000000000E+00  0.99999998245E-14  0.93827000000E+00  0.93827000000E+00 0.  1.
        -11    1    1    0    0    0 -0.14924746041E-02 -0.50133305146E-03 -0.12568931601E-02  0.20783928137E-02  0.51100000000E-03 0. -1.
        -14    1    1    0    0    0  0.16264851218E-04 -0.15705894630E-03  0.43471853782E-02  0.43500520423E-02  0.00000000000E+00 0. -1.
         12    1    1    0    0    0  0.69682543254E-03  0.28328452196E-02  0.61427773612E-03  0.29812606157E-02  0.00000000000E+00 0.  1.
         14    1    1    0    0    0 -0.55418611094E-03  0.23053923741E-02 -0.49197793537E-02  0.54613354716E-02  0.00000000000E+00 0.  1.
     999901    1    1    0    0    0 -0.91915440754E-02 -0.99502293424E-02 -0.21553917636E-03  0.90010195978E+00  0.90000000000E+00 0. -1.
     999903    1    1    0    0    0  0.10525114507E-01  0.54703837465E-02  0.14307485758E-02  0.23296999275E-01  0.20000000000E-01 0.  0.
</event>
<event>
 7    1  0.5676831E-066  0.9118800E+02  0.7957747E-01            NaN
     999900   -1    0    0    0    0  0.00000000000E+00  0.00000000000E+00  0.99999998245E-14  0.93827000000E+00  0.93827000000E+00 0.  1.
        -11    1    1    0    0    0  0.28932744470E-02  0.15619401226E-02 -0.12505248799E-02  0.35546627755E-02  0.51100000000E-03 0. -1.
        -14    1    1    0    0    0 -0.20669561257E-02  0.18390786337E-03  0.21336130028E-02  0.29763121767E-02  0.00000000000E+00 0. -1.
         12    1    1    0    0    0 -0.99238038976E-03  0.14190838879E-02 -0.40958883651E-03  0.17794327562E-02  0.00000000000E+00 0.  1.
         14    1    1    0    0    0 -0.21328074654E-02 -0.31187442391E-03  0.47187574013E-02  0.51877552712E-02  0.00000000000E+00 0.  1.
     999901    1    1    0    0    0  0.13475147903E-01 -0.58267927153E-02  0.33902406680E-02  0.90012611608E+00  0.90000000000E+00 0.  1.
     999903    1    1    0    0    0 -0.11176278370E-01  0.29737352653E-02 -0.85824973557E-02  0.24645720937E-01  0.20000000000E-01 0.  0.
</event>
<event>
 7    1  0.5676831E-066  0.9118800E+02  0.7957747E-01            NaN
     999900   -1    0    0    0    0  0.00000000000E+00  0.00000000000E+00  0.99999998245E-14  0.93827000000E+00  0.93827000000E+00 0. -1.
        -11    1    1    0    0    0  0.23747493092E-02 -0.15068821645E-02  0.61729775326E-03  0.29244325356E-02  0.51100000000E-03 0. -1.
        -14    1    1    0    0    0 -0.81542322535E-02 -0.98710165969E-03  0.87314091713E-04  0.82142252879E-02  0.00000000000E+00 0. -1.
         12    1    1    0    0    0 -0.40226136230E-03  0.18608820742E-02 -0.73331748317E-03  0.20402085258E-02  0.00000000000E+00 0.  1.
         14    1    1    0    0    0  0.27226281966E-02 -0.22566800567E-02 -0.43684354151E-03  0.35631645282E-02  0.00000000000E+00 0.  1.
     999901    1    1    0    0    0  0.11197236522E-01  0.22545365786E-02  0.23126226510E-03  0.90007250515E+00  0.90000000000E+00 0.  1.
     999903    1    1    0    0    0 -0.77381204118E-02  0.63524522819E-03  0.23428691460E-03  0.21455463975E-01  0.20000000000E-01 0.  0.
</event>
<event>
 7    1  0.5676831E-066  0.9118800E+02  0.7957747E-01            NaN
     999900   -1    0    0    0    0  0.00000000000E+00  0.00000000000E+00  0.99999998245E-14  0.93827000000E+00  0.93827000000E+00 0. -1.
        -11    1    1    0    0    0 -0.12921987643E-03  0.12802644982E-02  0.24236533001E-02  0.27912347233E-02  0.51100000000E-03 0. -1.
        -14    1    1    0    0    0  0.14719508996E-02 -0.18602593202E-03  0.29704447998E-03  0.15131029447E-02  0.00000000000E+00 0. -1.
         12    1    1    0    0    0  0.17888185413E-02  0.23335769050E-02 -0.30308091819E-02  0.42227073356E-02  0.00000000000E+00 0.  1.
         14    1    1    0    0    0 -0.37843693766E-02  0.20483281143E-02  0.39031425559E-02  0.58096145702E-02  0.00000000000E+00 0.  1.
     999901    1    1    0    0    0 -0.26347048881E-02 -0.13227889893E-01 -0.13209163928E-01  0.90019797864E+00  0.90000000000E+00 0.  1.
     999903    1    1    0    0    0  0.32875247003E-02  0.77517463074E-02  0.96161327736E-02  0.23735361783E-01  0.20000000000E-01 0.  0.
</event>
<event>
 7    1  0.5676831E-066  0.9118800E+02  0.7957747E-01            NaN
     999900   -1    0    0    0    0  0.00000000000E+00  0.00000000000E+00  0.99999998245E-14  0.93827000000E+00  0.93827000000E+00 0.  1.
        -11    1    1    0    0    0 -0.40420546040E-03  0.63094793584E-03 -0.13048677004E-02  0.15891123521E-02  0.51100000000E-03 0. -1.
        -14    1    1    0    0    0 -0.12129007114E-02  0.19822891674E-02  0.20825324934E-02  0.31205031750E-02  0.00000000000E+00 0. -1.
         12    1    1    0    0    0  0.10501065353E-02 -0.39896650381E-03  0.16979862364E-02  0.20359408797E-02  0.00000000000E+00 0.  1.
         14    1    1    0    0    0  0.52379192743E-03 -0.38182978267E-02 -0.17381221013E-02  0.42278629017E-02  0.00000000000E+00 0.  1.
     999901    1    1    0    0    0  0.12569496971E-01  0.10555431373E-01 -0.10563930899E-01  0.90021164513E+00  0.90000000000E+00 0. -1.
     999903    1    1    0    0    0 -0.12526289262E-01 -0.89514041454E-02  0.98264019713E-02  0.27084935565E-01  0.20000000000E-01 0.  0.
</event>
<event>
 7    1  0.5676831E-066  0.9118800E+02  0.7957747E-01            NaN
     999900   -1    0    0    0    0  0.00000000000E+00  0.00000000000E+00  0.99999998245E-14  0.93827000000E+00  0.93827000000E+00 0. -1.
        -11    1    1    0    0    0 -0.51597680968E-03 -0.18391593475E-02 -0.33542153428E-02  0.38936641791E-02  0.51100000000E-03 0. -1.
        -14    1    1    0    0    0  0.28600766441E-02 -0.10454150349E-02  0.20313866420E-02  0.36605276525E-02  0.00000000000E+00 0. -1.
         12    1    1    0    0    0 -0.27767980707E-02  0.10808000471E-02  0.67706535198E-03  0.30556756631E-02  0.00000000000E+00 0.  1.
         14    1    1    0    0    0  0.24383694220E-02 -0.30163122993E-02 -0.22048007286E-02  0.44614943212E-02  0.00000000000E+00 0.  1.
     999901    1    1    0    0    0 -0.19862115923E-02 -0.14104875735E-02 -0.70451424684E-02  0.90003087088E+00  0.90000000000E+00 0.  1.
     999903    1    1    0    0    0 -0.19459593462E-04  0.62305742080E-02  0.98957065459E-02  0.23167767300E-01  0.20000000000E-01 0.  0.
</event>
<event>
 7    1  0.5676831E-066  0.9118800E+02  0.7957747E-01            NaN
     999900   -1    0    0    0    0  0.00000000000E+00  0.00000000000E+00  0.99999998245E-14  0.93827000000E+00  0.93827000000E+00 0. -1.
        -11    1    1    0    0    0  0.70993696082E-03 -0.30270289546E-02  0.33883116264E-02  0.46269527183E-02  0.51100000000E-03 0. -1.
        -14    1    1    0    0    0  0.15646631922E-02  0.19545879147E-02  0.24233300939E-02  0.34844100742E-02  0.00000000000E+00 0. -1.
         12    1    1    0    0    0 -0.23449225053E-03  0.14483854407E-02 -0.96722480889E-03  0.17573647405E-02  0.00000000000E+00 0.  1.
         14    1    1    0    0    0 -0.38988082384E-03 -0.54842154888E-02  0.10246944806E-02  0.55927296880E-02  0.00000000000E+00 0.  1.
     999901    1    1    0    0    0  0.25053192400E-02  0.14360288204E-01 -0.90219751351E-02  0.90016325771E+00  0.90000000000E+00 0.  1.
     999903    1    1    0    0    0 -0.41555463186E-02 -0.92520171159E-02  0.31528637432E-02  0.22645285066E-01  0.20000000000E-01 0.  0.
</event>
<event>
 7    1  0.5676831E-066  0.9118800E+02  0.7957747E-01            NaN
     999900   -1    0    0    0    0  0.00000000000E+00  0.00000000000E+00  0.99999998245E-14  0.93827000000E+00  0.93827000000E+00 0. -1.
        -11    1    1    0    0    0 -0.96831878550E-03 -0.39877065161E-02  0.41295888208E-02  0.58441483005E-02  0.51100000000E-03 0. -1.
        -14    1    1    0    0    0  0.27161566970E-03  0.30144432163E-02  0.26761036749E-02  0.40400710210E-02  0.00000000000E+00 0. -1.
         12    1    1    0    0    0 -0.11072961655E-03  0.90414789694E-04  0.13402543124E-02  0.13478566333E-02  0.00000000000E+00 0.  1.
         14    1    1    0    0    0  0.65239595745E-02  0.15422411646E-02  0.45776525064E-03  0.67193828112E-02  0.00000000000E+00 0.  1.
     999901    1    1    0    0    0 -0.79583680067E-02 -0.28000611265E-02 -0.84118289848E-02  0.90007884923E+00  0.90000000000E+00 0.  1.
     999903    1    1    0    0    0  0.22418411646E-02  0.21406684721E-02 -0.19188307393E-03  0.20239692004E-01  0.20000000000E-01 0.  0.
</event>
<event>
 7    1  0.5676831E-066  0.9118800E+02  0.7957747E-01            NaN
     999900   -1    0    0    0    0  0.00000000000E+00  0.00000000000E+00  0.99999998245E-14  0.93827000000E+00  0.93827000000E+00 0.  1.
        -11    1    1    0    0    0 -0.31009706021E-02  0.15850061257E-02  0.18235484907E-02  0.39641787537E-02  0.51100000000E-03 0. -1.
        -14    1    1    0    0    0  0.55591330974E-03 -0.16173996726E-02  0.72030051429E-03  0.18557624147E-02  0.00000000000E+00 0. -1.
         12    1    1    0    0    0  0.13078348522E-02  0.20438499187E-02 -0.97253170976E-03  0.26141102535E-02  0.00000000000E+00 0.  1.
         14    1    1    0    0    0 -0.42532546048E-03 -0.15176174331E-02  0.23611457303E-02  0.28388507499E-02  0.00000000000E+00 0.  1.
     999901    1    1    0    0    0 -0.79254909886E-02 -0.75360491936E-02  0.95221461250E-02  0.90011681281E+00  0.90000000000E+00 0.  1.
     999903    1    1    0    0    0  0.95880388892E-02  0.70422102549E-02 -0.13454609151E-01  0.26880285014E-01  0.20000000000E-01 0.  0.
</event>
<event>
 7    1  0.5676831E-066  0.9118800E+02  0.7957747E-01            NaN
     999900   -1    0    0    0    0  0.00000000000E+00  0.00000000000E+00  0.99999998245E-14  0.93827000000E+00  0.93827000000E+00 0. -1.
        -11    1    1    0    0    0  0.45996407378E-03 -0.19427745751E-02  0.76120591038E-03  0.21969286372E-02  0.51100000000E-03 0. -1.
        -14    1    1    0    0    0 -0.18498660258E-02 -0.20410028345E-02  0.27818380423E-02  0.39148843888E-02  0.00000000000E+00 0. -1.
         12    1    1    0    0    0  0.25633026537E-02  0.13208333395E-02 -0.17622024147E-02  0.33794198549E-02  0.00000000000E+00 0.  1.
         14    1    1    0    0    0 -0.12182066835E-02 -0.45406712573E-02 -0.15478053083E-02  0.49494872727E-02  0.00000000000E+00 0.  1.
     999901    1    1    0    0    0 -0.88081546239E-02  0.12586415602E-01  0.70435560246E-02  0.90015865997E+00  0.90000000000E+00 0. -1.
     999903    1    1    0    0    0  0.88529606057E-02 -0.53828002747E-02 -0.72765922543E-02  0.23670619872E-01  0.20000000000E-01 0.  0.
</event>
<event>
 7    1  0.5676831E-066  0.9118800E+02  0.7957747E-01            NaN
     999900   -1    0    0    0    0  0.00000000000E+00  0.00000000000E+00  0.99999998245E-14  0.93827000000E+00  0.93827000000E+00 0. -1.
        -11    1    1    0    0    0  0.67763481514E-03  0.12664085710E-03 -0.56545689593E-03  0.10276620799E-02  0.51100000000E-03 0. -1.
        -14    1    1    0    0    0 -0.15827790383E-02  0.13051717127E-02 -0.13648412078E-02  0.24640321034E-02  0.00000000000E+00 0. -1.
         12    1    1    0    0    0 -0.39851236017E-02 -0.68998415696E-03 -0.37588367761E-03  0.40618440143E-02  0.00000000000E+00 0.  1.
         14    1    1    0    0    0  0.10913563368E-02  0.46182697612E-02  0.44960983066E-02  0.65371533731E-02  0.00000000000E+00 0.  1.
     999901    1    1    0    0    0 -0.38613238254E-02  0.57197545485E-02 -0.34539332775E-02  0.90003308554E+00  0.90000000000E+00 0. -1.
     999903    1    1    0    0    0  0.76602353134E-02 -0.11079852722E-01  0.12640167523E-02  0.24146222888E-01  0.20000000000E-01 0.  0.
</event>
<event>
 7    1  0.5676831E-066  0.9118800E+02  0.7957747E-01            NaN
     999900   -1    0    0    0    0  0.00000000000E+00  0.00000000000E+00  0.99999998245E-14  0.93827000000E+00  0.93827000000E+00 0.  1.
        -11    1    1    0    0    0 -0.15826445399E-03 -0.10045682031E-02  0.16097853363E-03  0.11494520436E-02  0.51100000000E-03 0. -1.
        -14    1    1    0    0    0 -0.11059332038E-02  0.65494739146E-02  0.31407823856E-02  0.73473267794E-02  0.00000000000E+00 0. -1.
         12    1    1    0    0    0  0.24242062823E-02  0.16414722852E-02 -0.25388593590E-03  0.29386502736E-02  0.00000000000E+00 0.  1.
         14    1    1    0    0    0  0.12732270955E-02 -0.27588078042E-02  0.30380002758E-02  0.42966933115E-02  0.00000000000E+00 0.  1.
     999901    1    1    0    0    0  0.19987990366E-02 -0.11963150392E-03 -0.14127594098E-01  0.90011310313E+00  0.90000000000E+00 0. -1.
     999903    1    1    0    0    0 -0.44320347565E-02 -0.43079386886E-02  0.80417188392E-02  0.22424774463E-01  0.20000000000E-01 0.  0.
</event>
<event>
 7    1  0.5676831E-066  0.9118800E+02  0.7957747E-01            NaN
     999900   -1    0    0    0    0  0.00000000000E+00  0.00000000000E+00  0.99999998245E-14  0.93827000000E+00  0.93827000000E+00 0. -1.
        -11    1    1    0    0    0  0.96999933200E-03  0.17701830773E-02 -0.46277147112E-03  0.21330085011E-02  0.51100000000E-03 0. -1.
        -14    1    1    0    0    0 -0.16913347128E-03  0.17217330652E-02  0.28967609242E-02  0.33740472330E-02  0.00000000000E+00 0. -1.
         12    1    1    0    0    0  0.17592498651E-03 -0.56365840134E-03 -0.80524731153E-03  0.99854074880E-03  0.00000000000E+00 0.  1.
         14    1    1    0    0    0  0.21306271177E-03  0.18425133744E-03  0.26091144080E-02  0.26242755702E-02  0.00000000000E+00 0.  1.
     999901    1    1    0    0    0  0.92669935264E-03 -0.11457014211E-01 -0.23044874519E-01  0.90036836250E+00  0.90000000000E+00 0.  1.
     999903    1    1    0    0    0 -0.21165529116E-02  0.83445051324E-02  0.18807017969E-01  0.28771765449E-01  0.20000000000E-01 0.  0.
</event>
<event>
 7    1  0.5676831E-066  0.9118800E+02  0.7957747E-01            NaN
     999900   -1    0    0    0    0  0.00000000000E+00  0.00000000000E+00  0.99999998245E-14  0.93827000000E+00  0.93827000000E+00 0.  1.
        -11    1    1    0    0    0 -0.20534558793E-02  0.13076264093E-02  0.28547481058E-02  0.37864595102E-02  0.51100000000E-03 0. -1.
        -14    1    1    0    0    0  0.68437252249E-03 -0.86274800192E-04 -0.10376122342E-03  0.69754962703E-03  0.00000000000E+00 0. -1.
         12    1    1    0    0    0 -0.14282579536E-02  0.74882119436E-02 -0.93156760488E-02  0.12037236358E-01  0.00000000000E+00 0.  1.
         14    1    1    0    0    0 -0.11165590660E-02  0.44768252739E-04 -0.24444800061E-03  0.11438807496E-02  0.00000000000E+00 0.  1.
     999901    1    1    0    0    0  0.74915412630E-02 -0.77309380817E-02  0.92794102241E-02  0.90011221414E+00  0.90000000000E+00 0.  1.
     999903    1    1    0    0    0 -0.35776408866E-02 -0.10233937237E-02 -0.24702730571E-02  0.20492659613E-01  0.20000000000E-01 0.  0.
</event>
<event>
 7    1  0.5676831E-066  0.9118800E+02  0.7957747E-01            NaN
     999900   -1    0    0    0    0  0.00000000000E+00  0.00000000000E+00  0.99999998245E-14  0.93827000000E+00  0.93827000000E+00 0.  1.
        -11    1    1    0    0    0 -0.34902319125E-03 -0.11308549903E-02  0.13812216671E-02  0.18893238184E-02  0.51100000000E-03 0. -1.
        -14    1    1    0    0    0 -0.74934652577E-03  0.65336417271E-02  0.14067340224E-02  0.67252431215E-02  0.00000000000E+00 0. -1.
         12    1    1    0    0    0  0.24747546160E-02 -0.25631763367E-02  0.22686769642E-02  0.42238819242E-02  0.00000000000E+00 0.  1.
         14    1    1    0    0    0 -0.12037004194E-02 -0.11876408580E-02 -0.11653917201E-02  0.20536609673E-02  0.00000000000E+00 0.  1.
     999901    1    1    0    0    0 -0.93723770769E-02  0.56310329035E-02 -0.60801682795E-02  0.90008695048E+00  0.90000000000E+00 0. -1.
     999903    1    1    0    0    0  0.91996925974E-02 -0.72830024455E-02  0.21889273460E-02  0.23290939685E-01  0.20000000000E-01 0.  0.
</event>
<event>
 7    1  0.5676831E-066  0.9118800E+02  0.7957747E-01            NaN
     999900   -1    0    0    0    0  0.00000000000E+00  0.00000000000E+00  0.99999998245E-14  0.93827000000E+00  0.93827000000E+00 0.  1.
        -11    1    1    0    0    0 -0.25845084422E-02 -0.47510462869E-02 -0.19172017806E-02  0.57609815461E-02  0.51100000000E-03 0. -1.
        -14    1    1    0    0    0  0.30240576211E-02  0.10507826298E-02  0.58384837033E-03  0.32542199604E-02  0.00000000000E+00 0. -1.
         12    1    1    0    0    0 -0.44330837066E-03  0.16046118334E-02  0.86970481550E-03  0.18782140223E-02  0.00000000000E+00 0.  1.
         14    1    1    0    0    0  0.33535353079E-02  0.11772371743E-02 -0.23046365925E-02  0.42359693400E-02  0.00000000000E+00 0.  1.
     999901    1    1    0    0    0 -0.12701399416E-01 -0.54933299047E-03  0.90636633084E-02  0.90013542165E+00  0.90000000000E+00 0.  1.
     999903    1    1    0    0    0  0.93516233003E-02  0.14677476398E-02 -0.62953781212E-02  0.23005193483E-01  0.20000000000E-01 0.  0.
</event>
<event>
 7    1  0.5676831E-066  0.9118800E+02  0.7957747E-01            NaN
     999900   -1    0    0    0    0  0.00000000000E+00  0.00000000000E+00  0.99999998245E-14  0.93827000000E+00  0.93827000000E+00 0.  1.
        -11    1    1    0    0    0 -0.70680867881E-03  0.10600408556E-02  0.46327013790E-03  0.14487944453E-02  0.51100000000E-03 0. -1.
        -14    1    1    0    0    0  0.42210843302E-02 -0.39769729439E-03 -0.16277312969E-02  0.45415003287E-02  0.00000000000E+00 0. -1.
         12    1    1    0    0    0  0.22292034268E-02 -0.14381824222E-02 -0.24716924105E-02  0.36258764416E-02  0.00000000000E+00 0.  1.
         14    1    1    0    0    0 -0.21903515926E-02 -0.10198363893E-02  0.15169747214E-02  0.28528790135E-02  0.00000000000E+00 0.  1.
     999901    1    1    0    0    0 -0.22866790003E-02  0.12779731034E-01  0.13664353627E-01  0.90019734780E+00  0.90000000000E+00 0.  1.
     999903    1    1    0    0    0 -0.12664484853E-02 -0.10984055784E-01 -0.11545174778E-01  0.25603601971E-01  0.20000000000E-01 0.  0.
</event>
<event>
 7    1  0.5676831E-066  0.9118800E+02  0.7957747E-01            NaN
     999900   -1    0    0    0    0  0.00000000000E+00  0.00000000000E+00  0.99999998245E-14  0.93827000000E+00  0.93827000000E+00 0.  1.
        -11    1    1    0    0    0 -0.27065268843E-02 -0.18664506966E-02 -0.14428146580E-02  0.36265356906E-02  0.51100000000E-03 0. -1.
        -14    1    1    0    0    0 -0.25368604314E-02  0.14842520464E-02  0.93262685100E-03  0.30835787373E-02  0.00000000000E+00 0. -1.
         12    1    1    0    0    0  0.57850561671E-03 -0.16269982593E-02  0.24253627417E-02  0.29772766941E-02  0.00000000000E+00 0.  1.
         14    1    1    0    0    0 -0.21279154050E-02  0.39156935285E-03 -0.19365203399E-02  0.29036979106E-02  0.00000000000E+00 0.  1.
     999901    1    1    0    0    0  0.10264398565E-01  0.98754757306E-02 -0.12964109797E-01  0.90020606032E+00  0.90000000000E+00 0. -1.
     999903    1    1    0    0    0 -0.34716014607E-02 -0.82578481739E-02  0.12985455202E-01  0.25472850645E-01  0.20000000000E-01 0.  0.
</event>
<event>
 7    1  0.5676831E-066  0.9118800E+02  0.7957747E-01            NaN
     999900   -1    0    0    0    0  0.00000000000E+00  0.00000000000E+00  0.99999998245E-14  0.93827000000E+00  0.93827000000E+00 0.  1.
        -11    1    1    0    0    0 -0.18753878855E-02  0.46403198663E-03 -0.19881511762E-02  0.28189131780E-02  0.51100000000E-03 0. -1.
        -14    1    1    0    0    0 -0.27571763772E-02  0.49632732658E-02  0.15401852091E-02  0.58828797000E-02  0.00000000000E+00 0. -1.
         12    1    1    0    0    0 -0.17505302503E-02 -0.20206097235E-02 -0.72060728268E-03  0.27688435615E-02  0.00000000000E+00 0.  1.
         14    1    1    0    0    0  0.12230906571E-02  0.40829148505E-03 -0.11413169095E-02  0.17219921545E-02  0.00000000000E+00 0.  1.
     999901    1    1    0    0    0 -0.29548758552E-02  0.46666283478E-02 -0.71149157560E-02  0.90004507150E+00  0.90000000000E+00 0. -1.
     999903    1    1    0    0    0  0.81148797110E-02 -0.84816153618E-02  0.94248059153E-02  0.25032299903E-01  0.20000000000E-01 0.  0.
</event>
<event>
 7    1  0.5676831E-066  0.9118800E+02  0.7957747E-01            NaN
     999900   -1    0    0    0    0  0.00000000000E+00  0.00000000000E+00  0.99999998245E-14  0.93827000000E+00  0.93827000000E+00 0.  1.
        -11    1    1    0    0    0 -0.93306831380E-03  0.14138299943E-02  0.28878211386E-02  0.33867630061E-02  0.51100000000E-03 0. -1.
        -14    1    1    0    0    0  0.46590767888E-02 -0.19893977413E-02  0.28128063311E-02  0.57945301236E-02  0.00000000000E+00 0. -1.
         12    1    1    0    0    0 -0.34650087457E-02  0.27079199299E-02 -0.28079764404E-02  0.52176477118E-02  0.00000000000E+00 0.  1.
         14    1    1    0    0    0  0.24358817290E-02  0.49575282773E-04  0.16265004691E-02  0.29294165430E-02  0.00000000000E+00 0.  1.
     999901    1    1    0    0    0  0.26716529636E-02  0.81236176067E-03 -0.47587210819E-02  0.90001691267E+00  0.90000000000E+00 0. -1.
     999903    1    1    0    0    0 -0.53685344219E-02 -0.29942892264E-02  0.23956958345E-03  0.20924729948E-01  0.20000000000E-01 0.  0.
</event>
<event>
 7    1  0.5676831E-066  0.9118800E+02  0.7957747E-01            NaN
     999900   -1    0    0    0    0  0.00000000000E+00  0.00000000000E+00  0.99999998245E-14  0.93827000000E+00  0.93827000000E+00 0.  1.
        -11    1    1    0    0    0 -0.62330430350E-03 -0.17033533970E-02 -0.31431082353E-02  0.36647198295E-02  0.51100000000E-03 0. -1.
        -14    1    1    0    0    0 -0.81951915299E-03 -0.98465000293E-03  0.80468676459E-03  0.15128344455E-02  0.00000000000E+00 0. -1.
         12    1    1    0    0    0 -0.21303746649E-02  0.16814768544E-02 -0.47193554909E-02  0.54440955974E-02  0.00000000000E+00 0.  1.
         14    1    1    0    0    0  0.24525335581E-02 -0.14286338564E-02  0.30317082832E-02  0.41529713054E-02  0.00000000000E+00 0.  1.
     999901    1    1    0    0    0  0.11567909320E-01  0.25899081137E-02 -0.22247651809E-02  0.90008081511E+00  0.90000000000E+00 0.  1.
     999903    1    1    0    0    0 -0.10447244757E-01 -0.15474771167E-03  0.62508338593E-02  0.23414563712E-01  0.20000000000E-01 0.  0.
</event>
<event>
 7    1  0.5676831E-066  0.9118800E+02  0.7957747E-01            NaN
     999900   -1    0    0    0    0  0.00000000000E+00  0.00000000000E+00  0.99999998245E-14  0.93827000000E+00  0.93827000000E+00 0. -1.
        -11    1    1    0    0    0 -0.27510794650E-02  0.24383102875E-03 -0.48877984977E-02  0.56373386404E-02  0.51100000000E-03 0. -1.
        -14    1    1    0    0    0  0.23420546240E-02  0.92444196829E-03  0.69960639553E-03  0.26132856566E-02  0.00000000000E+00 0. -1.
         12    1    1    0    0    0 -0.93080090610E-03 -0.30490549564E-04  0.21251857117E-02  0.23202875489E-02  0.00000000000E+00 0.  1.
         14    1    1    0    0    0 -0.14799679233E-02 -0.66116819189E-03 -0.27862243969E-02  0.32234290471E-02  0.00000000000E+00 0.  1.
     999901    1    1    0    0    0 -0.22690688150E-02 -0.40634738194E-02 -0.77240093821E-02  0.90004517710E+00  0.90000000000E+00 0.  1.
     999903    1    1    0    0    0  0.50888624854E-02  0.35868595638E-02  0.12573240169E-01  0.24430482011E-01  0.20000000000E-01 0.  0.
</event>
<event>
 7    1  0.5676831E-066  0.9118800E+02  0.7957747E-01            NaN
     999900   -1    0    0    0    0  0.00000000000E+00  0.00000000000E+00  0.99999998245E-14  0.93827000000E+00  0.93827000000E+00 0. -1.
        -11    1    1    0    0    0 -0.20812235986E-02 -0.10249826198E-02  0.42622402362E-03  0.24134765291E-02  0.51100000000E-03 0. -1.
        -14    1    1    0    0    0 -0.47130575082E-03  0.14795228197E-02  0.70947049501E-03  0.17071805025E-02  0.00000000000E+00 0. -1.
         12    1    1    0    0    0  0.83994644221E-04 -0.20898400984E-02  0.16086322148E-02  0.26385951451E-02  0.00000000000E+00 0.  1.
         14    1    1    0    0    0  0.26921258532E-02  0.63735521791E-02  0.74148700777E-03  0.69584130355E-02  0.00000000000E+00 0.  1.
     999901    1    1    0    0    0  0.18241411718E-02 -0.98029647343E-02 -0.16256585986E-01  0.90020203410E+00  0.90000000000E+00 0.  1.
     999903    1    1    0    0    0 -0.20477323199E-02  0.50647124536E-02  0.12770772245E-01  0.24350300689E-01  0.20000000000E-01 0.  0.
</event>
<event>
 7    1  0.5676831E-066  0.9118800E+02  0.7957747E-01            NaN
     999900   -1    0    0    0    0  0.00000000000E+00  0.00000000000E+00  0.99999998245E-14  0.93827000000E+00  0.93827000000E+00 0.  1.
        -11    1    1    0    0    0 -0.47042770076E-02  0.33576728962E-02 -0.27465356770E-02  0.64194056319E-02  0.51100000000E-03 0. -1.
        -14    1    1    0    0    0  0.10957949139E-02 -0.40607803761E-03  0.29506510647E-02  0.31736426345E-02  0.00000000000E+00 0. -1.
         12    1    1    0    0    0 -0.13583884183E-02  0.16420205017E-02  0.28568776698E-02  0.35641549410E-02  0.00000000000E+00 0.  1.
         14    1    1    0    0    0  0.14906710101E-02  0.10084178825E-02  0.33787812669E-03  0.18311658348E-02  0.00000000000E+00 0.  1.
     999901    1    1    0    0    0 -0.55259947944E-02 -0.12585439233E-01 -0.68988703275E-03  0.90010521932E+00  0.90000000000E+00 0. -1.
     999903    1    1    0    0    0  0.90021942963E-02  0.69834059903E-02 -0.27089841515E-02  0.23176411640E-01  0.20000000000E-01 0.  0.
</event>
<event>
 7    1  0.5676831E-066  0.9118800E+02  0.7957747E-01            NaN
     999900   -1    0    0    0    0  0.00000000000E+00  0.00000000000E+00  0.99999998245E-14  0.93827000000E+00  0.93827000000E+00 0.  1.
        -11    1    1    0    0    0 -0.19172996812E-02 -0.11036962830E-02 -0.12653892140E-03  0.22740529130E-02  0.51100000000E-03 0.  1.
        -14    1    1    0    0    0 -0.20350130611E-03  0.11130636177E-02  0.65321021175E-03  0.13065247718E-02  0.00000000000E+00 0. -1.
         12    1    1    0    0    0 -0.31528975623E-02 -0.32539757673E-02 -0.20723290744E-02  0.49823357098E-02  0.00000000000E+00 0.  1.
         14    1    1    0    0    0  0.38582900880E-02  0.19649519239E-02  0.22785709740E-02  0.48927828636E-02  0.00000000000E+00 0.  1.
     999901    1    1    0    0    0  0.13915965818E-01 -0.45516390502E-02  0.36511582470E-02  0.90012649249E+00  0.90000000000E+00 0.  1.
     999903    1    1    0    0    0 -0.12500557357E-01  0.58312955589E-02 -0.43840714371E-02  0.24687811253E-01  0.20000000000E-01 0.  0.
</event>
<event>
 7    1  0.5676831E-066  0.9118800E+02  0.7957747E-01            NaN
     999900   -1    0    0    0    0  0.00000000000E+00  0.00000000000E+00  0.99999998245E-14  0.93827000000E+00  0.93827000000E+00 0. -1.
        -11    1    1    0    0    0 -0.23474274669E-02  0.12466096958E-02  0.13744446453E-02  0.30355675794E-02  0.51100000000E-03 0. -1.
        -14    1    1    0    0    0  0.23740611457E-02 -0.17845322136E-02  0.49455202665E-02  0.57687860293E-02  0.00000000000E+00 0. -1.
         12    1    1    0    0    0  0.36604784670E-02 -0.23442928304E-02 -0.28944412413E-02  0.52223176446E-02  0.00000000000E+00 0.  1.
         14    1    1    0    0    0 -0.10156281597E-02 -0.14191831879E-03  0.32917627888E-03  0.10770322143E-02  0.00000000000E+00 0.  1.
     999901    1    1    0    0    0 -0.13919225567E-02  0.64990865301E-02 -0.14543754888E-01  0.90014204234E+00  0.90000000000E+00 0.  1.
     999903    1    1    0    0    0 -0.12795614294E-02 -0.34749528631E-02  0.10789054938E-01  0.23024254197E-01  0.20000000000E-01 0.  0.
</event>
<event>
 7    1  0.5676831E-066  0.9118800E+02  0.7957747E-01            NaN
     999900   -1    0    0    0    0  0.00000000000E+00  0.00000000000E+00  0.99999998245E-14  0.93827000000E+00  0.93827000000E+00 0.  1.
        -11    1    1    0    0    0 -0.97213504613E-03  0.23239378678E-02  0.11773914328E-02  0.28272080481E-02  0.51100000000E-03 0. -1.
        -14    1    1    0    0    0  0.69792226473E-03 -0.37617108140E-02 -0.12374131458E-02  0.40210390484E-02  0.00000000000E+00 0. -1.
         12    1    1    0    0    0  0.29547527852E-02 -0.39464683114E-03 -0.72279198292E-04  0.29818676069E-02  0.00000000000E+00 0.  1.
         14    1    1    0    0    0  0.13860032899E-02  0.78570530568E-03  0.19555167142E-02  0.25223765711E-02  0.00000000000E+00 0.  1.
     999901    1    1    0    0    0 -0.13878882275E-01  0.71617710501E-02  0.95102831847E-02  0.90018573629E+00  0.90000000000E+00 0.  1.
     999903    1    1    0    0    0  0.98123389816E-02 -0.61150565784E-02 -0.11333498988E-01  0.25731772433E-01  0.20000000000E-01 0.  0.
</event>
<event>
 7    1  0.5676831E-066  0.9118800E+02  0.7957747E-01            NaN
     999900   -1    0    0    0    0  0.00000000000E+00  0.00000000000E+00  0.99999998245E-14  0.93827000000E+00  0.93827000000E+00 0.  1.
        -11    1    1    0    0    0  0.56629892075E-03 -0.17711238424E-02 -0.22415910975E-02  0.29569284370E-02  0.51100000000E-03 0. -1.
        -14    1    1    0    0    0 -0.12298500063E-02 -0.13156057146E-02  0.18543652148E-02  0.25849603061E-02  0.00000000000E+00 0. -1.
         12    1    1    0    0    0  0.21353449912E-02  0.12943701419E-02  0.21344576859E-02  0.32849660438E-02  0.00000000000E+00 0.  1.
         14    1    1    0    0    0  0.58852985564E-02  0.36542770367E-03 -0.41532689343E-02  0.72124835768E-02  0.00000000000E+00 0.  1.
     999901    1    1    0    0    0 -0.15409619732E-01  0.61581408935E-02  0.21102697795E-02  0.90015544897E+00  0.90000000000E+00 0. -1.
     999903    1    1    0    0    0  0.80525272696E-02 -0.47312091820E-02  0.29576735161E-03  0.22075212662E-01  0.20000000000E-01 0.  0.
</event>
<event>
 7    1  0.5676831E-066  0.9118800E+02  0.7957747E-01            NaN
     999900   -1    0    0    0    0  0.00000000000E+00  0.00000000000E+00  0.99999998245E-14  0.93827000000E+00  0.93827000000E+00 0. -1.
        -11    1    1    0    0    0 -0.31926086540E-02 -0.20090294805E-03 -0.19840672373E-02  0.37987834650E-02  0.51100000000E-03 0. -1.
        -14    1    1    0    0    0  0.19240351662E-02 -0.15957888043E-02  0.19147497501E-02  0.31487648109E-02  0.00000000000E+00 0. -1.
         12    1    1    0    0    0 -0.11399893880E-02  0.51644759301E-03 -0.18865450924E-02  0.22639227696E-02  0.00000000000E+00 0.  1.
         14    1    1    0    0    0  0.41544423526E-02 -0.20125661907E-03  0.33987411150E-02  0.53713440269E-02  0.00000000000E+00 0.  1.
     999901    1    1    0    0    0  0.79537669580E-02 -0.65051243870E-02 -0.79352295647E-03  0.90005900292E+00  0.90000000000E+00 0.  1.
     999903    1    1    0    0    0 -0.96996464348E-02  0.79866251654E-02 -0.64935557899E-03  0.23628182011E-01  0.20000000000E-01 0.  0.
</event>
<event>
 7    1  0.5676831E-066  0.9118800E+02  0.7957747E-01            NaN
     999900   -1    0    0    0    0  0.00000000000E+00  0.00000000000E+00  0.99999998245E-14  0.93827000000E+00  0.93827000000E+00 0.  1.
        -11    1    1    0    0    0  0.90772377384E-03 -0.61334333767E-03 -0.15729881510E-02  0.19838259053E-02  0.51100000000E-03 0. -1.
        -14    1    1    0    0    0 -0.92022597377E-03 -0.22513285190E-02  0.49950424838E-02  0.55556948583E-02  0.00000000000E+00 0. -1.
         12    1    1    0    0    0  0.12853954323E-02  0.30870611525E-02  0.23383700205E-02  0.40804610437E-02  0.00000000000E+00 0.  1.
         14    1    1    0    0    0  0.11026868907E-02 -0.41158651740E-02  0.22201262430E-02  0.48047086326E-02  0.00000000000E+00 0.  1.
     999901    1    1    0    0    0 -0.61501608551E-02  0.19268027230E-02 -0.15225607509E-01  0.90015185173E+00  0.90000000000E+00 0. -1.
     999903    1    1    0    0    0  0.37745807321E-02  0.19666731552E-02  0.72450569122E-02  0.21693457831E-01  0.20000000000E-01 0.  0.
</event>
<event>
 7    1  0.5676831E-066  0.9118800E+02  0.7957747E-01            NaN
     999900   -1    0    0    0    0  0.00000000000E+00  0.00000000000E+00  0.99999998245E-14  0.93827000000E+00  0.93827000000E+00 0. -1.
        -11    1    1    0    0    0 -0.20449333704E-02 -0.13847704481E-02 -0.17327530890E-02  0.30598849571E-02  0.51100000000E-03 0. -1.
        -14    1    1    0    0    0  0.27159034789E-04  0.17454880338E-02  0.46384880790E-02  0.49561111518E-02  0.00000000000E+00 0. -1.
         12    1    1    0    0    0 -0.64720878413E-03 -0.44496350927E-02 -0.25811917743E-02  0.51846583922E-02  0.00000000000E+00 0.  1.
         14    1    1    0    0    0  0.12225096649E-02  0.18220661065E-02  0.36592972069E-03  0.22244908041E-02  0.00000000000E+00 0.  1.
     999901    1    1    0    0    0  0.75080929318E-02  0.99024350509E-02 -0.53963296317E-02  0.90010196648E+00  0.90000000000E+00 0.  1.
     999903    1    1    0    0    0 -0.60656194770E-02 -0.76355836504E-02  0.47058566953E-02  0.22742888219E-01  0.20000000000E-01 0.  0.
</event>
<event>
 7    1  0.5676831E-066  0.9118800E+02  0.7957747E-01            NaN
     999900   -1    0    0    0    0  0.00000000000E+00  0.00000000000E+00  0.99999998245E-14  0.93827000000E+00  0.93827000000E+00 0.  1.
        -11    1    1    0    0    0  0.99174223150E-03  0.27090746632E-02  0.65645582654E-03  0.30024479075E-02  0.51100000000E-03 0. -1.
        -14    1    1    0    0    0  0.49999487498E-03  0.37794699033E-05 -0.42036890664E-03  0.65323745841E-03  0.00000000000E+00 0. -1.
         12    1    1    0    0    0 -0.20118396229E-02  0.10564934001E-02  0.22151416599E-02  0.31734097665E-02  0.00000000000E+00 0.  1.
         14    1    1    0    0    0  0.49079442480E-02  0.10889898518E-02 -0.14708795647E-02  0.52380628416E-02  0.00000000000E+00 0.  1.
     999901    1    1    0    0    0 -0.11627481790E-01 -0.19629200599E-01 -0.15947082338E-04  0.90028912251E+00  0.90000000000E+00 0. -1.
     999903    1    1    0    0    0  0.72396400581E-02  0.14770863214E-01 -0.96440193275E-03  0.25913719520E-01  0.20000000000E-01 0.  0.
</event>
<event>
 7    1  0.5676831E-066  0.9118800E+02  0.7957747E-01            NaN
     999900   -1    0    0    0    0  0.00000000000E+00  0.00000000000E+00  0.99999998245E-14  0.93827000000E+00  0.93827000000E+00 0. -1.
        -11    1    1    0    0    0 -0.67948005827E-02  0.15864398988E-02  0.19773398281E-02  0.72702888737E-02  0.51100000000E-03 0. -1.
        -14    1    1    0    0    0  0.37719116776E-03 -0.76688095777E-03 -0.65369635834E-03  0.10759639907E-02  0.00000000000E+00 0. -1.
         12    1    1    0    0    0  0.31032596913E-02 -0.11046690653E-02  0.63062678993E-03  0.33538343137E-02  0.00000000000E+00 0.  1.
         14    1    1    0    0    0 -0.24431133266E-02 -0.23457100829E-02 -0.24784009927E-02  0.41968595402E-02  0.00000000000E+00 0.  1.
     999901    1    1    0    0    0  0.79361819697E-02  0.11961203253E-01  0.23949539517E-02  0.90011765296E+00  0.90000000000E+00 0. -1.
     999903    1    1    0    0    0 -0.21787189194E-02 -0.93303830463E-02 -0.18708232186E-02  0.22255400321E-01  0.20000000000E-01 0.  0.
</event>
<event>
 7    1  0.5676831E-066  0.9118800E+02  0.7957747E-01            NaN
     999900   -1    0    0    0    0  0.00000000000E+00  0.00000000000E+00  0.99999998245E-14  0.93827000000E+00  0.93827000000E+00 0. -1.
        -11    1    1    0    0    0 -0.34752414254E-02 -0.96362928300E-03  0.57259810272E-02  0.67862997343E-02  0.51100000000E-03 0. -1.
        -14    1    1    0    0    0  0.47319294069E-03 -0.20195510867E-02  0.14618246418E-02  0.25376030884E-02  0.00000000000E+00 0. -1.
         12    1    1    0    0    0 -0.17103475508E-02  0.98324054029E-03 -0.12224979411E-02  0.23208946380E-02  0.00000000000E+00 0.  1.
         14    1    1    0    0    0  0.12160891288E-02  0.10780921665E-02  0.27727442880E-02  0.32139176055E-02  0.00000000000E+00 0.  1.
     999901    1    1    0    0    0  0.14933471484E-01  0.39493020261E-02 -0.85641478936E-02  0.90017328898E+00  0.90000000000E+00 0.  1.
     999903    1    1    0    0    0 -0.11437164577E-01 -0.30274543632E-02 -0.17390412227E-03  0.23237995958E-01  0.20000000000E-01 0.  0.
</event>
<event>
 7    1  0.5676831E-066  0.9118800E+02  0.7957747E-01            NaN
     999900   -1    0    0    0    0  0.00000000000E+00  0.00000000000E+00  0.99999998245E-14  0.93827000000E+00  0.93827000000E+00 0.  1.
        -11    1    1    0    0    0 -0.15619294879E-03 -0.12265635089E-02  0.28219334797E-02  0.31230247905E-02  0.51100000000E-03 0. -1.
        -14    1    1    0    0    0 -0.23790486807E-02  0.25397321350E-02  0.17596544028E-02  0.38995506869E-02  0.00000000000E+00 0. -1.
         12    1    1    0    0    0  0.39685350354E-02 -0.11126347593E-02 -0.31440631675E-02  0.51838556727E-02  0.00000000000E+00 0.  1.
         14    1    1    0    0    0 -0.23584592768E-02 -0.27630817740E-02 -0.39892219058E-02  0.53954464564E-02  0.00000000000E+00 0.  1.
     999901    1    1    0    0    0  0.45080264310E-02 -0.10903409484E-02  0.30801254989E-02  0.90001722112E+00  0.90000000000E+00 0.  1.
     999903    1    1    0    0    0 -0.35828605601E-02  0.36528888555E-02 -0.52842830801E-03  0.20650901270E-01  0.20000000000E-01 0.  0.
</event>
<event>
 7    1  0.5676831E-066  0.9118800E+02  0.7957747E-01            NaN
     999900   -1    0    0    0    0  0.00000000000E+00  0.00000000000E+00  0.99999998245E-14  0.93827000000E+00  0.93827000000E+00 0.  1.
        -11    1    1    0    0    0  0.59157538415E-03  0.37360121288E-03  0.55003341745E-03  0.10262538973E-02  0.51100000000E-03 0. -1.
        -14    1    1    0    0    0  0.20449048126E-03  0.56271185447E-03  0.35680720407E-02  0.36179550959E-02  0.00000000000E+00 0. -1.
         12    1    1    0    0    0 -0.16523873208E-02  0.44585232934E-02 -0.11584557460E-02  0.48939588813E-02  0.00000000000E+00 0.  1.
         14    1    1    0    0    0 -0.31681813405E-02 -0.16769635706E-02  0.19602097380E-02  0.40855846632E-02  0.00000000000E+00 0.  1.
     999901    1    1    0    0    0  0.18374875776E-02 -0.17621654844E-01 -0.44284257792E-02  0.90018526428E+00  0.90000000000E+00 0. -1.
     999903    1    1    0    0    0  0.21870152183E-02  0.13903782054E-01 -0.49143367100E-03  0.24460983178E-01  0.20000000000E-01 0.  0.
</event>
<event>
 7    1  0.5676831E-066  0.9118800E+02  0.7957747E-01            NaN
     999900   -1    0    0    0    0  0.00000000000E+00  0.00000000000E+00  0.99999998245E-14  0.93827000000E+00  0.93827000000E+00 0.  1.
        -11    1    1    0    0    0 -0.23297485890E-02  0.20743022242E-02  0.65734551235E-02  0.72939626724E-02  0.51100000000E-03 0. -1.
        -14    1    1    0    0    0 -0.62950519972E-03  0.59492095228E-03 -0.92674873570E-03  0.12684916062E-02  0.00000000000E+00 0. -1.
         12    1    1    0    0    0  0.15702128168E-02 -0.10901936690E-02 -0.50498447728E-03  0.19771443671E-02  0.00000000000E+00 0.  1.
         14    1    1    0    0    0  0.27785676652E-02  0.14893854587E-02  0.23082826389E-02  0.39072849980E-02  0.00000000000E+00 0.  1.
     999901    1    1    0    0    0  0.10623404826E-02  0.87952530322E-02 -0.11361747248E-01  0.90011531169E+00  0.90000000000E+00 0. -1.
     999903    1    1    0    0    0 -0.24518671759E-02 -0.11863667998E-01  0.39117426982E-02  0.23707804664E-01  0.20000000000E-01 0.  0.
</event>
<event>
 7    1  0.5676831E-066  0.9118800E+02  0.7957747E-01            NaN
     999900   -1    0    0    0    0  0.00000000000E+00  0.00000000000E+00  0.99999998245E-14  0.93827000000E+00  0.93827000000E+00 0.  1.
        -11    1    1    0    0    0 -0.28115944037E-02  0.62627268825E-03  0.13268126759E-02  0.32122941098E-02  0.51100000000E-03 0. -1.
        -14    1    1    0    0    0  0.19606856472E-02 -0.19352811958E-02  0.13689381312E-02  0.30762953566E-02  0.00000000000E+00 0. -1.
         12    1    1    0    0    0  0.13479298085E-02  0.14773387034E-02  0.39816991706E-03  0.20391134584E-02  0.00000000000E+00 0.  1.
         14    1    1    0    0    0  0.14246445342E-02 -0.14904309737E-02 -0.28399639852E-02  0.35094717514E-02  0.00000000000E+00 0.  1.
     999901    1    1    0    0    0  0.25742789077E-02  0.14308477879E-01  0.97881192730E-02  0.90017063201E+00  0.90000000000E+00 0.  1.
     999903    1    1    0    0    0 -0.44959444939E-02 -0.12986377102E-01 -0.10042076012E-01  0.26262193316E-01  0.20000000000E-01 0.  0.
</event>
<event>
 7    1  0.5676831E-066  0.9118800E+02  0.7957747E-01            NaN
     999900   -1    0    0    0    0  0.00000000000E+00  0.00000000000E+00  0.99999998245E-14  0.93827000000E+00  0.93827000000E+00 0. -1.
        -11    1    1    0    0    0 -0.72141212454E-03 -0.11475980170E-02  0.71675106810E-03  0.16162517612E-02  0.51100000000E-03 0. -1.
        -14    1    1    0    0    0  0.10120763528E-02  0.53004857429E-02 -0.41213273415E-02  0.67900505676E-02  0.00000000000E+00 0. -1.
         12    1    1    0    0    0  0.14767596029E-02 -0.30548119357E-02  0.14157392876E-02  0.36765490093E-02  0.00000000000E+00 0.  1.
         14    1    1    0    0    0 -0.13445609837E-02  0.63405018728E-03 -0.22066936836E-02  0.26607068407E-02  0.00000000000E+00 0.  1.
     999901    1    1    0    0    0  0.75005580319E-02 -0.10340782901E-01  0.74947594806E-02  0.90012185930E+00  0.90000000000E+00 0. -1.
     999903    1    1    0    0    0 -0.79234208794E-02  0.86086569234E-02 -0.32992288112E-02  0.23404582526E-01  0.20000000000E-01 0.  0.
</event>
<event>
 7    1  0.5676831E-066  0.9118800E+02  0.7957747E-01            NaN
     999900   -1    0    0    0    0  0.00000000000E+00  0.00000000000E+00  0.99999998245E-14  0.93827000000E+00  0.93827000000E+00 0. -1.
        -11    1    1    0    0    0 -0.44813699639E-02 -0.19461406815E-02  0.27870347466E-02  0.56479043887E-02  0.51100000000E-03 0. -1.
        -14    1    1    0    0    0  0.31198045135E-02 -0.23223006221E-05 -0.21180428405E-02  0.37708475268E-02  0.00000000000E+00 0. -1.
         12    1    1    0    0    0  0.11050161601E-03  0.29694379296E-03  0.14089630888E-02  0.14441479180E-02  0.00000000000E+00 0.  1.
         14    1    1    0    0    0 -0.12807003585E-02  0.38074860969E-02 -0.66010553246E-03  0.40709806068E-02  0.00000000000E+00 0.  1.
     999901    1    1    0    0    0  0.47387809152E-02  0.11626367148E-02  0.97889795648E-02  0.90006645971E+00  0.90000000000E+00 0. -1.
     999903    1    1    0    0    0 -0.22070167223E-02 -0.33186036226E-02 -0.11206829027E-01  0.23269659853E-01  0.20000000000E-01 0.  0.
</event>
<event>
 7    1  0.5676831E-066  0.9118800E+02  0.7957747E-01            NaN
     999900   -1    0    0    0    0  0.00000000000E+00  0.00000000000E+00  0.99999998245E-14  0.93827000000E+00  0.93827000000E+00 0.  1.
        -11    1    1    0    0    0 -0.19722406249E-02 -0.14453437028E-02  0.64948668255E-02  0.69586757062E-02  0.51100000000E-03 0. -1.
        -14    1    1    0    0    0 -0.19669038778E-02 -0.91081292459E-03 -0.21481089582E-02  0.30516656345E-02  0.00000000000E+00 0. -1.
         12    1    1    0    0    0  0.55353733881E-03 -0.21740983707E-02 -0.12189959017E-02  0.25532446650E-02  0.00000000000E+00 0.  1.
         14    1    1    0    0    0 -0.40488930381E-02  0.31969166079E-02 -0.30499999844E-04  0.51589476526E-02  0.00000000000E+00 0.  1.
     999901    1    1    0    0    0  0.10774468130E-01  0.43131060083E-03 -0.34475888900E-03  0.90006466104E+00  0.90000000000E+00 0.  1.
     999903    1    1    0    0    0 -0.33399679276E-02  0.90202778938E-03 -0.27525030768E-02  0.20482805303E-01  0.20000000000E-01 0.  0.
</event>
<event>
 7    1  0.5676831E-066  0.9118800E+02  0.7957747E-01            NaN
     999900   -1    0    0    0    0  0.00000000000E+00  0.00000000000E+00  0.99999998245E-14  0.93827000000E+00  0.93827000000E+00 0. -1.
        -11    1    1    0    0    0  0.15023872202E-02 -0.34918699686E-02 -0.97495244531E-03  0.39575215107E-02  0.51100000000E-03 0. -1.
        -14    1    1    0    0    0 -0.21390570364E-02  0.26102143557E-02 -0.36322005657E-02  0.49579900098E-02  0.00000000000E+00 0. -1.
         12    1    1    0    0    0 -0.34671733308E-03 -0.85903118010E-03  0.21600290887E-05  0.92636501616E-03  0.00000000000E+00 0.  1.
         14    1    1    0    0    0  0.18375959901E-02  0.23138438564E-02 -0.54846314967E-02  0.62299129263E-02  0.00000000000E+00 0.  1.
     999901    1    1    0    0    0  0.60847405608E-02 -0.61440448139E-02  0.68362471269E-02  0.90006750171E+00  0.90000000000E+00 0. -1.
     999903    1    1    0    0    0 -0.69389494015E-02  0.55708877506E-02  0.32533773517E-02  0.22130708830E-01  0.20000000000E-01 0.  0.
</event>
<event>
 7    1  0.5676831E-066  0.9118800E+02  0.7957747E-01            NaN
     999900   -1    0    0    0    0  0.00000000000E+00  0.00000000000E+00  0.99999998245E-14  0.93827000000E+00  0.93827000000E+00 0.  1.
        -11    1    1    0    0    0 -0.19102498123E-02  0.29686146755E-03 -0.31958306979E-02  0.37698323472E-02  0.51100000000E-03 0. -1.
        -14    1    1    0    0    0  0.19841783533E-02 -0.31275669856E-02  0.40361607391E-03  0.37257945357E-02  0.00000000000E+00 0. -1.
         12    1    1    0    0    0  0.13629964378E-02 -0.30360518294E-02  0.11415763140E-02  0.35183187008E-02  0.00000000000E+00 0.  1.
         14    1    1    0    0    0 -0.25703816131E-02  0.25349239487E-02  0.43465867159E-03  0.36361558305E-02  0.00000000000E+00 0.  1.
     999901    1    1    0    0    0 -0.84687519819E-02  0.77019320237E-02 -0.52979873954E-02  0.90008838910E+00  0.90000000000E+00 0. -1.
     999903    1    1    0    0    0  0.96022086162E-02 -0.43700986249E-02  0.65139670337E-02  0.23531509489E-01  0.20000000000E-01 0.  0.
</event>
<event>
 7    1  0.5676831E-066  0.9118800E+02  0.7957747E-01            NaN
     999900   -1    0    0    0    0  0.00000000000E+00  0.00000000000E+00  0.99999998245E-14  0.93827000000E+00  0.93827000000E+00 0.  1.
        -11    1    1    0    0    0  0.16763394115E-02  0.25233273338E-02  0.89340709921E-03  0.31994674402E-02  0.51100000000E-03 0. -1.
        -14    1    1    0    0    0  0.11785631077E-02 -0.42761822974E-02  0.18236862963E-02  0.47958917572E-02  0.00000000000E+00 0. -1.
         12    1    1    0    0    0 -0.92903657356E-03 -0.21748798619E-02 -0.20767796198E-02  0.31474155998E-02  0.00000000000E+00 0.  1.
         14    1    1    0    0    0  0.19694930698E-03 -0.82238855713E-03  0.39120682490E-02  0.40024230103E-02  0.00000000000E+00 0.  1.
     999901    1    1    0    0    0  0.52482605678E-02  0.14826706657E-02 -0.12609023595E-01  0.90010484391E+00  0.90000000000E+00 0. -1.
     999903    1    1    0    0    0 -0.73710758205E-02  0.32674527168E-02  0.80566415704E-02  0.23019958284E-01  0.20000000000E-01 0.  0.
</event>
<event>
 7    1  0.7002350E-066  0.9118800E+02  0.7957747E-01            NaN
     999900   -1    0    0    0    0  0.00000000000E+00  0.00000000000E+00  0.99999998245E-14  0.93827000000E+00  0.93827000000E+00 0. -1.
        -11    1    1    0    0    0  0.34615295504E-02 -0.12164822762E-02  0.19015709134E-03  0.37093525952E-02  0.51100000000E-03 0. -1.
        -14    1    1    0    0    0 -0.24582550832E-02 -0.12065394057E-02 -0.46393384596E-03  0.27774070651E-02  0.00000000000E+00 0. -1.
         12    1    1    0    0    0  0.57031163745E-03 -0.87132884209E-02  0.17289575692E-02  0.89014574506E-02  0.00000000000E+00 0.  1.
         14    1    1    0    0    0 -0.17607680695E-03  0.13311265302E-02 -0.11229723455E-02  0.17504193127E-02  0.00000000000E+00 0.  1.
     999901    1    1    0    0    0  0.63245016526E-03  0.13204267875E-01  0.47893849073E-02  0.90010982157E+00  0.90000000000E+00 0. -1.
     999903    1    1    0    0    0 -0.20299594629E-02 -0.33990843020E-02 -0.51215933764E-02  0.21021542004E-01  0.20000000000E-01 0.  0.
</event>
<event>
 7    1  0.5676831E-066  0.9118800E+02  0.7957747E-01            NaN
     999900   -1    0    0    0    0  0.00000000000E+00  0.00000000000E+00  0.99999998245E-14  0.93827000000E+00  0.93827000000E+00 0.  1.
        -11    1    1    0    0    0  0.13206042302E-02  0.10110101814E-02  0.28150670856E-02  0.33093595779E-02  0.51100000000E-03 0. -1.
        -14    1    1    0    0    0 -0.29701938423E-02 -0.17538704082E-02 -0.15550227037E-02  0.37836765822E-02  0.00000000000E+00 0. -1.
         12    1    1    0    0    0 -0.25209249455E-02  0.15308663235E-04  0.21870689834E-03  0.25304406026E-02  0.00000000000E+00 0.  1.
         14    1    1    0    0    0  0.29455149140E-02 -0.36840725631E-03  0.29290711990E-03  0.29828805869E-02  0.00000000000E+00 0.  1.
     999901    1    1    0    0    0  0.14126050221E-01 -0.55508398529E-02  0.46196180710E-02  0.90013982136E+00  0.90000000000E+00 0.  1.
     999903    1    1    0    0    0 -0.12901050577E-01  0.66467986728E-02 -0.63912764711E-02  0.25523821295E-01  0.20000000000E-01 0.  0.
</event>
<event>
 7    1  0.5676831E-066  0.9118800E+02  0.7957747E-01            NaN
     999900   -1    0    0    0    0  0.00000000000E+00  0.00000000000E+00  0.99999998245E-14  0.93827000000E+00  0.93827000000E+00 0. -1.
        -11    1    1    0    0    0  0.17455835339E-02  0.16461179063E-02  0.16992131033E-02  0.29841602178E-02  0.51100000000E-03 0. -1.
        -14    1    1    0    0    0 -0.38013700296E-03  0.10551744544E-02 -0.65699696011E-02  0.66650129655E-02  0.00000000000E+00 0. -1.
         12    1    1    0    0    0  0.95625467456E-03 -0.46386389882E-02 -0.65600935820E-03  0.47813955016E-02  0.00000000000E+00 0.  1.
         14    1    1    0    0    0  0.13502587012E-02  0.40275999526E-03 -0.14860568997E-02  0.20478718913E-02  0.00000000000E+00 0.  1.
     999901    1    1    0    0    0 -0.64682989252E-02 -0.12497897750E-02  0.14314016467E-01  0.90013792939E+00  0.90000000000E+00 0. -1.
     999903    1    1    0    0    0  0.27963390185E-02  0.27843764073E-02 -0.73011937108E-02  0.21653630030E-01  0.20000000000E-01 0.  0.
</event>
<event>
 7    1  0.5676831E-066  0.9118800E+02  0.7957747E-01            NaN
     999900   -1    0    0    0    0  0.00000000000E+00  0.00000000000E+00  0.99999998245E-14  0.93827000000E+00  0.93827000000E+00 0. -1.
        -11    1    1    0    0    0  0.37577189017E-02 -0.20194259400E-02  0.20527399059E-03  0.43013708143E-02  0.51100000000E-03 0. -1.
        -14    1    1    0    0    0  0.38761601110E-02 -0.13528008176E-02  0.47058341238E-02  0.62449629349E-02  0.00000000000E+00 0. -1.
         12    1    1    0    0    0  0.76354191636E-03  0.11081748111E-02 -0.89012729448E-03  0.16134975273E-02  0.00000000000E+00 0.  1.
         14    1    1    0    0    0  0.15055849562E-02 -0.50092653232E-02 -0.32352852019E-03  0.52406293365E-02  0.00000000000E+00 0.  1.
     999901    1    1    0    0    0 -0.10684595009E-01  0.26025687344E-02 -0.48719194074E-03  0.90006731487E+00  0.90000000000E+00 0.  1.
     999903    1    1    0    0    0  0.78158912405E-03  0.46707485354E-02 -0.32102603590E-02  0.20802224521E-01  0.20000000000E-01 0.  0.
</event>
<event>
 7    1  0.5676831E-066  0.9118800E+02  0.7957747E-01            NaN
     999900   -1    0    0    0    0  0.00000000000E+00  0.00000000000E+00  0.99999998245E-14  0.93827000000E+00  0.93827000000E+00 0.  1.
        -11    1    1    0    0    0  0.57290500391E-03  0.42950205227E-03  0.28305560860E-02  0.29640952941E-02  0.51100000000E-03 0. -1.
        -14    1    1    0    0    0 -0.49828313436E-03 -0.32439399602E-02 -0.38971993262E-02  0.50950559502E-02  0.00000000000E+00 0. -1.
         12    1    1    0    0    0 -0.11123547367E-02  0.58388909285E-03  0.27009716152E-02  0.29788432653E-02  0.00000000000E+00 0.  1.
         14    1    1    0    0    0  0.42688856000E-03  0.16763201313E-02 -0.22972548747E-02  0.28757021725E-02  0.00000000000E+00 0.  1.
     999901    1    1    0    0    0 -0.43016741768E-02  0.13207078366E-01  0.25643746575E-02  0.90011083059E+00  0.90000000000E+00 0.  1.
     999903    1    1    0    0    0  0.49125184839E-02 -0.12652849682E-01 -0.19014481578E-02  0.24245472733E-01  0.20000000000E-01 0.  0.
</event>
<event>
 7    1  0.5676831E-066  0.9118800E+02  0.7957747E-01            NaN
     999900   -1    0    0    0    0  0.00000000000E+00  0.00000000000E+00  0.99999998245E-14  0.93827000000E+00  0.93827000000E+00 0.  1.
        -11    1    1    0    0    0 -0.10722867418E-02  0.10231822410E-02  0.11172696322E-02  0.19251267973E-02  0.51100000000E-03 0. -1.
        -14    1    1    0    0    0  0.20372061900E-02  0.13570140408E-02  0.23195138841E-02  0.33722160112E-02  0.00000000000E+00 0. -1.
         12    1    1    0    0    0  0.14262629731E-02  0.24150308878E-02  0.26912947550E-02  0.38871156036E-02  0.00000000000E+00 0.  1.
         14    1    1    0    0    0  0.15876622437E-02 -0.49862974054E-02 -0.13655487268E-02  0.54081934637E-02  0.00000000000E+00 0.  1.
     999901    1    1    0    0    0 -0.11015892312E-01 -0.87543919861E-02 -0.96066508154E-02  0.90016125056E+00  0.90000000000E+00 0. -1.
     999903    1    1    0    0    0  0.70370476473E-02  0.89454622219E-02  0.48441212709E-02  0.23516097568E-01  0.20000000000E-01 0.  0.
</event>
<event>
 7    1  0.5676831E-066  0.9118800E+02  0.7957747E-01            NaN
     999900   -1    0    0    0    0  0.00000000000E+00  0.00000000000E+00  0.99999998245E-14  0.93827000000E+00  0.93827000000E+00 0. -1.
        -11    1    1    0    0    0  0.14149385065E-02 -0.22125493979E-02  0.47675265278E-03  0.27176901787E-02  0.51100000000E-03 0. -1.
        -14    1    1    0    0    0  0.69473144603E-03  0.47598946071E-02  0.13106744117E-02  0.49856911122E-02  0.00000000000E+00 0. -1.
         12    1    1    0    0    0  0.15217866161E-02  0.39469594897E-02 -0.65149644707E-03  0.42800433805E-02  0.00000000000E+00 0.  1.
         14    1    1    0    0    0  0.38166618721E-02 -0.21109436265E-02 -0.14457067988E-02  0.45948948833E-02  0.00000000000E+00 0.  1.
     999901    1    1    0    0    0  0.89054893358E-03 -0.44065797395E-02 -0.40031762754E-03  0.90001131730E+00  0.90000000000E+00 0. -1.
     999903    1    1    0    0    0 -0.83386673744E-02  0.23218667074E-04  0.71009380885E-03  0.21680363141E-01  0.20000000000E-01 0.  0.
</event>
<event>
 7    1  0.5676831E-066  0.9118800E+02  0.7957747E-01            NaN
     999900   -1    0    0    0    0  0.00000000000E+00  0.00000000000E+00  0.99999998245E-14  0.93827000000E+00  0.93827000000E+00 0.  1.
        -11    1    1    0    0    0  0.13028190731E-03  0.31237128906E-02  0.22307652617E-02  0.38745309718E-02  0.51100000000E-03 0. -1.
        -14    1    1    0    0    0  0.13125955199E-02 -0.10313033349E-02 -0.10242665512E-02  0.19584727558E-02  0.00000000000E+00 0. -1.
         12    1    1    0    0    0  0.78704118234E-04 -0.22921168104E-02  0.52895980668E-02  0.57654003780E-02  0.00000000000E+00 0.  1.
         14    1    1    0    0    0 -0.10611667872E-02 -0.11461621109E-02 -0.11325515000E-02  0.19293614060E-02  0.00000000000E+00 0.  1.
     999901    1    1    0    0    0  0.51054876893E-02  0.77955918549E-02 -0.16745401432E-01  0.90020400228E+00  0.90000000000E+00 0. -1.
     999903    1    1    0    0    0 -0.55659024476E-02 -0.64497224892E-02  0.11381856155E-01  0.24538232206E-01  0.20000000000E-01 0.  0.
</event>
<event>
 7    1  0.5676831E-066  0.9118800E+02  0.7957747E-01            NaN
     999900   -1    0    0    0    0  0.00000000000E+00  0.00000000000E+00  0.99999998245E-14  0.93827000000E+00  0.93827000000E+00 0. -1.
        -11    1    1    0    0    0 -0.68366591454E-03 -0.19693270463E-02 -0.20952464562E-02  0.29994710884E-02  0.51100000000E-03 0. -1.
        -14    1    1    0    0    0  0.17339190769E-03  0.46706393763E-02  0.11676000981E-02  0.48174917671E-02  0.00000000000E+00 0. -1.
         12    1    1    0    0    0  0.58810985871E-04  0.19305688965E-04  0.24755526751E-02  0.24763264100E-02  0.00000000000E+00 0.  1.
         14    1    1    0    0    0 -0.32945391179E-02 -0.27416001178E-02 -0.10190648327E-02  0.44055479045E-02  0.00000000000E+00 0.  1.
     999901    1    1    0    0    0  0.41614092106E-02 -0.12256310383E-01 -0.10643998253E-02  0.90009369924E+00  0.90000000000E+00 0. -1.
     999903    1    1    0    0    0 -0.41540707172E-03  0.12277292482E-01  0.53555834098E-03  0.23477463587E-01  0.20000000000E-01 0.  0.
</event>
<event>
 7    1  0.5676831E-066  0.9118800E+02  0.7957747E-01            NaN
     999900   -1    0    0    0    0  0.00000000000E+00  0.00000000000E+00  0.99999998245E-14  0.93827000000E+00  0.93827000000E+00 0.  1.
        -11    1    1    0    0    0 -0.13421427022E-02  0.54989693500E-03  0.90813561597E-04  0.15404875122E-02  0.51100000000E-03 0. -1.
        -14    1    1    0    0    0  0.87015599776E-03  0.10165057325E-02 -0.13598106459E-02  0.19077579399E-02  0.00000000000E+00 0. -1.
         12    1    1    0    0    0 -0.74122149027E-03 -0.20475586309E-02 -0.69807448473E-02  0.73125032833E-02  0.00000000000E+00 0.  1.
         14    1    1    0    0    0  0.16423603958E-02  0.26891642979E-02 -0.18012367858E-02  0.36295187353E-02  0.00000000000E+00 0.  1.
     999901    1    1    0    0    0  0.68262832412E-02  0.83563456002E-02  0.92440329038E-02  0.90011214790E+00  0.90000000000E+00 0.  1.
     999903    1    1    0    0    0 -0.72554354423E-02 -0.10564353935E-01  0.80694581368E-03  0.23767584628E-01  0.20000000000E-01 0.  0.
</event>
<event>
 7    1  0.5676831E-066  0.9118800E+02  0.7957747E-01            NaN
     999900   -1    0    0    0    0  0.00000000000E+00  0.00000000000E+00  0.99999998245E-14  0.93827000000E+00  0.93827000000E+00 0. -1.
        -11    1    1    0    0    0 -0.54763854632E-04  0.15856929338E-02  0.72932221701E-03  0.18194650467E-02  0.51100000000E-03 0. -1.
        -14    1    1    0    0    0  0.40251793370E-02  0.65590012010E-04 -0.46399312313E-02  0.61429091297E-02  0.00000000000E+00 0. -1.
         12    1    1    0    0    0 -0.23667798757E-04  0.75334598603E-03  0.11144580342E-03  0.76191240078E-03  0.00000000000E+00 0.  1.
         14    1    1    0    0    0  0.60934392928E-03 -0.17706621803E-02  0.11324003796E-02  0.21883498808E-02  0.00000000000E+00 0.  1.
     999901    1    1    0    0    0 -0.10233410346E-02  0.21924418578E-02 -0.15242297499E-01  0.90013231342E+00  0.90000000000E+00 0.  1.
     999903    1    1    0    0    0 -0.35327505782E-02 -0.28264086093E-02  0.17909060330E-01  0.27225050123E-01  0.20000000000E-01 0.  0.
</event>
<event>
 7    1  0.5676831E-066  0.9118800E+02  0.7957747E-01            NaN
     999900   -1    0    0    0    0  0.00000000000E+00  0.00000000000E+00  0.99999998245E-14  0.93827000000E+00  0.93827000000E+00 0. -1.
        -11    1    1    0    0    0  0.22145252624E-02  0.12475149029E-02  0.14171657676E-02  0.29546396369E-02  0.51100000000E-03 0. -1.
        -14    1    1    0    0    0  0.68912985108E-03 -0.20717889208E-02  0.11389489224E-02  0.24626030805E-02  0.00000000000E+00 0. -1.
         12    1    1    0    0    0 -0.21124251637E-02 -0.61007555170E-02 -0.23434032539E-03  0.64603771824E-02  0.00000000000E+00 0.  1.
         14    1    1    0    0    0  0.61520722185E-03 -0.21053203543E-03  0.10310963082E-02  0.12190009272E-02  0.00000000000E+00 0.  1.
     999901    1    1    0    0    0 -0.55672360201E-02  0.79548399385E-02  0.11125786060E-01  0.90012113447E+00  0.90000000000E+00 0. -1.
     999903    1    1    0    0    0  0.41607988485E-02 -0.81927836815E-03 -0.14478656733E-01  0.25052244708E-01  0.20000000000E-01 0.  0.
</event>
<event>
 7    1  0.7349802E-066  0.9118800E+02  0.7957747E-01            NaN
     999900   -1    0    0    0    0  0.00000000000E+00  0.00000000000E+00  0.99999998245E-14  0.93827000000E+00  0.93827000000E+00 0. -1.
        -11    1    1    0    0    0  0.29107579672E-02 -0.35762739303E-02 -0.27206347933E-02  0.53782173484E-02  0.51100000000E-03 0. -1.
        -14    1    1    0    0    0 -0.14352371337E-02  0.24221329445E-02  0.17908165553E-04  0.28154847421E-02  0.00000000000E+00 0. -1.
         12    1    1    0    0    0 -0.37717459362E-02  0.27783670215E-02 -0.45556387393E-02  0.65344651683E-02  0.00000000000E+00 0.  1.
         14    1    1    0    0    0 -0.11496986007E-02 -0.51308109678E-03  0.18234768545E-02  0.22158806203E-02  0.00000000000E+00 0.  1.
     999901    1    1    0    0    0 -0.12407001283E-02  0.12979966039E-02  0.24354683323E-03  0.90000182414E+00  0.90000000000E+00 0.  1.
     999903    1    1    0    0    0  0.46866238317E-02 -0.24091415428E-02  0.51913416793E-02  0.21324127986E-01  0.20000000000E-01 0.  0.
</event>
<event>
 7    1  0.5676831E-066  0.9118800E+02  0.7957747E-01            NaN
     999900   -1    0    0    0    0  0.00000000000E+00  0.00000000000E+00  0.99999998245E-14  0.93827000000E+00  0.93827000000E+00 0. -1.
        -11    1    1    0    0    0 -0.20953769292E-03 -0.29888602304E-02 -0.15269767112E-02  0.34014659190E-02  0.51100000000E-03 0. -1.
        -14    1    1    0    0    0  0.17719858465E-02  0.24958254385E-03  0.23666631978E-02  0.29670389243E-02  0.00000000000E+00 0. -1.
         12    1    1    0    0    0 -0.67074663950E-02  0.21085432834E-02 -0.54291898892E-03  0.70520083130E-02  0.00000000000E+00 0.  1.
         14    1    1    0    0    0 -0.89049307534E-03 -0.36316490125E-02 -0.22728738480E-03  0.37461329424E-02  0.00000000000E+00 0.  1.
     999901    1    1    0    0    0  0.10720847390E-01  0.19273775574E-02  0.37821338845E-02  0.90007386135E+00  0.90000000000E+00 0.  1.
     999903    1    1    0    0    0 -0.46853360736E-02  0.23350058582E-02 -0.38516139974E-02  0.21029492549E-01  0.20000000000E-01 0.  0.
</event>
<event>
 7    1  0.5676831E-066  0.9118800E+02  0.7957747E-01            NaN
     999900   -1    0    0    0    0  0.00000000000E+00  0.00000000000E+00  0.99999998245E-14  0.93827000000E+00  0.93827000000E+00 0. -1.
        -11    1    1    0    0    0  0.27543524857E-02  0.10553324355E-03 -0.14879414469E-02  0.31737494593E-02  0.51100000000E-03 0. -1.
        -14    1    1    0    0    0 -0.35454263549E-02  0.24193635179E-02  0.12455147020E-02  0.44693036082E-02  0.00000000000E+00 0. -1.
         12    1    1    0    0    0 -0.39048159717E-02  0.16411016525E-02 -0.39602143760E-02  0.57986291751E-02  0.00000000000E+00 0.  1.
         14    1    1    0    0    0  0.11102852245E-02  0.36807343827E-02  0.35279020128E-03  0.38606993928E-02  0.00000000000E+00 0.  1.
     999901    1    1    0    0    0 -0.20755854109E-02 -0.53192682463E-02  0.34380823506E-02  0.90002467915E+00  0.90000000000E+00 0. -1.
     999903    1    1    0    0    0  0.56611900272E-02 -0.25274645503E-02  0.41176856899E-03  0.20942939214E-01  0.20000000000E-01 0.  0.
</event>
<event>
 7    1  0.5676831E-066  0.9118800E+02  0.7957747E-01            NaN
     999900   -1    0    0    0    0  0.00000000000E+00  0.00000000000E+00  0.99999998245E-14  0.93827000000E+00  0.93827000000E+00 0.  1.
        -11    1    1    0    0    0 -0.23301468308E-02  0.30039044310E-02 -0.22957334304E-02  0.44704070360E-02  0.51100000000E-03 0. -1.
        -14    1    1    0    0    0  0.10446886559E-02  0.29579930932E-02 -0.92485308998E-03  0.32705428854E-02  0.00000000000E+00 0. -1.
         12    1    1    0    0    0  0.12059861754E-02  0.39457376035E-03  0.15269749255E-03  0.12780483683E-02  0.00000000000E+00 0.  1.
         14    1    1    0    0    0 -0.24543379651E-02  0.89862479785E-03  0.42450669308E-02  0.49851674617E-02  0.00000000000E+00 0.  1.
     999901    1    1    0    0    0  0.23224511659E-02 -0.83000852770E-03  0.10830424536E-01  0.90006854227E+00  0.90000000000E+00 0.  1.
     999903    1    1    0    0    0  0.21135879874E-03 -0.64250875548E-02 -0.12007602439E-01  0.24197291976E-01  0.20000000000E-01 0.  0.
</event>
<event>
 7    1  0.5676831E-066  0.9118800E+02  0.7957747E-01            NaN
     999900   -1    0    0    0    0  0.00000000000E+00  0.00000000000E+00  0.99999998245E-14  0.93827000000E+00  0.93827000000E+00 0.  1.
        -11    1    1    0    0    0  0.19210425793E-02 -0.18388031309E-02 -0.98216293117E-03  0.28805149833E-02  0.51100000000E-03 0. -1.
        -14    1    1    0    0    0  0.31540999796E-03  0.40312891756E-03  0.89639656094E-03  0.10322418251E-02  0.00000000000E+00 0. -1.
         12    1    1    0    0    0  0.48527083059E-03  0.10509475349E-02  0.12639759852E-02  0.17139468461E-02  0.00000000000E+00 0.  1.
         14    1    1    0    0    0 -0.53296377681E-03  0.42821212466E-02  0.97257317429E-03  0.44234049484E-02  0.00000000000E+00 0.  1.
     999901    1    1    0    0    0  0.40156117335E-03 -0.93531722669E-02  0.16520649690E-01  0.90020029713E+00  0.90000000000E+00 0.  1.
     999903    1    1    0    0    0 -0.25903208044E-02  0.54557776987E-02 -0.18671432480E-01  0.28019594269E-01  0.20000000000E-01 0.  0.
</event>
<event>
 7    1  0.5676831E-066  0.9118800E+02  0.7957747E-01            NaN
     999900   -1    0    0    0    0  0.00000000000E+00  0.00000000000E+00  0.99999998245E-14  0.93827000000E+00  0.93827000000E+00 0. -1.
        -11    1    1    0    0    0  0.28233508377E-02  0.79054931017E-03 -0.15018882189E-02  0.33336267617E-02  0.51100000000E-03 0. -1.
        -14    1    1    0    0    0  0.12083203471E-02  0.85376246774E-03  0.97118132739E-03  0.17697857450E-02  0.00000000000E+00 0. -1.
         12    1    1    0    0    0 -0.98924332453E-03 -0.13284029758E-02 -0.21406326253E-02  0.27065780716E-02  0.00000000000E+00 0.  1.
         14    1    1    0    0    0  0.88111832074E-03  0.35117528169E-02 -0.15089669667E-02  0.39224684382E-02  0.00000000000E+00 0.  1.
     999901    1    1    0    0    0 -0.60375836852E-02  0.12668148821E-01  0.86173213374E-02  0.90015064997E+00  0.90000000000E+00 0. -1.
     999903    1    1    0    0    0  0.21140375042E-02 -0.16495810440E-01 -0.44370148540E-02  0.26386891015E-01  0.20000000000E-01 0.  0.
</event>
<event>
 7    1  0.5676831E-066  0.9118800E+02  0.7957747E-01            NaN
     999900   -1    0    0    0    0  0.00000000000E+00  0.00000000000E+00  0.99999998245E-14  0.93827000000E+00  0.93827000000E+00 0.  1.
        -11    1    1    0    0    0 -0.52391408359E-03 -0.39793947285E-02 -0.11307535968E-02  0.42011656798E-02  0.51100000000E-03 0. -1.
        -14    1    1    0    0    0  0.11625581265E-02 -0.27766663360E-03  0.14590046840E-03  0.12041291889E-02  0.00000000000E+00 0. -1.
         12    1    1    0    0    0  0.89006277895E-03  0.18907941191E-02  0.15620351267E-02  0.26090741439E-02  0.00000000000E+00 0.  1.
         14    1    1    0    0    0  0.50542196907E-02 -0.14057823354E-03 -0.18832674597E-02  0.53955162169E-02  0.00000000000E+00 0.  1.
     999901    1    1    0    0    0 -0.18771644664E-01 -0.17219273377E-02 -0.51039972067E-02  0.90021185866E+00  0.90000000000E+00 0. -1.
     999903    1    1    0    0    0  0.12188718151E-01  0.42287728142E-02  0.64100826680E-02  0.24648256115E-01  0.20000000000E-01 0.  0.
</event>
<event>
 7    1  0.5676831E-066  0.9118800E+02  0.7957747E-01            NaN
     999900   -1    0    0    0    0  0.00000000000E+00  0.00000000000E+00  0.99999998245E-14  0.93827000000E+00  0.93827000000E+00 0. -1.
        -11    1    1    0    0    0 -0.12647076149E-02 -0.46310628539E-02 -0.52056050661E-02  0.70996953182E-02  0.51100000000E-03 0. -1.
        -14    1    1    0    0    0  0.37074018100E-03  0.22591211140E-02 -0.14397553673E-02  0.27044356171E-02  0.00000000000E+00 0. -1.
         12    1    1    0    0    0 -0.30773516157E-02  0.33968199607E-02  0.15838557628E-02  0.48494409873E-02  0.00000000000E+00 0.  1.
         14    1    1    0    0    0 -0.17041662329E-02 -0.18591786314E-02 -0.18034913889E-02  0.31005336513E-02  0.00000000000E+00 0.  1.
     999901    1    1    0    0    0  0.90823079054E-02  0.13707427333E-03  0.91110878318E-02  0.90009195032E+00  0.90000000000E+00 0. -1.
     999903    1    1    0    0    0 -0.34068226229E-02  0.69722613732E-03 -0.22460917723E-02  0.20423944108E-01  0.20000000000E-01 0.  0.
</event>
<event>
 7    1  0.5676831E-066  0.9118800E+02  0.7957747E-01            NaN
     999900   -1    0    0    0    0  0.00000000000E+00  0.00000000000E+00  0.99999998245E-14  0.93827000000E+00  0.93827000000E+00 0.  1.
        -11    1    1    0    0    0  0.18509990162E-02  0.55969702635E-03 -0.14059375581E-03  0.20050799793E-02  0.51100000000E-03 0. -1.
        -14    1    1    0    0    0  0.22157920188E-02  0.17821748935E-02 -0.23577786799E-02  0.36939141740E-02  0.00000000000E+00 0. -1.
         12    1    1    0    0    0 -0.36051314309E-03 -0.77188610422E-03  0.32359127080E-03  0.91131179887E-03  0.00000000000E+00 0.  1.
         14    1    1    0    0    0  0.81260143973E-03  0.23570274084E-02 -0.10256181734E-02  0.26958842596E-02  0.00000000000E+00 0.  1.
     999901    1    1    0    0    0 -0.37864009168E-02 -0.19164594233E-01  0.16800310579E-01  0.90036874054E+00  0.90000000000E+00 0.  1.
     999903    1    1    0    0    0 -0.73247841485E-03  0.15237581009E-01 -0.13599911240E-01  0.28595069249E-01  0.20000000000E-01 0.  0.
</event>
<event>
 7    1  0.5676831E-066  0.9118800E+02  0.7957747E-01            NaN
     999900   -1    0    0    0    0  0.00000000000E+00  0.00000000000E+00  0.99999998245E-14  0.93827000000E+00  0.93827000000E+00 0. -1.
        -11    1    1    0    0    0 -0.41665059445E-03  0.15468767493E-02 -0.76191357587E-03  0.18460928180E-02  0.51100000000E-03 0. -1.
        -14    1    1    0    0    0 -0.32738778795E-02 -0.16716732310E-02  0.26237517802E-02  0.45162862138E-02  0.00000000000E+00 0. -1.
         12    1    1    0    0    0  0.23366366749E-02 -0.10143647129E-02  0.26308324633E-02  0.36619784504E-02  0.00000000000E+00 0.  1.
         14    1    1    0    0    0 -0.44232766733E-03 -0.25147822802E-02 -0.87572226208E-03  0.26993838487E-02  0.00000000000E+00 0.  1.
     999901    1    1    0    0    0  0.36098339605E-02 -0.11942990507E-01 -0.23986692695E-02  0.90008967305E+00  0.90000000000E+00 0. -1.
     999903    1    1    0    0    0 -0.18136144942E-02  0.15596933981E-01 -0.12182791360E-02  0.25456585616E-01  0.20000000000E-01 0.  0.
</event>
<event>
 7    1  0.5676831E-066  0.9118800E+02  0.7957747E-01            NaN
     999900   -1    0    0    0    0  0.00000000000E+00  0.00000000000E+00  0.99999998245E-14  0.93827000000E+00  0.93827000000E+00 0.  1.
        -11    1    1    0    0    0 -0.20685844520E-02 -0.31306328027E-02 -0.44625129093E-02  0.58527810353E-02  0.51100000000E-03 0. -1.
        -14    1    1    0    0    0 -0.15406172243E-02 -0.33250568137E-02  0.30660601519E-02  0.47780989003E-02  0.00000000000E+00 0. -1.
         12    1    1    0    0    0  0.15109257108E-02 -0.79810047525E-03  0.34702935767E-02  0.38681776563E-02  0.00000000000E+00 0.  1.
         14    1    1    0    0    0 -0.14687213513E-02  0.95226445625E-03 -0.39374663250E-03  0.17941533973E-02  0.00000000000E+00 0.  1.
     999901    1    1    0    0    0  0.39135898649E-02  0.43699586119E-02 -0.10378599141E-01  0.90007895656E+00  0.90000000000E+00 0. -1.
     999903    1    1    0    0    0 -0.34659254793E-03  0.19315670236E-02  0.86985049541E-02  0.21897832450E-01  0.20000000000E-01 0.  0.
</event>
<event>
 7    1  0.5676831E-066  0.9118800E+02  0.7957747E-01            NaN
     999900   -1    0    0    0    0  0.00000000000E+00  0.00000000000E+00  0.99999998245E-14  0.93827000000E+00  0.93827000000E+00 0. -1.
        -11    1    1    0    0    0 -0.17698415340E-02 -0.12067424499E-02  0.46171516841E-04  0.22026845450E-02  0.51100000000E-03 0. -1.
        -14    1    1    0    0    0  0.63331574236E-03  0.26988493251E-02  0.38757578094E-03  0.27991233440E-02  0.00000000000E+00 0. -1.
         12    1    1    0    0    0  0.12197801941E-02 -0.64210462195E-02  0.78820795439E-03  0.65832340118E-02  0.00000000000E+00 0.  1.
         14    1    1    0    0    0 -0.35536879081E-04  0.48731323908E-02  0.56486930745E-03  0.49058902864E-02  0.00000000000E+00 0.  1.
     999901    1    1    0    0    0 -0.50345833674E-02 -0.50756744216E-02 -0.63599940302E-02  0.90005086469E+00  0.90000000000E+00 0.  1.
     999903    1    1    0    0    0  0.49868658441E-02  0.51314813751E-02  0.45731694705E-02  0.21728203125E-01  0.20000000000E-01 0.  0.
</event>
<event>
 7    1  0.5676831E-066  0.9118800E+02  0.7957747E-01            NaN
     999900   -1    0    0    0    0  0.00000000000E+00  0.00000000000E+00  0.99999998245E-14  0.93827000000E+00  0.93827000000E+00 0.  1.
        -11    1    1    0    0    0  0.23928937752E-02 -0.99647254066E-03 -0.40422413058E-03  0.26727170242E-02  0.51100000000E-03 0. -1.
        -14    1    1    0    0    0  0.41545421381E-02  0.26589810764E-02  0.12072904956E-02  0.50781838370E-02  0.00000000000E+00 0. -1.
         12    1    1    0    0    0  0.16781851174E-02  0.14113197610E-02  0.95014346920E-03  0.23897492271E-02  0.00000000000E+00 0.  1.
         14    1    1    0    0    0 -0.33512371702E-02  0.20935774901E-02  0.27282563846E-02  0.48017955161E-02  0.00000000000E+00 0.  1.
     999901    1    1    0    0    0 -0.81135994702E-02  0.56650012869E-02 -0.76785408837E-03  0.90005472741E+00  0.90000000000E+00 0. -1.
     999903    1    1    0    0    0  0.32392156096E-02 -0.10832407074E-01 -0.37136121304E-02  0.23272826984E-01  0.20000000000E-01 0.  0.
</event>
<event>
 7    1  0.5676831E-066  0.9118800E+02  0.7957747E-01            NaN
     999900   -1    0    0    0    0  0.00000000000E+00  0.00000000000E+00  0.99999998245E-14  0.93827000000E+00  0.93827000000E+00 0.  1.
        -11    1    1    0    0    0  0.31122078643E-02  0.19060999815E-02 -0.56134221485E-03  0.37276374572E-02  0.51100000000E-03 0. -1.
        -14    1    1    0    0    0  0.37427028995E-03  0.54503276061E-03  0.12991624098E-03  0.67380797691E-03  0.00000000000E+00 0. -1.
         12    1    1    0    0    0 -0.42190309320E-02  0.43512269310E-03  0.18381093022E-02  0.46225749934E-02  0.00000000000E+00 0.  1.
         14    1    1    0    0    0 -0.10549933568E-02  0.32852428930E-02  0.25706001456E-04  0.34505785960E-02  0.00000000000E+00 0.  1.
     999901    1    1    0    0    0 -0.69927741882E-02  0.53393265709E-02  0.58218145936E-02  0.90006183167E+00  0.90000000000E+00 0.  1.
     999903    1    1    0    0    0  0.87803203228E-02 -0.11510824899E-01 -0.72542039234E-02  0.25733569309E-01  0.20000000000E-01 0.  0.
</event>
<event>
 7    1  0.5676831E-066  0.9118800E+02  0.7957747E-01            NaN
     999900   -1    0    0    0    0  0.00000000000E+00  0.00000000000E+00  0.99999998245E-14  0.93827000000E+00  0.93827000000E+00 0.  1.
        -11    1    1    0    0    0  0.16365696629E-02 -0.35807941208E-02 -0.18718104982E-02  0.43892188756E-02  0.51100000000E-03 0. -1.
        -14    1    1    0    0    0 -0.28050696520E-02  0.25198629733E-02  0.21187822331E-03  0.37766410392E-02  0.00000000000E+00 0. -1.
         12    1    1    0    0    0  0.13928576035E-02 -0.19663099710E-02 -0.34357937564E-03  0.24340242384E-02  0.00000000000E+00 0.  1.
         14    1    1    0    0    0  0.27942834772E-02  0.86444377642E-03  0.43585032519E-03  0.29572366661E-02  0.00000000000E+00 0.  1.
     999901    1    1    0    0    0 -0.10576521850E-02  0.28675438516E-02 -0.12636292529E-01  0.90009389362E+00  0.90000000000E+00 0. -1.
     999903    1    1    0    0    0 -0.19609889065E-02 -0.70474650959E-03  0.14203953855E-01  0.24618985565E-01  0.20000000000E-01 0.  0.
</event>
<event>
 7    1  0.5676831E-066  0.9118800E+02  0.7957747E-01            NaN
     999900   -1    0    0    0    0  0.00000000000E+00  0.00000000000E+00  0.99999998245E-14  0.93827000000E+00  0.93827000000E+00 0.  1.
        -11    1    1    0    0    0 -0.24850451008E-02 -0.40321079444E-03  0.11151361189E-02  0.28004781130E-02  0.51100000000E-03 0. -1.
        -14    1    1    0    0    0  0.46419683831E-02  0.65800258553E-03  0.26533143734E-02  0.53871063695E-02  0.00000000000E+00 0. -1.
         12    1    1    0    0    0 -0.99704499958E-03  0.30754485032E-03 -0.77800898974E-03  0.13015300820E-02  0.00000000000E+00 0.  1.
         14    1    1    0    0    0  0.17666010734E-02 -0.29540216660E-02 -0.41510139879E-03  0.34669053242E-02  0.00000000000E+00 0.  1.
     999901    1    1    0    0    0  0.11658380072E-01  0.10331323177E-02 -0.71527923881E-02  0.90010452039E+00  0.90000000000E+00 0. -1.
     999903    1    1    0    0    0 -0.14584859428E-01  0.13585527069E-02  0.45774522843E-02  0.25209459721E-01  0.20000000000E-01 0.  0.
</event>
<event>
 7    1  0.5676831E-066  0.9118800E+02  0.7957747E-01            NaN
     999900   -1    0    0    0    0  0.00000000000E+00  0.00000000000E+00  0.99999998245E-14  0.93827000000E+00  0.93827000000E+00 0.  1.
        -11    1    1    0    0    0  0.12563111051E-02  0.63359966627E-03 -0.50509669958E-02  0.52681263009E-02  0.51100000000E-03 0. -1.
        -14    1    1    0    0    0 -0.61014240101E-03  0.21533284996E-02  0.24516820762E-02  0.33196147938E-02  0.00000000000E+00 0. -1.
         12    1    1    0    0    0 -0.52312188259E-02  0.14023262796E-02 -0.53677925687E-03  0.54424536167E-02  0.00000000000E+00 0.  1.
         14    1    1    0    0    0  0.67628627358E-03  0.46676366723E-03  0.41460805166E-03  0.92039734972E-03  0.00000000000E+00 0.  1.
     999901    1    1    0    0    0 -0.77104368483E-03  0.59034180151E-02  0.56616931140E-02  0.90003749901E+00  0.90000000000E+00 0.  1.
     999903    1    1    0    0    0  0.46798075331E-02 -0.10559436128E-01 -0.29402369891E-02  0.23281908930E-01  0.20000000000E-01 0.  0.
</event>
<event>
 7    1  0.5676831E-066  0.9118800E+02  0.7957747E-01            NaN
     999900   -1    0    0    0    0  0.00000000000E+00  0.00000000000E+00  0.99999998245E-14  0.93827000000E+00  0.93827000000E+00 0.  1.
        -11    1    1    0    0    0  0.19602088529E-02  0.17886713197E-02 -0.92617577418E-03  0.28566915132E-02  0.51100000000E-03 0. -1.
        -14    1    1    0    0    0 -0.15605810112E-02 -0.56921838897E-02  0.46369237123E-02  0.75058265394E-02  0.00000000000E+00 0. -1.
         12    1    1    0    0    0  0.84921297008E-04 -0.23123980394E-02 -0.78327613682E-03  0.24429322188E-02  0.00000000000E+00 0.  1.
         14    1    1    0    0    0 -0.68616717725E-03 -0.70185617803E-03 -0.41856778111E-02  0.42992239100E-02  0.00000000000E+00 0.  1.
     999901    1    1    0    0    0 -0.11802541630E-02  0.60556792938E-03  0.36785482733E-02  0.90000849520E+00  0.90000000000E+00 0.  1.
     999903    1    1    0    0    0  0.13818722015E-02  0.63121988580E-02 -0.24203422635E-02  0.21156830620E-01  0.20000000000E-01 0.  0.
</event>
<event>
 7    1  0.5676831E-066  0.9118800E+02  0.7957747E-01            NaN
     999900   -1    0    0    0    0  0.00000000000E+00  0.00000000000E+00  0.99999998245E-14  0.93827000000E+00  0.93827000000E+00 0. -1.
        -11    1    1    0    0    0  0.25120788734E-02  0.28490481522E-03 -0.26131283377E-02  0.36716851349E-02  0.51100000000E-03 0. -1.
        -14    1    1    0    0    0 -0.37399808099E-03 -0.11702264144E-03  0.19154942791E-02  0.19551693524E-02  0.00000000000E+00 0. -1.
         12    1    1    0    0    0 -0.31663826547E-02  0.51646106980E-03 -0.48526671722E-02  0.58173095015E-02  0.00000000000E+00 0.  1.
         14    1    1    0    0    0  0.17691029085E-02 -0.34654058795E-03  0.49998492937E-03  0.18707753498E-02  0.00000000000E+00 0.  1.
     999901    1    1    0    0    0 -0.60628768020E-02 -0.41231511891E-02  0.18073363917E-01  0.90021131149E+00  0.90000000000E+00 0. -1.
     999903    1    1    0    0    0  0.53220757558E-02  0.37853485335E-02 -0.13023047616E-01  0.24743749172E-01  0.20000000000E-01 0.  0.
</event>
<event>
 7    1  0.5676831E-066  0.9118800E+02  0.7957747E-01            NaN
     999900   -1    0    0    0    0  0.00000000000E+00  0.00000000000E+00  0.99999998245E-14  0.93827000000E+00  0.93827000000E+00 0. -1.
        -11    1    1    0    0    0 -0.43729489108E-03 -0.59582055637E-03 -0.41718232754E-03  0.99065183166E-03  0.51100000000E-03 0. -1.
        -14    1    1    0    0    0 -0.12991131790E-02  0.25488995292E-02  0.42329238295E-02  0.51090339604E-02  0.00000000000E+00 0. -1.
         12    1    1    0    0    0  0.35077209099E-03  0.17304168746E-02 -0.17189420719E-02  0.24641723694E-02  0.00000000000E+00 0.  1.
         14    1    1    0    0    0 -0.43941913019E-02 -0.12129475240E-02  0.48456900939E-02  0.66528844405E-02  0.00000000000E+00 0.  1.
     999901    1    1    0    0    0  0.86085539852E-02 -0.13016368471E-01 -0.46019026004E-02  0.90014704941E+00  0.90000000000E+00 0.  1.
     999903    1    1    0    0    0 -0.28287267042E-02  0.10545820147E-01 -0.23405869235E-02  0.22906207990E-01  0.20000000000E-01 0.  0.
</event>
<event>
 7    1  0.5676831E-066  0.9118800E+02  0.7957747E-01            NaN
     999900   -1    0    0    0    0  0.00000000000E+00  0.00000000000E+00  0.99999998245E-14  0.93827000000E+00  0.93827000000E+00 0. -1.
        -11    1    1    0    0    0 -0.26750300285E-03 -0.24676084102E-03 -0.17831862610E-02  0.18903235201E-02  0.51100000000E-03 0. -1.
        -14    1    1    0    0    0 -0.30622202692E-02  0.57163373486E-02  0.19848534447E-02  0.67818396367E-02  0.00000000000E+00 0. -1.
         12    1    1    0    0    0  0.24027337933E-02 -0.39928743964E-02 -0.29851575390E-02  0.55341974268E-02  0.00000000000E+00 0.  1.
         14    1    1    0    0    0 -0.10499819674E-02  0.14227914385E-02 -0.10274764575E-02  0.20451174734E-02  0.00000000000E+00 0.  1.
     999901    1    1    0    0    0  0.62172143508E-02 -0.10617270667E-01  0.54960390503E-02  0.90010087581E+00  0.90000000000E+00 0. -1.
     999903    1    1    0    0    0 -0.42402429046E-02  0.77177771168E-02 -0.16850722374E-02  0.21917646132E-01  0.20000000000E-01 0.  0.
</event>
<event>
 7    1  0.5676831E-066  0.9118800E+02  0.7957747E-01            NaN
     999900   -1    0    0    0    0  0.00000000000E+00  0.00000000000E+00  0.99999998245E-14  0.93827000000E+00  0.93827000000E+00 0. -1.
        -11    1    1    0    0    0  0.29644526229E-02 -0.40082508110E-02 -0.11882288314E-02  0.51504429589E-02  0.51100000000E-03 0. -1.
        -14    1    1    0    0    0 -0.10199167680E-02  0.43370058062E-03 -0.19112470539E-02  0.22093419175E-02  0.00000000000E+00 0. -1.
         12    1    1    0    0    0  0.45260472943E-02 -0.35040357206E-02  0.18667001714E-02  0.60206262109E-02  0.00000000000E+00 0.  1.
         14    1    1    0    0    0  0.34104257127E-03  0.21286655904E-02  0.24821933438E-02  0.32876756268E-02  0.00000000000E+00 0.  1.
     999901    1    1    0    0    0 -0.72756809397E-02  0.12151015446E-01 -0.43035566333E-02  0.90012171583E+00  0.90000000000E+00 0.  1.
     999903    1    1    0    0    0  0.46405521928E-03 -0.72010950856E-02  0.30541390034E-02  0.21480197456E-01  0.20000000000E-01 0.  0.
</event>
<event>
 7    1  0.5676831E-066  0.9118800E+02  0.7957747E-01            NaN
     999900   -1    0    0    0    0  0.00000000000E+00  0.00000000000E+00  0.99999998245E-14  0.93827000000E+00  0.93827000000E+00 0. -1.
        -11    1    1    0    0    0 -0.67875517665E-03  0.19419559367E-02  0.70484619716E-03  0.22337928757E-02  0.51100000000E-03 0. -1.
        -14    1    1    0    0    0 -0.44159075240E-02  0.31672133472E-02  0.48058319901E-02  0.72544814263E-02  0.00000000000E+00 0. -1.
         12    1    1    0    0    0 -0.62559691150E-03  0.52380020955E-04 -0.77921894501E-03  0.10006484530E-02  0.00000000000E+00 0.  1.
         14    1    1    0    0    0 -0.22321898674E-03  0.12028775710E-02 -0.10233039601E-03  0.12276859032E-02  0.00000000000E+00 0.  1.
     999901    1    1    0    0    0  0.76402650369E-02 -0.22199644258E-01  0.13066704824E-02  0.90030711718E+00  0.90000000000E+00 0. -1.
     999903    1    1    0    0    0 -0.16967864380E-02  0.15835217383E-01 -0.59357993286E-02  0.26246274163E-01  0.20000000000E-01 0.  0.
</event>
<event>
 7    1  0.5676831E-066  0.9118800E+02  0.7957747E-01            NaN
     999900   -1    0    0    0    0  0.00000000000E+00  0.00000000000E+00  0.99999998245E-14  0.93827000000E+00  0.93827000000E+00 0.  1.
        -11    1    1    0    0    0 -0.89570485828E-04 -0.22362988211E-03  0.85832738417E-03  0.10275602632E-02  0.51100000000E-03 0. -1.
        -14    1    1    0    0    0  0.28030937515E-02 -0.47921279654E-02 -0.32442756068E-02  0.64301748988E-02  0.00000000000E+00 0. -1.
         12    1    1    0    0    0 -0.11153209440E-02 -0.21895193544E-02  0.15784795628E-02  0.29205365161E-02  0.00000000000E+00 0.  1.
         14    1    1    0    0    0  0.22137761065E-02  0.85378761567E-03 -0.14536420489E-02  0.27825946792E-02  0.00000000000E+00 0.  1.
     999901    1    1    0    0    0  0.53861698756E-02  0.68061211206E-03 -0.82733522339E-02  0.90005439970E+00  0.90000000000E+00 0. -1.
     999903    1    1    0    0    0 -0.91981483037E-02  0.56708774742E-02  0.10534462943E-01  0.25054733945E-01  0.20000000000E-01 0.  0.
</event>
<event>
 7    1  0.5676831E-066  0.9118800E+02  0.7957747E-01            NaN
     999900   -1    0    0    0    0  0.00000000000E+00  0.00000000000E+00  0.99999998245E-14  0.93827000000E+00  0.93827000000E+00 0. -1.
        -11    1    1    0    0    0 -0.23231130621E-02  0.62461027225E-02 -0.74051412050E-03  0.67245918598E-02  0.51100000000E-03 0. -1.
        -14    1    1    0    0    0 -0.22165686555E-02 -0.15785931392E-02 -0.39800587611E-03  0.27501893719E-02  0.00000000000E+00 0. -1.
         12    1    1    0    0    0  0.13830125982E-03  0.26769929495E-02  0.45028160197E-03  0.27181192047E-02  0.00000000000E+00 0.  1.
         14    1    1    0    0    0  0.28760593069E-02 -0.15760266142E-04  0.21085087998E-02  0.35661989403E-02  0.00000000000E+00 0.  1.
     999901    1    1    0    0    0 -0.77564357720E-02 -0.60509334128E-02 -0.53968003779E-02  0.90006994259E+00  0.90000000000E+00 0. -1.
     999903    1    1    0    0    0  0.92817569228E-02 -0.12778088539E-02  0.39765299727E-02  0.22440958038E-01  0.20000000000E-01 0.  0.
</event>
<event>
 7    1  0.5676831E-066  0.9118800E+02  0.7957747E-01            NaN
     999900   -1    0    0    0    0  0.00000000000E+00  0.00000000000E+00  0.99999998245E-14  0.93827000000E+00  0.93827000000E+00 0. -1.
        -11    1    1    0    0    0 -0.13292302012E-02 -0.64697645628E-03 -0.12569097321E-02  0.20065828010E-02  0.51100000000E-03 0. -1.
        -14    1    1    0    0    0  0.31267399400E-02  0.49397765578E-02  0.21300008204E-02  0.62221217111E-02  0.00000000000E+00 0. -1.
         12    1    1    0    0    0  0.21432414954E-02  0.33947830676E-02 -0.46520780013E-02  0.61449056879E-02  0.00000000000E+00 0.  1.
         14    1    1    0    0    0 -0.57939551144E-04 -0.14157517510E-02  0.18369935452E-02  0.23199688138E-02  0.00000000000E+00 0.  1.
     999901    1    1    0    0    0 -0.76319220814E-04 -0.11784639906E-01  0.60013236462E-02  0.90009716112E+00  0.90000000000E+00 0. -1.
     999903    1    1    0    0    0 -0.38064924623E-02  0.55128084878E-02 -0.40593302784E-02  0.21479259871E-01  0.20000000000E-01 0.  0.
</event>
<event>
 7    1  0.5676831E-066  0.9118800E+02  0.7957747E-01            NaN
     999900   -1    0    0    0    0  0.00000000000E+00  0.00000000000E+00  0.99999998245E-14  0.93827000000E+00  0.93827000000E+00 0.  1.
        -11    1    1    0    0    0  0.26816342139E-02 -0.98433089696E-03 -0.39417814905E-02  0.48947759592E-02  0.51100000000E-03 0. -1.
        -14    1    1    0    0    0 -0.26553684867E-02 -0.73072550822E-03  0.14299031281E-02  0.31031539640E-02  0.00000000000E+00 0. -1.
         12    1    1    0    0    0  0.32978757481E-04 -0.13829396805E-02  0.11763975445E-02  0.18159077457E-02  0.00000000000E+00 0.  1.
         14    1    1    0    0    0 -0.30234427903E-02  0.53658906070E-02  0.19333763288E-03  0.61620911834E-02  0.00000000000E+00 0.  1.
     999901    1    1    0    0    0  0.11498247659E-01  0.76766602824E-03 -0.22594660714E-02  0.90007661018E+00  0.90000000000E+00 0. -1.
     999903    1    1    0    0    0 -0.85340493533E-02 -0.30355605496E-02  0.34016092564E-02  0.22217460965E-01  0.20000000000E-01 0.  0.
</event>
<event>
 7    1  0.5676831E-066  0.9118800E+02  0.7957747E-01            NaN
     999900   -1    0    0    0    0  0.00000000000E+00  0.00000000000E+00  0.99999998245E-14  0.93827000000E+00  0.93827000000E+00 0. -1.
        -11    1    1    0    0    0  0.80920844495E-03 -0.28490778307E-02  0.52126022838E-02  0.60170097525E-02  0.51100000000E-03 0. -1.
        -14    1    1    0    0    0  0.17558119891E-02 -0.23012855779E-02 -0.43585297992E-02  0.52321671479E-02  0.00000000000E+00 0. -1.
         12    1    1    0    0    0  0.15242440129E-03  0.54003461919E-03 -0.20703060097E-02  0.21450029282E-02  0.00000000000E+00 0.  1.
         14    1    1    0    0    0  0.28516272363E-04 -0.97428872457E-03  0.57335551636E-03  0.11308351979E-02  0.00000000000E+00 0.  1.
     999901    1    1    0    0    0  0.63400071940E-02 -0.31305495775E-02  0.25971928311E-02  0.90003152247E+00  0.90000000000E+00 0.  1.
     999903    1    1    0    0    0 -0.90859683017E-02  0.87151670915E-02 -0.19543148223E-02  0.23713462502E-01  0.20000000000E-01 0.  0.
</event>
<event>
 7    1  0.5676831E-066  0.9118800E+02  0.7957747E-01            NaN
     999900   -1    0    0    0    0  0.00000000000E+00  0.00000000000E+00  0.99999998245E-14  0.93827000000E+00  0.93827000000E+00 0.  1.
        -11    1    1    0    0    0  0.34294270341E-02 -0.30435328851E-02 -0.59549697971E-03  0.46518598279E-02  0.51100000000E-03 0. -1.
        -14    1    1    0    0    0 -0.17964072849E-02  0.16985517281E-02 -0.20101761402E-02  0.31863717958E-02  0.00000000000E+00 0. -1.
         12    1    1    0    0    0  0.11540159070E-02 -0.25727105449E-03  0.13868644752E-02  0.18224527927E-02  0.00000000000E+00 0.  1.
         14    1    1    0    0    0 -0.11291168524E-02 -0.11409650501E-02 -0.47821472122E-03  0.16749314707E-02  0.00000000000E+00 0.  1.
     999901    1    1    0    0    0  0.25221961951E-02  0.13845582799E-01 -0.11526310930E-01  0.90018382427E+00  0.90000000000E+00 0.  1.
     999903    1    1    0    0    0 -0.41801149989E-02 -0.11102365537E-01  0.13223334296E-01  0.26750559841E-01  0.20000000000E-01 0.  0.
</event>
<event>
 7    1  0.5676831E-066  0.9118800E+02  0.7957747E-01            NaN
     999900   -1    0    0    0    0  0.00000000000E+00  0.00000000000E+00  0.99999998245E-14  0.93827000000E+00  0.93827000000E+00 0. -1.
        -11    1    1    0    0    0  0.64730970180E-03  0.20090050421E-02  0.11663466573E-02  0.24650753811E-02  0.51100000000E-03 0. -1.
        -14    1    1    0    0    0 -0.35379288373E-02  0.34976850044E-02 -0.43124907510E-03  0.49936676514E-02  0.00000000000E+00 0. -1.
         12    1    1    0    0    0  0.17257849853E-02  0.59641310946E-02 -0.27704703270E-02  0.67988748600E-02  0.00000000000E+00 0.  1.
         14    1    1    0    0    0  0.42058208266E-03  0.43050416731E-03  0.12803743267E-02  0.14147726117E-02  0.00000000000E+00 0.  1.
     999901    1    1    0    0    0 -0.68541368858E-02 -0.91628446867E-02  0.71469853190E-02  0.90010111449E+00  0.90000000000E+00 0.  1.
     999903    1    1    0    0    0  0.75983889534E-02 -0.27384806217E-02 -0.63919869009E-02  0.22496495001E-01  0.20000000000E-01 0.  0.
</event>
<event>
 7    1  0.5676831E-066  0.9118800E+02  0.7957747E-01            NaN
     999900   -1    0    0    0    0  0.00000000000E+00  0.00000000000E+00  0.99999998245E-14  0.93827000000E+00  0.93827000000E+00 0. -1.
        -11    1    1    0    0    0 -0.54667068576E-02  0.59767842416E-02 -0.33005457444E-02  0.87613672990E-02  0.51100000000E-03 0. -1.
        -14    1    1    0    0    0  0.10512428219E-02  0.13110116056E-02  0.37177255711E-03  0.17210687769E-02  0.00000000000E+00 0. -1.
         12    1    1    0    0    0  0.14132302155E-02  0.20112363706E-02 -0.15680753049E-03  0.24631037295E-02  0.00000000000E+00 0.  1.
         14    1    1    0    0    0 -0.24471819318E-02 -0.18594200864E-02  0.18619855493E-02  0.35934847503E-02  0.00000000000E+00 0.  1.
     999901    1    1    0    0    0  0.42917936187E-02 -0.97304547695E-02 -0.66414624523E-02  0.90008733480E+00  0.90000000000E+00 0.  1.
     999903    1    1    0    0    0  0.11576221333E-02  0.22908426381E-02  0.78650576207E-02  0.21643640645E-01  0.20000000000E-01 0.  0.
</event>
<event>
 7    1  0.5676831E-066  0.9118800E+02  0.7957747E-01            NaN
     999900   -1    0    0    0    0  0.00000000000E+00  0.00000000000E+00  0.99999998245E-14  0.93827000000E+00  0.93827000000E+00 0.  1.
        -11    1    1    0    0    0  0.37992968218E-03  0.59796917050E-03 -0.71631963800E-03  0.11296674360E-02  0.51100000000E-03 0. -1.
        -14    1    1    0    0    0 -0.24878852465E-02 -0.18104724854E-02  0.66397641003E-02  0.73180496669E-02  0.00000000000E+00 0. -1.
         12    1    1    0    0    0 -0.30457944266E-02 -0.91563339275E-03 -0.33817678880E-02  0.46423703264E-02  0.00000000000E+00 0.  1.
         14    1    1    0    0    0  0.14690773476E-02 -0.34446375697E-02  0.48629610905E-04  0.37451409958E-02  0.00000000000E+00 0.  1.
     999901    1    1    0    0    0  0.57975639911E-03 -0.10075276337E-02 -0.45443850991E-04  0.90000075183E+00  0.90000000000E+00 0.  1.
     999903    1    1    0    0    0  0.31049162443E-02  0.65803019109E-02 -0.25448623342E-02  0.21434019745E-01  0.20000000000E-01 0.  0.
</event>
<event>
 7    1  0.5676831E-066  0.9118800E+02  0.7957747E-01            NaN
     999900   -1    0    0    0    0  0.00000000000E+00  0.00000000000E+00  0.99999998245E-14  0.93827000000E+00  0.93827000000E+00 0. -1.
        -11    1    1    0    0    0 -0.21246305935E-02 -0.56644313796E-03 -0.11117727197E-02  0.25163609772E-02  0.51100000000E-03 0. -1.
        -14    1    1    0    0    0  0.13174241826E-02 -0.75624916519E-03 -0.19860675294E-02  0.25003966702E-02  0.00000000000E+00 0. -1.
         12    1    1    0    0    0 -0.42120015068E-04  0.21461872974E-02  0.23483828844E-02  0.31816342001E-02  0.00000000000E+00 0.  1.
         14    1    1    0    0    0 -0.33345932693E-02  0.23080884339E-02 -0.33570486875E-02  0.52646519714E-02  0.00000000000E+00 0.  1.
     999901    1    1    0    0    0  0.33312908365E-02 -0.16589976272E-01 -0.95695421031E-03  0.90015956395E+00  0.90000000000E+00 0. -1.
     999903    1    1    0    0    0  0.85262885871E-03  0.13458392844E-01  0.50634602625E-02  0.24647392230E-01  0.20000000000E-01 0.  0.
</event>
<event>
 7    1  0.5676831E-066  0.9118800E+02  0.7957747E-01            NaN
     999900   -1    0    0    0    0  0.00000000000E+00  0.00000000000E+00  0.99999998245E-14  0.93827000000E+00  0.93827000000E+00 0. -1.
        -11    1    1    0    0    0  0.22818111276E-02  0.12741792159E-02 -0.10121352320E-02  0.28488126341E-02  0.51100000000E-03 0. -1.
        -14    1    1    0    0    0  0.55803671736E-03  0.18814812145E-02 -0.29467187522E-02  0.35404135271E-02  0.00000000000E+00 0. -1.
         12    1    1    0    0    0  0.63646481725E-02  0.48719899771E-03 -0.52857923641E-02  0.82876842447E-02  0.00000000000E+00 0.  1.
         14    1    1    0    0    0 -0.11570596144E-02 -0.32059596470E-02  0.27526505037E-03  0.34194641477E-02  0.00000000000E+00 0.  1.
     999901    1    1    0    0    0 -0.63600640814E-02 -0.12457549950E-02  0.96429238477E-02  0.90007499038E+00  0.90000000000E+00 0. -1.
     999903    1    1    0    0    0 -0.16873723217E-02  0.80885521386E-03 -0.67354254969E-03  0.20098635070E-01  0.20000000000E-01 0.  0.
</event>
<event>
 7    1  0.5676831E-066  0.9118800E+02  0.7957747E-01            NaN
     999900   -1    0    0    0    0  0.00000000000E+00  0.00000000000E+00  0.99999998245E-14  0.93827000000E+00  0.93827000000E+00 0.  1.
        -11    1    1    0    0    0  0.33270912799E-02 -0.41112249739E-04  0.12126617668E-02  0.35781134921E-02  0.51100000000E-03 0. -1.
        -14    1    1    0    0    0  0.12699124140E-02 -0.47508363082E-02  0.14850771446E-02  0.51369813404E-02  0.00000000000E+00 0. -1.
         12    1    1    0    0    0  0.16854334136E-02  0.41109862393E-03 -0.19816526050E-02  0.26337492130E-02  0.00000000000E+00 0.  1.
         14    1    1    0    0    0 -0.34081703327E-02  0.12828130239E-02  0.11757125252E-02  0.38266871067E-02  0.00000000000E+00 0.  1.
     999901    1    1    0    0    0 -0.11852432836E-02  0.26322013278E-02  0.94130740651E-02  0.90005385353E+00  0.90000000000E+00 0.  1.
     999903    1    1    0    0    0 -0.16890234912E-02  0.46583558226E-03 -0.11304872897E-01  0.23040615321E-01  0.20000000000E-01 0.  0.
</event>
<event>
 7    1  0.5676831E-066  0.9118800E+02  0.7957747E-01            NaN
     999900   -1    0    0    0    0  0.00000000000E+00  0.00000000000E+00  0.99999998245E-14  0.93827000000E+00  0.93827000000E+00 0.  1.
        -11    1    1    0    0    0  0.37454798035E-02  0.22566136162E-02  0.52701749092E-02  0.68670800596E-02  0.51100000000E-03 0. -1.
        -14    1    1    0    0    0 -0.63714717229E-02  0.64562224790E-03  0.42501494577E-02  0.76861076245E-02  0.00000000000E+00 0. -1.
         12    1    1    0    0    0  0.12737541628E-02 -0.84720729741E-03  0.87912980224E-03  0.17643919863E-02  0.00000000000E+00 0.  1.
         14    1    1    0    0    0 -0.24462167080E-03  0.52524662387E-04 -0.37261089594E-03  0.44881787147E-03  0.00000000000E+00 0.  1.
     999901    1    1    0    0    0 -0.33342994401E-02  0.36662911142E-02 -0.11128080254E-01  0.90008243701E+00  0.90000000000E+00 0. -1.
     999903    1    1    0    0    0  0.49311588675E-02 -0.57738443433E-02  0.11012369811E-02  0.21421165448E-01  0.20000000000E-01 0.  0.
</event>
<event>
 7    1  0.5676831E-066  0.9118800E+02  0.7957747E-01            NaN
     999900   -1    0    0    0    0  0.00000000000E+00  0.00000000000E+00  0.99999998245E-14  0.93827000000E+00  0.93827000000E+00 0. -1.
        -11    1    1    0    0    0  0.47058907225E-02 -0.17770962273E-02 -0.23344582810E-02  0.55690479401E-02  0.51100000000E-03 0. -1.
        -14    1    1    0    0    0  0.15578448903E-02  0.11155068896E-04  0.18571221729E-02  0.24240272075E-02  0.00000000000E+00 0. -1.
         12    1    1    0    0    0  0.26618263159E-03 -0.18132291325E-02  0.22532097714E-03  0.18464621910E-02  0.00000000000E+00 0.  1.
         14    1    1    0    0    0  0.54510563365E-03  0.49460286024E-02  0.73720785152E-03  0.50302897038E-02  0.00000000000E+00 0.  1.
     999901    1    1    0    0    0 -0.49398687926E-03  0.35725905170E-02  0.83306697816E-02  0.90004578077E+00  0.90000000000E+00 0. -1.
     999903    1    1    0    0    0 -0.65810369988E-02 -0.49394488286E-02 -0.88158625021E-02  0.23354392186E-01  0.20000000000E-01 0.  0.
</event>
<event>
 7    1  0.5676831E-066  0.9118800E+02  0.7957747E-01            NaN
     999900   -1    0    0    0    0  0.00000000000E+00  0.00000000000E+00  0.99999998245E-14  0.93827000000E+00  0.93827000000E+00 0.  1.
        -11    1    1    0    0    0  0.19464539689E-02  0.11200223448E-02 -0.59969108844E-03  0.23798914907E-02  0.51100000000E-03 0. -1.
        -14    1    1    0    0    0  0.21519589548E-02 -0.20973120353E-02 -0.70567062895E-03  0.30866836821E-02  0.00000000000E+00 0. -1.
         12    1    1    0    0    0 -0.21476699604E-03 -0.27244181759E-02  0.46129776709E-02  0.53617294087E-02  0.00000000000E+00 0.  1.
         14    1    1    0    0    0 -0.14035192979E-02  0.83885603772E-03 -0.50705143959E-03  0.17119132671E-02  0.00000000000E+00 0.  1.
     999901    1    1    0    0    0 -0.65738327709E-02  0.52351939428E-02  0.12469896938E-01  0.90012561394E+00  0.90000000000E+00 0.  1.
     999903    1    1    0    0    0  0.40937061412E-02 -0.23723421140E-02 -0.15270461452E-01  0.25604168216E-01  0.20000000000E-01 0.  0.
</event>
<event>
 7    1  0.5676831E-066  0.9118800E+02  0.7957747E-01            NaN
     999900   -1    0    0    0    0  0.00000000000E+00  0.00000000000E+00  0.99999998245E-14  0.93827000000E+00  0.93827000000E+00 0.  1.
        -11    1    1    0    0    0 -0.28149199153E-02  0.20147647865E-02  0.21097251427E-02  0.40859653023E-02  0.51100000000E-03 0. -1.
        -14    1    1    0    0    0  0.20876393621E-02  0.46623272232E-02 -0.57392404913E-02  0.76833856248E-02  0.00000000000E+00 0. -1.
         12    1    1    0    0    0 -0.17789317343E-02 -0.44209337253E-03  0.18437798658E-02  0.25999170869E-02  0.00000000000E+00 0.  1.
         14    1    1    0    0    0 -0.13129888112E-03  0.19616256495E-03 -0.78600991965E-03  0.82068918712E-03  0.00000000000E+00 0.  1.
     999901    1    1    0    0    0  0.75321118823E-02 -0.51388301853E-02 -0.75995033263E-02  0.90007827034E+00  0.90000000000E+00 0. -1.
     999903    1    1    0    0    0 -0.48946007138E-02 -0.12923310168E-02  0.10171248729E-01  0.23001772460E-01  0.20000000000E-01 0.  0.
</event>
<event>
 7    1  0.5676831E-066  0.9118800E+02  0.7957747E-01            NaN
     999900   -1    0    0    0    0  0.00000000000E+00  0.00000000000E+00  0.99999998245E-14  0.93827000000E+00  0.93827000000E+00 0. -1.
        -11    1    1    0    0    0 -0.66779219952E-03 -0.28117083154E-02 -0.23882673384E-02  0.37837272566E-02  0.51100000000E-03 0. -1.
        -14    1    1    0    0    0 -0.38625402044E-03  0.67291576080E-03  0.63590985313E-03  0.10031894790E-02  0.00000000000E+00 0. -1.
         12    1    1    0    0    0 -0.53433063239E-02 -0.14208453716E-02  0.22939227007E-02  0.59859673736E-02  0.00000000000E+00 0.  1.
         14    1    1    0    0    0 -0.28060321410E-02  0.22671222730E-02  0.33268332214E-02  0.49072883612E-02  0.00000000000E+00 0.  1.
     999901    1    1    0    0    0  0.15241298011E-02  0.80408227632E-02 -0.56851136218E-02  0.90005516404E+00  0.90000000000E+00 0. -1.
     999903    1    1    0    0    0  0.76792548838E-02 -0.67483071100E-02  0.18167151850E-02  0.22534663487E-01  0.20000000000E-01 0.  0.
</event>
<event>
 7    1  0.5676831E-066  0.9118800E+02  0.7957747E-01            NaN
     999900   -1    0    0    0    0  0.00000000000E+00  0.00000000000E+00  0.99999998245E-14  0.93827000000E+00  0.93827000000E+00 0.  1.
        -11    1    1    0    0    0  0.10855677311E-02  0.63936962003E-02  0.77998277958E-03  0.65518930499E-02  0.51100000000E-03 0. -1.
        -14    1    1    0    0    0 -0.20227325238E-02 -0.22588966789E-02 -0.22536735899E-02  0.37779764052E-02  0.00000000000E+00 0. -1.
         12    1    1    0    0    0 -0.16454330679E-02  0.16572026109E-02 -0.90045109520E-03  0.25029148306E-02  0.00000000000E+00 0.  1.
         14    1    1    0    0    0 -0.28070865913E-02 -0.48419294386E-04 -0.38359309417E-03  0.28335884001E-02  0.00000000000E+00 0.  1.
     999901    1    1    0    0    0  0.11121941111E-01 -0.65424795037E-02  0.11133809669E-01  0.90016135405E+00  0.90000000000E+00 0.  1.
     999903    1    1    0    0    0 -0.57322566586E-02  0.79889666580E-03 -0.83760746692E-02  0.22442273262E-01  0.20000000000E-01 0.  0.
</event>
<event>
 7    1  0.5676831E-066  0.9118800E+02  0.7957747E-01            NaN
     999900   -1    0    0    0    0  0.00000000000E+00  0.00000000000E+00  0.99999998245E-14  0.93827000000E+00  0.93827000000E+00 0. -1.
        -11    1    1    0    0    0 -0.80364929100E-03 -0.16394626436E-02 -0.43705042124E-03  0.19457194077E-02  0.51100000000E-03 0. -1.
        -14    1    1    0    0    0  0.14538885416E-02 -0.21553050996E-02  0.18623479558E-02  0.31980418809E-02  0.00000000000E+00 0. -1.
         12    1    1    0    0    0 -0.16188884103E-02  0.16748414406E-02  0.23331153610E-02  0.32968653027E-02  0.00000000000E+00 0.  1.
         14    1    1    0    0    0  0.24066441215E-02 -0.52001903397E-02 -0.59877966450E-02  0.82877997176E-02  0.00000000000E+00 0.  1.
     999901    1    1    0    0    0 -0.90119307879E-02  0.73990545819E-02  0.38092291303E-03  0.90007561127E+00  0.90000000000E+00 0.  1.
     999903    1    1    0    0    0  0.75739358261E-02 -0.78937939516E-04  0.18484608364E-02  0.21465962419E-01  0.20000000000E-01 0.  0.
</event>
<event>
 7    1  0.5676831E-066  0.9118800E+02  0.7957747E-01            NaN
     999900   -1    0    0    0    0  0.00000000000E+00  0.00000000000E+00  0.99999998245E-14  0.93827000000E+00  0.93827000000E+00 0.  1.
        -11    1    1    0    0    0 -0.93184724617E-03 -0.20242104060E-02 -0.21636523218E-02  0.31477419570E-02  0.51100000000E-03 0. -1.
        -14    1    1    0    0    0 -0.25288732735E-02  0.26502808906E-02 -0.16944479051E-02  0.40361296480E-02  0.00000000000E+00 0. -1.
         12    1    1    0    0    0 -0.10664266370E-03 -0.28900617012E-02 -0.18027641186E-02  0.34079007852E-02  0.00000000000E+00 0.  1.
         14    1    1    0    0    0 -0.37839290802E-02  0.89856368829E-03  0.21600064432E-02  0.44487260897E-02  0.00000000000E+00 0.  1.
     999901    1    1    0    0    0 -0.22376073871E-02  0.80836977360E-02  0.27842050438E-02  0.90004339054E+00  0.90000000000E+00 0.  1.
     999903    1    1    0    0    0  0.95888996507E-02 -0.67182702077E-02  0.71665285851E-03  0.23186110981E-01  0.20000000000E-01 0.  0.
</event>
<event>
 7    1  0.5676831E-066  0.9118800E+02  0.7957747E-01            NaN
     999900   -1    0    0    0    0  0.00000000000E+00  0.00000000000E+00  0.99999998245E-14  0.93827000000E+00  0.93827000000E+00 0. -1.
        -11    1    1    0    0    0  0.13750375813E-02  0.10442599997E-02 -0.27538961065E-03  0.18215838534E-02  0.51100000000E-03 0. -1.
        -14    1    1    0    0    0 -0.21517292566E-02 -0.17773668244E-02 -0.22015423752E-02  0.35546814839E-02  0.00000000000E+00 0. -1.
         12    1    1    0    0    0 -0.23620255717E-02 -0.89278602046E-03  0.18456097070E-02  0.31276999329E-02  0.00000000000E+00 0.  1.
         14    1    1    0    0    0  0.20143123715E-02  0.36827896698E-02 -0.75344037489E-04  0.41983414351E-02  0.00000000000E+00 0.  1.
     999901    1    1    0    0    0  0.12606149497E-01  0.80624349369E-02  0.42588147649E-02  0.90013446516E+00  0.90000000000E+00 0. -1.
     999903    1    1    0    0    0 -0.11481744621E-01 -0.10119331762E-01 -0.35521484485E-02  0.25433228137E-01  0.20000000000E-01 0.  0.
</event>
<event>
 7    1  0.5676831E-066  0.9118800E+02  0.7957747E-01            NaN
     999900   -1    0    0    0    0  0.00000000000E+00  0.00000000000E+00  0.99999998245E-14  0.93827000000E+00  0.93827000000E+00 0. -1.
        -11    1    1    0    0    0 -0.14221359818E-02 -0.18649390848E-02  0.63709489816E-03  0.24834410502E-02  0.51100000000E-03 0. -1.
        -14    1    1    0    0    0 -0.34972430336E-02  0.46520324919E-02  0.75830921412E-03  0.58691692773E-02  0.00000000000E+00 0. -1.
         12    1    1    0    0    0  0.33707211053E-02 -0.23673561501E-02 -0.51940492346E-03  0.41516162377E-02  0.00000000000E+00 0.  1.
         14    1    1    0    0    0 -0.28180327959E-02  0.20047854454E-02  0.54271228173E-03  0.35007156613E-02  0.00000000000E+00 0.  1.
     999901    1    1    0    0    0  0.11904710539E-01  0.34689188126E-02 -0.19552952740E-02  0.90008753947E+00  0.90000000000E+00 0.  1.
     999903    1    1    0    0    0 -0.75380198327E-02 -0.58934415149E-02  0.53658380347E-03  0.22177518303E-01  0.20000000000E-01 0.  0.
</event>
<event>
 7    1  0.5676831E-066  0.9118800E+02  0.7957747E-01            NaN
     999900   -1    0    0    0    0  0.00000000000E+00  0.00000000000E+00  0.99999998245E-14  0.93827000000E+00  0.93827000000E+00 0.  1.
        -11    1    1    0    0    0  0.20318452035E-02  0.12588073124E-02  0.13014221037E-03  0.24476618998E-02  0.51100000000E-03 0. -1.
        -14    1    1    0    0    0  0.19260332486E-02  0.16013314656E-02  0.31810203058E-02  0.40487969476E-02  0.00000000000E+00 0. -1.
         12    1    1    0    0    0 -0.65964990719E-03  0.66701950237E-02  0.71898079517E-03  0.67411848393E-02  0.00000000000E+00 0.  1.
         14    1    1    0    0    0  0.14809106527E-02 -0.48584138560E-03  0.24145470965E-02  0.28738781976E-02  0.00000000000E+00 0.  1.
     999901    1    1    0    0    0 -0.12020839918E-01 -0.48295460141E-02 -0.10202210044E-01  0.90015104855E+00  0.90000000000E+00 0. -1.
     999903    1    1    0    0    0  0.72417007202E-02 -0.42149464019E-02  0.37575196357E-02  0.22007429571E-01  0.20000000000E-01 0.  0.
</event>
<event>
 7    1  0.5676831E-066  0.9118800E+02  0.7957747E-01            NaN
     999900   -1    0    0    0    0  0.00000000000E+00  0.00000000000E+00  0.99999998245E-14  0.93827000000E+00  0.93827000000E+00 0.  1.
        -11    1    1    0    0    0 -0.49181695099E-03 -0.76198368651E-03  0.18583257001E-02  0.21300231124E-02  0.51100000000E-03 0. -1.
        -14    1    1    0    0    0  0.10324748836E-02  0.27649156182E-02 -0.26114806322E-02  0.39408874449E-02  0.00000000000E+00 0. -1.
         12    1    1    0    0    0 -0.18245949865E-02  0.23952958814E-02  0.25692076768E-02  0.39582088513E-02  0.00000000000E+00 0.  1.
         14    1    1    0    0    0  0.53464054094E-03 -0.15493127994E-02 -0.90903045990E-03  0.18741790297E-02  0.00000000000E+00 0.  1.
     999901    1    1    0    0    0 -0.24899208489E-03 -0.74526845925E-02  0.15356463027E-01  0.90016188847E+00  0.90000000000E+00 0.  1.
     999903    1    1    0    0    0  0.99828859775E-03  0.46037695788E-02 -0.16263485312E-01  0.26204813088E-01  0.20000000000E-01 0.  0.
</event>
<event>
 7    1  0.5676831E-066  0.9118800E+02  0.7957747E-01            NaN
     999900   -1    0    0    0    0  0.00000000000E+00  0.00000000000E+00  0.99999998245E-14  0.93827000000E+00  0.93827000000E+00 0.  1.
        -11    1    1    0    0    0  0.81992702257E-03 -0.64502590741E-03 -0.17620489038E-02  0.21105155965E-02  0.51100000000E-03 0. -1.
        -14    1    1    0    0    0 -0.51317919821E-02 -0.15774454754E-02  0.49826214582E-02  0.73246255721E-02  0.00000000000E+00 0. -1.
         12    1    1    0    0    0 -0.86179350403E-04  0.73018760743E-03 -0.35413001328E-02  0.36168228396E-02  0.00000000000E+00 0.  1.
         14    1    1    0    0    0 -0.45085714698E-03 -0.18165885269E-02  0.94691790337E-03  0.20975985218E-02  0.00000000000E+00 0.  1.
     999901    1    1    0    0    0  0.12660327043E-01 -0.17291239927E-02 -0.71575706057E-02  0.90011916132E+00  0.90000000000E+00 0. -1.
     999903    1    1    0    0    0 -0.78114255861E-02  0.50379962950E-02  0.65313802807E-02  0.23001276154E-01  0.20000000000E-01 0.  0.
</event>
<event>
 7    1  0.5676831E-066  0.9118800E+02  0.7957747E-01            NaN
     999900   -1    0    0    0    0  0.00000000000E+00  0.00000000000E+00  0.99999998245E-14  0.93827000000E+00  0.93827000000E+00 0.  1.
        -11    1    1    0    0    0 -0.71589728284E-03 -0.12723617190E-02  0.12723685613E-02  0.20028619571E-02  0.51100000000E-03 0. -1.
        -14    1    1    0    0    0 -0.21517028602E-02  0.24517271646E-02  0.43277386571E-02  0.54194200033E-02  0.00000000000E+00 0. -1.
         12    1    1    0    0    0  0.28852150121E-02  0.10371623208E-02  0.29952460407E-02  0.42862186354E-02  0.00000000000E+00 0.  1.
         14    1    1    0    0    0  0.17116678051E-02  0.20917832315E-02  0.15526120025E-02  0.31170447211E-02  0.00000000000E+00 0.  1.
     999901    1    1    0    0    0  0.53809253085E-02  0.41838407115E-02 -0.51405865020E-02  0.90004049048E+00  0.90000000000E+00 0. -1.
     999903    1    1    0    0    0 -0.71102079826E-02 -0.84921517094E-02 -0.50073787596E-02  0.23403964200E-01  0.20000000000E-01 0.  0.
</event>
<event>
 7    1  0.5676831E-066  0.9118800E+02  0.7957747E-01            NaN
     999900   -1    0    0    0    0  0.00000000000E+00  0.00000000000E+00  0.99999998245E-14  0.93827000000E+00  0.93827000000E+00 0. -1.
        -11    1    1    0    0    0 -0.16210444142E-03 -0.30863246112E-02  0.32887769392E-02  0.45418996259E-02  0.51100000000E-03 0. -1.
        -14    1    1    0    0    0 -0.20122464795E-02  0.13639054974E-02 -0.18264856367E-02  0.30406288628E-02  0.00000000000E+00 0. -1.
         12    1    1    0    0    0  0.32476307285E-02 -0.77221318341E-03  0.26395608392E-02  0.42556668071E-02  0.00000000000E+00 0.  1.
         14    1    1    0    0    0 -0.50021639924E-03  0.17665279835E-02  0.84360125305E-03  0.20205198927E-02  0.00000000000E+00 0.  1.
     999901    1    1    0    0    0  0.86900942324E-03 -0.12270154150E-01 -0.92434400186E-02  0.90013151986E+00  0.90000000000E+00 0.  1.
     999903    1    1    0    0    0 -0.14420728316E-02  0.12998258463E-01  0.42979866238E-02  0.24279764953E-01  0.20000000000E-01 0.  0.
</event>
<event>
 7    1  0.5676831E-066  0.9118800E+02  0.7957747E-01            NaN
     999900   -1    0    0    0    0  0.00000000000E+00  0.00000000000E+00  0.99999998245E-14  0.93827000000E+00  0.93827000000E+00 0.  1.
        -11    1    1    0    0    0  0.17485446631E-02 -0.24829686745E-02  0.19337838638E-02  0.36363694682E-02  0.51100000000E-03 0. -1.
        -14    1    1    0    0    0 -0.49844411721E-03 -0.23494410514E-02 -0.38245963582E-02  0.45161772656E-02  0.00000000000E+00 0. -1.
         12    1    1    0    0    0  0.10408207578E-02 -0.85071202771E-03 -0.21057046209E-02  0.24982015039E-02  0.00000000000E+00 0.  1.
         14    1    1    0    0    0  0.19999254038E-02 -0.50883335590E-02 -0.41053558497E-03  0.54826434769E-02  0.00000000000E+00 0.  1.
     999901    1    1    0    0    0 -0.52190400254E-02  0.16693263227E-02  0.65358147651E-02  0.90004041126E+00  0.90000000000E+00 0.  1.
     999903    1    1    0    0    0  0.92819331791E-03  0.91021289899E-02 -0.21287620649E-02  0.22096197024E-01  0.20000000000E-01 0.  0.
</event>
<event>
 7    1  0.5676831E-066  0.9118800E+02  0.7957747E-01            NaN
     999900   -1    0    0    0    0  0.00000000000E+00  0.00000000000E+00  0.99999998245E-14  0.93827000000E+00  0.93827000000E+00 0. -1.
        -11    1    1    0    0    0 -0.22659155153E-03 -0.96647431205E-03 -0.22139532254E-02  0.24795415325E-02  0.51100000000E-03 0. -1.
        -14    1    1    0    0    0  0.28813817166E-03  0.45314260452E-03  0.15241948774E-02  0.16160234683E-02  0.00000000000E+00 0. -1.
         12    1    1    0    0    0 -0.64646832298E-02 -0.48505981541E-03 -0.31804204434E-03  0.64906519725E-02  0.00000000000E+00 0.  1.
         14    1    1    0    0    0  0.65619133579E-02  0.10396487787E-02  0.13147913850E-03  0.66450630745E-02  0.00000000000E+00 0.  1.
     999901    1    1    0    0    0  0.22320773938E-02 -0.40015002932E-02 -0.36433398412E-02  0.90001903763E+00  0.90000000000E+00 0.  1.
     999903    1    1    0    0    0 -0.23908541420E-02  0.39602430374E-02  0.45196610951E-02  0.21019682321E-01  0.20000000000E-01 0.  0.
</event>
<event>
 7    1  0.5676831E-066  0.9118800E+02  0.7957747E-01            NaN
     999900   -1    0    0    0    0  0.00000000000E+00  0.00000000000E+00  0.99999998245E-14  0.93827000000E+00  0.93827000000E+00 0. -1.
        -11    1    1    0    0    0 -0.19792782423E-02  0.59369771797E-03 -0.15088011345E-02  0.26091418520E-02  0.51100000000E-03 0. -1.
        -14    1    1    0    0    0  0.25547597124E-02 -0.23408530196E-02 -0.18037936697E-02  0.39064128879E-02  0.00000000000E+00 0. -1.
         12    1    1    0    0    0  0.89863938760E-04  0.14970673180E-02 -0.28036438603E-02  0.31795762260E-02  0.00000000000E+00 0.  1.
         14    1    1    0    0    0 -0.80076325565E-03  0.17629634670E-02  0.46909482266E-02  0.50748652437E-02  0.00000000000E+00 0.  1.
     999901    1    1    0    0    0 -0.79342131518E-02 -0.81517284363E-02  0.76042278552E-02  0.90010400882E+00  0.90000000000E+00 0. -1.
     999903    1    1    0    0    0  0.80696309985E-02  0.66388529531E-02 -0.61789374173E-02  0.23395994969E-01  0.20000000000E-01 0.  0.
</event>
<event>
 7    1  0.5676831E-066  0.9118800E+02  0.7957747E-01            NaN
     999900   -1    0    0    0    0  0.00000000000E+00  0.00000000000E+00  0.99999998245E-14  0.93827000000E+00  0.93827000000E+00 0.  1.
        -11    1    1    0    0    0  0.87312039941E-03  0.30780182695E-02 -0.11023028326E-02  0.34223863361E-02  0.51100000000E-03 0. -1.
        -14    1    1    0    0    0  0.10340054074E-02 -0.18668472207E-02 -0.36964101523E-03  0.21658532286E-02  0.00000000000E+00 0. -1.
         12    1    1    0    0    0 -0.27125097985E-02  0.15918123285E-02 -0.97585060414E-03  0.32930017154E-02  0.00000000000E+00 0.  1.
         14    1    1    0    0    0  0.28806855019E-02 -0.39258761966E-02 -0.15741719681E-03  0.48719229310E-02  0.00000000000E+00 0.  1.
     999901    1    1    0    0    0 -0.31280352229E-02 -0.99104885943E-03  0.16315706261E-01  0.90015385854E+00  0.90000000000E+00 0.  1.
     999903    1    1    0    0    0  0.10527337128E-02  0.21139416787E-02 -0.13710494612E-01  0.24362977244E-01  0.20000000000E-01 0.  0.
</event>
<event>
 7    1  0.5676831E-066  0.9118800E+02  0.7957747E-01            NaN
     999900   -1    0    0    0    0  0.00000000000E+00  0.00000000000E+00  0.99999998245E-14  0.93827000000E+00  0.93827000000E+00 0. -1.
        -11    1    1    0    0    0  0.17780988053E-02  0.13823595155E-02  0.22413013425E-02  0.32182457798E-02  0.51100000000E-03 0. -1.
        -14    1    1    0    0    0 -0.16628416773E-02 -0.28823635000E-02 -0.45168182062E-02  0.56102324817E-02  0.00000000000E+00 0. -1.
         12    1    1    0    0    0 -0.16833620378E-02  0.41911880138E-03 -0.49887135799E-03  0.18050598195E-02  0.00000000000E+00 0.  1.
         14    1    1    0    0    0  0.33560204674E-04  0.13516752708E-02  0.16934235070E-03  0.13626551863E-02  0.00000000000E+00 0.  1.
     999901    1    1    0    0    0  0.64763750058E-02 -0.36164955569E-02 -0.13144982659E-01  0.90012655390E+00  0.90000000000E+00 0.  1.
     999903    1    1    0    0    0 -0.49418303006E-02  0.33457054693E-02  0.15750028530E-01  0.26147252829E-01  0.20000000000E-01 0.  0.
</event>
<event>
 7    1  0.5676831E-066  0.9118800E+02  0.7957747E-01            NaN
     999900   -1    0    0    0    0  0.00000000000E+00  0.00000000000E+00  0.99999998245E-14  0.93827000000E+00  0.93827000000E+00 0.  1.
        -11    1    1    0    0    0  0.11442115019E-02  0.34437760249E-02 -0.32178748279E-02  0.48769511663E-02  0.51100000000E-03 0. -1.
        -14    1    1    0    0    0  0.32143860697E-02 -0.71285358900E-04 -0.10348385684E-02  0.33776101418E-02  0.00000000000E+00 0. -1.
         12    1    1    0    0    0 -0.19262000759E-02  0.18366580479E-02 -0.85218994483E-03  0.27945996528E-02  0.00000000000E+00 0.  1.
         14    1    1    0    0    0 -0.81282739148E-03 -0.19044812977E-02  0.30463218071E-02  0.36834513617E-02  0.00000000000E+00 0.  1.
     999901    1    1    0    0    0  0.76298058690E-02 -0.67529000255E-02 -0.52312779057E-02  0.90007287586E+00  0.90000000000E+00 0. -1.
     999903    1    1    0    0    0 -0.92493759732E-02  0.34482326092E-02  0.72898594397E-02  0.23464511814E-01  0.20000000000E-01 0.  0.
</event>
<event>
 7    1  0.5676831E-066  0.9118800E+02  0.7957747E-01            NaN
     999900   -1    0    0    0    0  0.00000000000E+00  0.00000000000E+00  0.99999998245E-14  0.93827000000E+00  0.93827000000E+00 0.  1.
        -11    1    1    0    0    0  0.20208101562E-02 -0.16189529463E-02 -0.10756480921E-02  0.28500565166E-02  0.51100000000E-03 0. -1.
        -14    1    1    0    0    0 -0.68884149721E-03 -0.24914935316E-02  0.28087201965E-02  0.38171916076E-02  0.00000000000E+00 0. -1.
         12    1    1    0    0    0 -0.26875603989E-02 -0.58305788541E-03  0.87193400979E-03  0.28849967614E-02  0.00000000000E+00 0.  1.
         14    1    1    0    0    0  0.24622301649E-02 -0.88893104401E-03  0.30122382582E-02  0.39907837714E-02  0.00000000000E+00 0.  1.
     999901    1    1    0    0    0 -0.13983523499E-01  0.11318701941E-01 -0.37570279372E-02  0.90018762889E+00  0.90000000000E+00 0. -1.
     999903    1    1    0    0    0  0.12876885074E-01 -0.57362665339E-02 -0.18602164352E-02  0.24539342456E-01  0.20000000000E-01 0.  0.
</event>
<event>
 7    1  0.5676831E-066  0.9118800E+02  0.7957747E-01            NaN
     999900   -1    0    0    0    0  0.00000000000E+00  0.00000000000E+00  0.99999998245E-14  0.93827000000E+00  0.93827000000E+00 0.  1.
        -11    1    1    0    0    0 -0.48554655169E-02  0.49022520766E-02  0.24994739688E-02  0.73563654021E-02  0.51100000000E-03 0. -1.
        -14    1    1    0    0    0  0.52614353061E-03 -0.20961800999E-03 -0.22366840628E-02  0.23072759526E-02  0.00000000000E+00 0. -1.
         12    1    1    0    0    0 -0.44465463548E-04  0.57484265518E-03  0.59727736493E-03  0.83015751898E-03  0.00000000000E+00 0.  1.
         14    1    1    0    0    0 -0.11335729168E-02 -0.21513676389E-02  0.65706455816E-03  0.25189490088E-02  0.00000000000E+00 0.  1.
     999901    1    1    0    0    0  0.15049205816E-01  0.80496032670E-02 -0.51664616024E-02  0.90017663102E+00  0.90000000000E+00 0.  1.
     999903    1    1    0    0    0 -0.95418454490E-02 -0.11165712350E-01  0.36493297733E-02  0.25080621098E-01  0.20000000000E-01 0.  0.
</event>
<event>
 7    1  0.5676831E-066  0.9118800E+02  0.7957747E-01            NaN
     999900   -1    0    0    0    0  0.00000000000E+00  0.00000000000E+00  0.99999998245E-14  0.93827000000E+00  0.93827000000E+00 0.  1.
        -11    1    1    0    0    0 -0.30603947861E-02 -0.15936028527E-02  0.34173489502E-03  0.35047810256E-02  0.51100000000E-03 0. -1.
        -14    1    1    0    0    0  0.77755858919E-03 -0.39859278946E-03  0.25201129427E-03  0.90938620171E-03  0.00000000000E+00 0. -1.
         12    1    1    0    0    0 -0.36017989823E-03 -0.22560971683E-02 -0.46666793749E-02  0.51959215140E-02  0.00000000000E+00 0.  1.
         14    1    1    0    0    0  0.41828246974E-02 -0.71044097483E-03 -0.37982603093E-02  0.56945175568E-02  0.00000000000E+00 0.  1.
     999901    1    1    0    0    0 -0.10600077715E-01  0.54567297449E-02  0.14369268355E-02  0.90008010883E+00  0.90000000000E+00 0. -1.
     999903    1    1    0    0    0  0.90602691123E-02 -0.49799595955E-03  0.64342666594E-02  0.22885284875E-01  0.20000000000E-01 0.  0.
</event>
<event>
 7    1  0.5676831E-066  0.9118800E+02  0.7957747E-01            NaN
     999900   -1    0    0    0    0  0.00000000000E+00  0.00000000000E+00  0.99999998245E-14  0.93827000000E+00  0.93827000000E+00 0. -1.
        -11    1    1    0    0    0 -0.23946547777E-02  0.23860638083E-02  0.17983823275E-03  0.34236142878E-02  0.51100000000E-03 0. -1.
        -14    1    1    0    0    0  0.33353410594E-03 -0.61815539438E-02 -0.35991212235E-02  0.71607630698E-02  0.00000000000E+00 0. -1.
         12    1    1    0    0    0 -0.10485254703E-02  0.24945700504E-03 -0.33835736213E-02  0.35510850328E-02  0.00000000000E+00 0.  1.
         14    1    1    0    0    0  0.27128812641E-02  0.31711542558E-03 -0.17436774122E-02  0.32404780302E-02  0.00000000000E+00 0.  1.
     999901    1    1    0    0    0  0.39113058861E-02  0.13713384698E-02  0.40772233060E-02  0.90001877904E+00  0.90000000000E+00 0.  1.
     999903    1    1    0    0    0 -0.35145410082E-02  0.18575792351E-02  0.44693107183E-02  0.20875280535E-01  0.20000000000E-01 0.  0.
</event>
<event>
 7    1  0.5676831E-066  0.9118800E+02  0.7957747E-01            NaN
     999900   -1    0    0    0    0  0.00000000000E+00  0.00000000000E+00  0.99999998245E-14  0.93827000000E+00  0.93827000000E+00 0.  1.
        -11    1    1    0    0    0  0.33214478802E-02 -0.24860287696E-02 -0.15500432466E-02  0.44582631294E-02  0.51100000000E-03 0. -1.
        -14    1    1    0    0    0 -0.21161126944E-02  0.18383920925E-02  0.24061452307E-02  0.36942053669E-02  0.00000000000E+00 0. -1.
         12    1    1    0    0    0 -0.42494117126E-02 -0.35862090341E-02  0.18649741411E-02  0.58648549587E-02  0.00000000000E+00 0.  1.
         14    1    1    0    0    0  0.84927981250E-03  0.70409007988E-03 -0.13064802503E-03  0.11108951107E-02  0.00000000000E+00 0.  1.
     999901    1    1    0    0    0  0.12510783786E-01 -0.14411225804E-02 -0.29390816660E-02  0.90009290340E+00  0.90000000000E+00 0. -1.
     999903    1    1    0    0    0 -0.10315987072E-01  0.49708782118E-02  0.34865356583E-03  0.23048878037E-01  0.20000000000E-01 0.  0.
</event>
<event>
 7    1  0.5676831E-066  0.9118800E+02  0.7957747E-01            NaN
     999900   -1    0    0    0    0  0.00000000000E+00  0.00000000000E+00  0.99999998245E-14  0.93827000000E+00  0.93827000000E+00 0.  1.
        -11    1    1    0    0    0 -0.91681680256E-03 -0.37965549072E-03  0.38089448740E-04  0.11168093603E-02  0.51100000000E-03 0. -1.
        -14    1    1    0    0    0 -0.23185995099E-03  0.28008529222E-02  0.76642612034E-03  0.29130645593E-02  0.00000000000E+00 0. -1.
         12    1    1    0    0    0  0.81010826048E-03  0.49850218913E-02 -0.51938854471E-04  0.50506847352E-02  0.00000000000E+00 0.  1.
         14    1    1    0    0    0  0.23456097836E-02 -0.39149532380E-02 -0.23334405728E-02  0.51257866732E-02  0.00000000000E+00 0.  1.
     999901    1    1    0    0    0  0.37206994769E-02 -0.12942916981E-01 -0.55781816384E-02  0.90011803605E+00  0.90000000000E+00 0. -1.
     999903    1    1    0    0    0 -0.57277407674E-02  0.94516508965E-02  0.71590454966E-02  0.23945618626E-01  0.20000000000E-01 0.  0.
</event>
<event>
 7    1  0.5676831E-066  0.9118800E+02  0.7957747E-01            NaN
     999900   -1    0    0    0    0  0.00000000000E+00  0.00000000000E+00  0.99999998245E-14  0.93827000000E+00  0.93827000000E+00 0. -1.
        -11    1    1    0    0    0  0.98940775739E-03 -0.73675972555E-03  0.30432592411E-03  0.13694808767E-02  0.51100000000E-03 0. -1.
        -14    1    1    0    0    0 -0.39885294990E-02 -0.39733676692E-02 -0.22671869304E-03  0.56344848535E-02  0.00000000000E+00 0. -1.
         12    1    1    0    0    0 -0.35398690864E-02 -0.31361602453E-03 -0.44747161575E-02  0.57142027309E-02  0.00000000000E+00 0.  1.
         14    1    1    0    0    0 -0.11935254603E-02  0.14003779557E-03  0.22648454636E-02  0.25639107985E-02  0.00000000000E+00 0.  1.
     999901    1    1    0    0    0  0.76035056406E-02 -0.37182238601E-02  0.92340068585E-02  0.90008716543E+00  0.90000000000E+00 0. -1.
     999903    1    1    0    0    0  0.12901064771E-03  0.86019294838E-02 -0.71017433956E-02  0.22900755312E-01  0.20000000000E-01 0.  0.
</event>
<event>
 7    1  0.5676831E-066  0.9118800E+02  0.7957747E-01            NaN
     999900   -1    0    0    0    0  0.00000000000E+00  0.00000000000E+00  0.99999998245E-14  0.93827000000E+00  0.93827000000E+00 0. -1.
        -11    1    1    0    0    0  0.22599764757E-02  0.83653963068E-02  0.43227153137E-03  0.86911063000E-02  0.51100000000E-03 0. -1.
        -14    1    1    0    0    0  0.12875424413E-02  0.13400201635E-02 -0.18918581053E-02  0.26518949201E-02  0.00000000000E+00 0. -1.
         12    1    1    0    0    0 -0.95491819273E-03  0.28683588741E-03  0.12112057587E-02  0.15688094119E-02  0.00000000000E+00 0.  1.
         14    1    1    0    0    0  0.20707025696E-02  0.10629505078E-02  0.12306075953E-02  0.26328820648E-02  0.00000000000E+00 0.  1.
     999901    1    1    0    0    0 -0.11374182440E-01 -0.29206135356E-02 -0.22580784877E-02  0.90007944145E+00  0.90000000000E+00 0.  1.
     999903    1    1    0    0    0  0.67108791463E-02 -0.81345893298E-02  0.12758517077E-02  0.22645865849E-01  0.20000000000E-01 0.  0.
</event>
<event>
 7    1  0.5676831E-066  0.9118800E+02  0.7957747E-01            NaN
     999900   -1    0    0    0    0  0.00000000000E+00  0.00000000000E+00  0.99999998245E-14  0.93827000000E+00  0.93827000000E+00 0. -1.
        -11    1    1    0    0    0 -0.32413086026E-02 -0.22701101887E-02 -0.10003117595E-02  0.41135418246E-02  0.51100000000E-03 0. -1.
        -14    1    1    0    0    0  0.11613415094E-02  0.85282175005E-03  0.10495456283E-02  0.17825725973E-02  0.00000000000E+00 0. -1.
         12    1    1    0    0    0 -0.47381686463E-02  0.56635445974E-03  0.10045802045E-02  0.48764926825E-02  0.00000000000E+00 0.  1.
         14    1    1    0    0    0 -0.54148070195E-03 -0.25182007749E-03 -0.25208292914E-02  0.25905974250E-02  0.00000000000E+00 0.  1.
     999901    1    1    0    0    0  0.10617529687E-01  0.13569136484E-01 -0.52689854356E-02  0.90018032394E+00  0.90000000000E+00 0.  1.
     999903    1    1    0    0    0 -0.32579132451E-02 -0.12466382427E-01  0.67360006537E-02  0.24726471530E-01  0.20000000000E-01 0.  0.
</event>
<event>
 7    1  0.5676831E-066  0.9118800E+02  0.7957747E-01            NaN
     999900   -1    0    0    0    0  0.00000000000E+00  0.00000000000E+00  0.99999998245E-14  0.93827000000E+00  0.93827000000E+00 0. -1.
        -11    1    1    0    0    0 -0.52015144254E-03 -0.12680638493E-02  0.26633655455E-02  0.30386148947E-02  0.51100000000E-03 0. -1.
        -14    1    1    0    0    0 -0.25855609985E-02  0.39922783139E-02 -0.49044845230E-02  0.68320846196E-02  0.00000000000E+00 0. -1.
         12    1    1    0    0    0 -0.16265362509E-02  0.11238169131E-02 -0.37093826812E-03  0.20115118266E-02  0.00000000000E+00 0.  1.
         14    1    1    0    0    0  0.90339169577E-04 -0.14783098658E-02 -0.15309012409E-03  0.14889586331E-02  0.00000000000E+00 0.  1.
     999901    1    1    0    0    0  0.12952483389E-01 -0.13465302892E-01  0.68712779849E-02  0.90022013734E+00  0.90000000000E+00 0. -1.
     999903    1    1    0    0    0 -0.83105738663E-02  0.11095581380E-01 -0.41061306151E-02  0.24678692688E-01  0.20000000000E-01 0.  0.
</event>
<event>
 7    1  0.5676831E-066  0.9118800E+02  0.7957747E-01            NaN
     999900   -1    0    0    0    0  0.00000000000E+00  0.00000000000E+00  0.99999998245E-14  0.93827000000E+00  0.93827000000E+00 0. -1.
        -11    1    1    0    0    0 -0.19675185579E-03  0.41246952650E-03  0.12631418433E-02  0.14371815193E-02  0.51100000000E-03 0. -1.
        -14    1    1    0    0    0  0.12611543749E-02 -0.21561933674E-02 -0.13740949796E-02  0.28509326909E-02  0.00000000000E+00 0. -1.
         12    1    1    0    0    0  0.27670088129E-02  0.41126146410E-02 -0.41310240701E-02  0.64525418886E-02  0.00000000000E+00 0.  1.
         14    1    1    0    0    0 -0.58326978851E-02  0.28525634514E-03 -0.11315926815E-03  0.58407654311E-02  0.00000000000E+00 0.  1.
     999901    1    1    0    0    0 -0.18992226591E-02  0.19819527661E-02 -0.14290034208E-02  0.90000532067E+00  0.90000000000E+00 0.  1.
     999903    1    1    0    0    0  0.39005092122E-02 -0.46360999113E-02  0.57841398953E-02  0.21683257800E-01  0.20000000000E-01 0.  0.
</event>
<event>
 7    1  0.5676831E-066  0.9118800E+02  0.7957747E-01            NaN
     999900   -1    0    0    0    0  0.00000000000E+00  0.00000000000E+00  0.99999998245E-14  0.93827000000E+00  0.93827000000E+00 0. -1.
        -11    1    1    0    0    0 -0.24949737478E-02  0.58334329794E-03 -0.66474749798E-03  0.26959587611E-02  0.51100000000E-03 0. -1.
        -14    1    1    0    0    0  0.47322966570E-02  0.47469432068E-04 -0.34428109926E-02  0.58523356473E-02  0.00000000000E+00 0. -1.
         12    1    1    0    0    0  0.55544263993E-03 -0.54487563708E-03 -0.36890516273E-02  0.37702132427E-02  0.00000000000E+00 0.  1.
         14    1    1    0    0    0  0.28059132846E-02 -0.12198626429E-02  0.18293841608E-02  0.35648086394E-02  0.00000000000E+00 0.  1.
     999901    1    1    0    0    0 -0.86958080959E-02 -0.80169884137E-02  0.39754670967E-02  0.90008649224E+00  0.90000000000E+00 0. -1.
     999903    1    1    0    0    0  0.30971292622E-02  0.91509139637E-02  0.19917588604E-02  0.22300191465E-01  0.20000000000E-01 0.  0.
</event>
<event>
 7    1  0.5676831E-066  0.9118800E+02  0.7957747E-01            NaN
     999900   -1    0    0    0    0  0.00000000000E+00  0.00000000000E+00  0.99999998245E-14  0.93827000000E+00  0.93827000000E+00 0.  1.
        -11    1    1    0    0    0 -0.27503801999E-02  0.79067220117E-03 -0.63892987919E-03  0.29764250644E-02  0.51100000000E-03 0. -1.
        -14    1    1    0    0    0  0.97548844627E-03  0.19128211950E-02 -0.62488973043E-02  0.66075093759E-02  0.00000000000E+00 0. -1.
         12    1    1    0    0    0 -0.22344968236E-03  0.85861378757E-03  0.36144757032E-03  0.95801447945E-03  0.00000000000E+00 0.  1.
         14    1    1    0    0    0 -0.27184524059E-02  0.22223837453E-02 -0.30901565364E-02  0.46773967561E-02  0.00000000000E+00 0.  1.
     999901    1    1    0    0    0  0.67023760871E-02 -0.14195762052E-01  0.25324123585E-02  0.90014046383E+00  0.90000000000E+00 0. -1.
     999903    1    1    0    0    0 -0.19855822453E-02  0.84112711229E-02  0.70841237910E-02  0.22910190498E-01  0.20000000000E-01 0.  0.
</event>
<event>
 7    1  0.5676831E-066  0.9118800E+02  0.7957747E-01            NaN
     999900   -1    0    0    0    0  0.00000000000E+00  0.00000000000E+00  0.99999998245E-14  0.93827000000E+00  0.93827000000E+00 0.  1.
        -11    1    1    0    0    0  0.77232198357E-03  0.21385788028E-02  0.23268063016E-02  0.32931973987E-02  0.51100000000E-03 0. -1.
        -14    1    1    0    0    0 -0.22218932576E-02  0.42409369297E-03  0.20150411032E-02  0.30293655699E-02  0.00000000000E+00 0. -1.
         12    1    1    0    0    0 -0.36775068839E-02  0.40895590041E-02  0.42744471854E-02  0.69655903175E-02  0.00000000000E+00 0.  1.
         14    1    1    0    0    0 -0.14160418639E-02 -0.34869843682E-02 -0.18707899889E-02  0.42028668462E-02  0.00000000000E+00 0.  1.
     999901    1    1    0    0    0  0.86188624490E-02 -0.21676788835E-02 -0.17890098952E-02  0.90004565672E+00  0.90000000000E+00 0. -1.
     999903    1    1    0    0    0 -0.20757424272E-02 -0.99756824812E-03 -0.49564947061E-02  0.20733323149E-01  0.20000000000E-01 0.  0.
</event>
<event>
 7    1  0.5676831E-066  0.9118800E+02  0.7957747E-01            NaN
     999900   -1    0    0    0    0  0.00000000000E+00  0.00000000000E+00  0.99999998245E-14  0.93827000000E+00  0.93827000000E+00 0.  1.
        -11    1    1    0    0    0 -0.82502177020E-03  0.10193920757E-02 -0.18091511879E-02  0.22921540407E-02  0.51100000000E-03 0. -1.
        -14    1    1    0    0    0  0.89335713994E-03  0.89239818288E-03 -0.77330925486E-03  0.14806987202E-02  0.00000000000E+00 0. -1.
         12    1    1    0    0    0 -0.20728568489E-03 -0.55886129673E-02  0.45382186415E-02  0.72021518098E-02  0.00000000000E+00 0.  1.
         14    1    1    0    0    0  0.13341513070E-02  0.54640267610E-03  0.66988285063E-03  0.15897353956E-02  0.00000000000E+00 0.  1.
     999901    1    1    0    0    0  0.15040922045E-02  0.16730848840E-01  0.51028407272E-02  0.90017121848E+00  0.90000000000E+00 0. -1.
     999903    1    1    0    0    0 -0.26992931963E-02 -0.13600428807E-01 -0.77284817766E-02  0.25534041554E-01  0.20000000000E-01 0.  0.
</event>
<event>
 7    1  0.5676831E-066  0.9118800E+02  0.7957747E-01            NaN
     999900   -1    0    0    0    0  0.00000000000E+00  0.00000000000E+00  0.99999998245E-14  0.93827000000E+00  0.93827000000E+00 0. -1.
        -11    1    1    0    0    0  0.56323508323E-03  0.28583507020E-02 -0.50958648839E-03  0.30013666693E-02  0.51100000000E-03 0. -1.
        -14    1    1    0    0    0  0.24538992632E-02  0.19541282204E-02  0.21325731738E-02  0.37931658331E-02  0.00000000000E+00 0. -1.
         12    1    1    0    0    0 -0.42906769914E-02  0.21119651263E-02  0.14465457123E-02  0.49962786389E-02  0.00000000000E+00 0.  1.
         14    1    1    0    0    0  0.23398951433E-03 -0.24578173142E-02  0.15171385673E-02  0.28978140856E-02  0.00000000000E+00 0.  1.
     999901    1    1    0    0    0 -0.42887079070E-03  0.22427361839E-02 -0.14740268039E-01  0.90012359668E+00  0.90000000000E+00 0.  1.
     999903    1    1    0    0    0  0.14684239214E-02 -0.67093629185E-02  0.10153597074E-01  0.23457778094E-01  0.20000000000E-01 0.  0.
</event>
<event>
 7    1  0.5676831E-066  0.9118800E+02  0.7957747E-01            NaN
     999900   -1    0    0    0    0  0.00000000000E+00  0.00000000000E+00  0.99999998245E-14  0.93827000000E+00  0.93827000000E+00 0. -1.
        -11    1    1    0    0    0 -0.90381526846E-03 -0.38724526571E-03 -0.69534013543E-02  0.70411470890E-02  0.51100000000E-03 0. -1.
        -14    1    1    0    0    0 -0.28933437611E-03 -0.29855977256E-03  0.26870643405E-02  0.27190378976E-02  0.00000000000E+00 0. -1.
         12    1    1    0    0    0  0.18186366223E-03 -0.75465203239E-03 -0.42186985054E-03  0.88348641893E-03  0.00000000000E+00 0.  1.
         14    1    1    0    0    0  0.32606542270E-02 -0.15949731248E-02 -0.22542687473E-02  0.42728834342E-02  0.00000000000E+00 0.  1.
     999901    1    1    0    0    0  0.12386305531E-02  0.38268983359E-02  0.18066274671E-01  0.90019029635E+00  0.90000000000E+00 0. -1.
     999903    1    1    0    0    0 -0.34879987978E-02 -0.79146814045E-03 -0.11123799060E-01  0.23163148813E-01  0.20000000000E-01 0.  0.
</event>
<event>
 7    1  0.5676831E-066  0.9118800E+02  0.7957747E-01            NaN
     999900   -1    0    0    0    0  0.00000000000E+00  0.00000000000E+00  0.99999998245E-14  0.93827000000E+00  0.93827000000E+00 0. -1.
        -11    1    1    0    0    0  0.36862315440E-02  0.56530677581E-02 -0.23114424124E-02  0.71518784316E-02  0.51100000000E-03 0. -1.
        -14    1    1    0    0    0 -0.87590908167E-03  0.13154867459E-02  0.12506931207E-02  0.20154293290E-02  0.00000000000E+00 0. -1.
         12    1    1    0    0    0 -0.11203795355E-02 -0.14051484082E-02  0.66844278576E-03  0.19174222567E-02  0.00000000000E+00 0.  1.
         14    1    1    0    0    0 -0.17570266221E-02  0.37933729472E-02 -0.23333781554E-02  0.47876376726E-02  0.00000000000E+00 0.  1.
     999901    1    1    0    0    0 -0.38283441301E-02 -0.77961922740E-03 -0.81207012909E-03  0.90000884634E+00  0.90000000000E+00 0. -1.
     999903    1    1    0    0    0  0.38954278253E-02 -0.85771598157E-02  0.35377547904E-02  0.22388785974E-01  0.20000000000E-01 0.  0.
</event>
<event>
 7    1  0.5676831E-066  0.9118800E+02  0.7957747E-01            NaN
     999900   -1    0    0    0    0  0.00000000000E+00  0.00000000000E+00  0.99999998245E-14  0.93827000000E+00  0.93827000000E+00 0.  1.
        -11    1    1    0    0    0  0.23635736022E-02 -0.77189480341E-03 -0.21796036083E-03  0.25477302603E-02  0.51100000000E-03 0. -1.
        -14    1    1    0    0    0 -0.40279970745E-02 -0.58616391644E-02 -0.33053116669E-02  0.78427456507E-02  0.00000000000E+00 0. -1.
         12    1    1    0    0    0 -0.28271243740E-02 -0.43029445516E-03 -0.78928176679E-03  0.29666060156E-02  0.00000000000E+00 0.  1.
         14    1    1    0    0    0 -0.10710800690E-02 -0.77538733606E-04  0.23991829493E-02  0.26285554196E-02  0.00000000000E+00 0.  1.
     999901    1    1    0    0    0 -0.39848197124E-02  0.65477142670E-02  0.73220041005E-05  0.90003263908E+00  0.90000000000E+00 0.  1.
     999903    1    1    0    0    0  0.95474476277E-02  0.59365288960E-03  0.19060488411E-02  0.22251723577E-01  0.20000000000E-01 0.  0.
</event>
<event>
 7    1  0.5676831E-066  0.9118800E+02  0.7957747E-01            NaN
     999900   -1    0    0    0    0  0.00000000000E+00  0.00000000000E+00  0.99999998245E-14  0.93827000000E+00  0.93827000000E+00 0.  1.
        -11    1    1    0    0    0  0.46844246730E-02  0.35723090031E-02  0.81057470726E-04  0.59137904464E-02  0.51100000000E-03 0. -1.
        -14    1    1    0    0    0 -0.22217037448E-02 -0.17212023438E-02 -0.88722058812E-03  0.29471452984E-02  0.00000000000E+00 0. -1.
         12    1    1    0    0    0 -0.13054004501E-02  0.28638780622E-02 -0.18149961783E-02  0.36331912993E-02  0.00000000000E+00 0.  1.
         14    1    1    0    0    0  0.17158450399E-02 -0.17275931000E-02  0.81540829267E-04  0.24362575863E-02  0.00000000000E+00 0.  1.
     999901    1    1    0    0    0 -0.65662649504E-02 -0.14133345264E-01  0.18323342161E-02  0.90013678112E+00  0.90000000000E+00 0.  1.
     999903    1    1    0    0    0  0.36930994323E-02  0.11145953642E-01  0.70728425032E-03  0.23202834245E-01  0.20000000000E-01 0.  0.
</event>
<event>
 7    1  0.5676831E-066  0.9118800E+02  0.7957747E-01            NaN
     999900   -1    0    0    0    0  0.00000000000E+00  0.00000000000E+00  0.99999998245E-14  0.93827000000E+00  0.93827000000E+00 0. -1.
        -11    1    1    0    0    0 -0.18010800074E-02 -0.11195214082E-02 -0.14406616341E-03  0.21861137746E-02  0.51100000000E-03 0. -1.
        -14    1    1    0    0    0 -0.24431425955E-03 -0.35840962947E-02 -0.19672528333E-02  0.40957928924E-02  0.00000000000E+00 0. -1.
         12    1    1    0    0    0 -0.21205965839E-02  0.16340935172E-02  0.79411891685E-03  0.27924570451E-02  0.00000000000E+00 0.  1.
         14    1    1    0    0    0  0.31204961825E-03 -0.30127842765E-02 -0.17786142449E-02  0.35125080346E-02  0.00000000000E+00 0.  1.
     999901    1    1    0    0    0 -0.11174655137E-01  0.16361691679E-02 -0.12304846671E-03  0.90007086671E+00  0.90000000000E+00 0.  1.
     999903    1    1    0    0    0  0.15028596370E-01  0.44461392943E-02  0.32188627915E-02  0.25612261539E-01  0.20000000000E-01 0.  0.
</event>
<event>
 7    1  0.5676831E-066  0.9118800E+02  0.7957747E-01            NaN
     999900   -1    0    0    0    0  0.00000000000E+00  0.00000000000E+00  0.99999998245E-14  0.93827000000E+00  0.93827000000E+00 0. -1.
        -11    1    1    0    0    0  0.46005715596E-02  0.31920503871E-02  0.15272599141E-02  0.58264987938E-02  0.51100000000E-03 0. -1.
        -14    1    1    0    0    0  0.17933612903E-02 -0.15483797045E-02 -0.11737807159E-02  0.26441228406E-02  0.00000000000E+00 0. -1.
         12    1    1    0    0    0  0.30197870616E-02  0.23597104752E-02 -0.59631781906E-03  0.38785232197E-02  0.00000000000E+00 0.  1.
         14    1    1    0    0    0 -0.70396649530E-03  0.12329719612E-03  0.14307203482E-02  0.15992910116E-02  0.00000000000E+00 0.  1.
     999901    1    1    0    0    0  0.72882447338E-03 -0.61641866451E-02  0.85731052650E-02  0.90006223480E+00  0.90000000000E+00 0. -1.
     999903    1    1    0    0    0 -0.94385778896E-02  0.20375082912E-02 -0.97609869923E-02  0.24259329333E-01  0.20000000000E-01 0.  0.
</event>
<event>
 7    1  0.5676831E-066  0.9118800E+02  0.7957747E-01            NaN
     999900   -1    0    0    0    0  0.00000000000E+00  0.00000000000E+00  0.99999998245E-14  0.93827000000E+00  0.93827000000E+00 0.  1.
        -11    1    1    0    0    0 -0.86720994625E-03  0.36419981448E-02  0.40666471609E-03  0.38003553477E-02  0.51100000000E-03 0. -1.
        -14    1    1    0    0    0  0.20860235197E-02  0.76390876447E-03  0.48098295284E-02  0.52980667056E-02  0.00000000000E+00 0. -1.
         12    1    1    0    0    0 -0.11899963443E-02  0.15752913283E-02 -0.15660216072E-02  0.25199320909E-02  0.00000000000E+00 0.  1.
         14    1    1    0    0    0  0.58284145566E-03  0.21825749773E-02 -0.13850697825E-02  0.26498596183E-02  0.00000000000E+00 0.  1.
     999901    1    1    0    0    0  0.22161485207E-02 -0.51937248879E-02 -0.14623941889E-01  0.90013651507E+00  0.90000000000E+00 0. -1.
     999903    1    1    0    0    0 -0.28278072055E-02 -0.29700483271E-02  0.12358539035E-01  0.23865271164E-01  0.20000000000E-01 0.  0.
</event>
<event>
 7    1  0.5676831E-066  0.9118800E+02  0.7957747E-01            NaN
     999900   -1    0    0    0    0  0.00000000000E+00  0.00000000000E+00  0.99999998245E-14  0.93827000000E+00  0.93827000000E+00 0.  1.
        -11    1    1    0    0    0 -0.36731688100E-02  0.63876082340E-03  0.34386619684E-02  0.50976172502E-02  0.51100000000E-03 0. -1.
        -14    1    1    0    0    0 -0.12511565629E-02  0.34550416803E-02  0.28049469467E-02  0.46228165799E-02  0.00000000000E+00 0. -1.
         12    1    1    0    0    0  0.15770525045E-02 -0.63463276731E-04 -0.18134307379E-02  0.24040909364E-02  0.00000000000E+00 0.  1.
         14    1    1    0    0    0 -0.12381273798E-02 -0.14871935167E-02  0.23437604594E-02  0.30393941922E-02  0.00000000000E+00 0.  1.
     999901    1    1    0    0    0  0.39822816691E-02 -0.53707829764E-02 -0.17567468055E-01  0.90019626738E+00  0.90000000000E+00 0. -1.
     999903    1    1    0    0    0  0.60311857906E-03  0.28276372662E-02  0.10793529419E-01  0.22909813658E-01  0.20000000000E-01 0.  0.
</event>
<event>
 7    1  0.5676831E-066  0.9118800E+02  0.7957747E-01            NaN
     999900   -1    0    0    0    0  0.00000000000E+00  0.00000000000E+00  0.99999998245E-14  0.93827000000E+00  0.93827000000E+00 0.  1.
        -11    1    1    0    0    0 -0.43435125834E-03 -0.29132759360E-03  0.12024841530E-02  0.14073457005E-02  0.51100000000E-03 0. -1.
        -14    1    1    0    0    0  0.24848606552E-02  0.16869125366E-02 -0.62929115735E-02  0.69728718943E-02  0.00000000000E+00 0. -1.
         12    1    1    0    0    0  0.20049941271E-02 -0.19709355593E-02 -0.13478903870E-02  0.31179154774E-02  0.00000000000E+00 0.  1.
         14    1    1    0    0    0  0.13210280768E-02  0.22084776829E-02 -0.28243098700E-02  0.38208919243E-02  0.00000000000E+00 0.  1.
     999901    1    1    0    0    0  0.33622335074E-03  0.73514626242E-02  0.59288775476E-02  0.90004961454E+00  0.90000000000E+00 0.  1.
     999903    1    1    0    0    0 -0.57127549514E-02 -0.89845896908E-02  0.33337501299E-02  0.22901360461E-01  0.20000000000E-01 0.  0.
</event>
<event>
 7    1  0.5676831E-066  0.9118800E+02  0.7957747E-01            NaN
     999900   -1    0    0    0    0  0.00000000000E+00  0.00000000000E+00  0.99999998245E-14  0.93827000000E+00  0.93827000000E+00 0. -1.
        -11    1    1    0    0    0 -0.15869713514E-02 -0.15177614825E-02 -0.52800065927E-03  0.23155957514E-02  0.51100000000E-03 0. -1.
        -14    1    1    0    0    0 -0.31190482080E-02  0.54774007622E-02  0.12111638967E-02  0.64185121966E-02  0.00000000000E+00 0. -1.
         12    1    1    0    0    0 -0.93573197590E-03 -0.15071486759E-02 -0.92437469036E-03  0.20003899695E-02  0.00000000000E+00 0.  1.
         14    1    1    0    0    0  0.18089974581E-02  0.62137771303E-02 -0.13426581967E-02  0.66095558899E-02  0.00000000000E+00 0.  1.
     999901    1    1    0    0    0  0.89377102387E-02 -0.11075198902E-01  0.26659920695E-02  0.90011646480E+00  0.90000000000E+00 0. -1.
     999903    1    1    0    0    0 -0.51049561616E-02  0.24089311682E-02 -0.10821224198E-02  0.20809481390E-01  0.20000000000E-01 0.  0.
</event>
<event>
 7    1  0.5676831E-066  0.9118800E+02  0.7957747E-01            NaN
     999900   -1    0    0    0    0  0.00000000000E+00  0.00000000000E+00  0.99999998245E-14  0.93827000000E+00  0.93827000000E+00 0. -1.
        -11    1    1    0    0    0 -0.74652267440E-04 -0.36003650143E-03 -0.28009527671E-02  0.28708285645E-02  0.51100000000E-03 0. -1.
        -14    1    1    0    0    0  0.18961149312E-02  0.78136286496E-03  0.18067098256E-02  0.27331264429E-02  0.00000000000E+00 0. -1.
         12    1    1    0    0    0  0.37628453039E-02 -0.81067848745E-03 -0.49059797185E-03  0.38803209611E-02  0.00000000000E+00 0.  1.
         14    1    1    0    0    0 -0.18099682060E-03 -0.54921193390E-02  0.25246868059E-02  0.60473281828E-02  0.00000000000E+00 0.  1.
     999901    1    1    0    0    0 -0.14091208584E-01  0.10861038874E-01  0.19101191230E-02  0.90017785625E+00  0.90000000000E+00 0.  1.
     999903    1    1    0    0    0  0.86878974366E-02 -0.49795674106E-02 -0.29499650155E-02  0.22560539600E-01  0.20000000000E-01 0.  0.
</event>
<event>
 7    1  0.5676831E-066  0.9118800E+02  0.7957747E-01            NaN
     999900   -1    0    0    0    0  0.00000000000E+00  0.00000000000E+00  0.99999998245E-14  0.93827000000E+00  0.93827000000E+00 0.  1.
        -11    1    1    0    0    0  0.10568490700E-02  0.30489865300E-02  0.45640760220E-03  0.32988903765E-02  0.51100000000E-03 0. -1.
        -14    1    1    0    0    0 -0.51016967851E-03 -0.57364033539E-03 -0.39762550976E-02  0.40496840539E-02  0.00000000000E+00 0. -1.
         12    1    1    0    0    0  0.16301866241E-02 -0.63368061064E-03  0.10429497280E-02  0.20363702220E-02  0.00000000000E+00 0.  1.
         14    1    1    0    0    0 -0.12749426812E-02  0.17833611269E-02  0.26222564302E-02  0.34179064550E-02  0.00000000000E+00 0.  1.
     999901    1    1    0    0    0  0.13982180466E-01  0.10076897713E-02  0.23464656872E-04  0.90010916969E+00  0.90000000000E+00 0.  1.
     999903    1    1    0    0    0 -0.14884103800E-01 -0.46327164822E-02 -0.16882331965E-03  0.25357979203E-01  0.20000000000E-01 0.  0.
</event>
<event>
 7    1  0.5676831E-066  0.9118800E+02  0.7957747E-01            NaN
     999900   -1    0    0    0    0  0.00000000000E+00  0.00000000000E+00  0.99999998245E-14  0.93827000000E+00  0.93827000000E+00 0. -1.
        -11    1    1    0    0    0  0.26821696127E-02 -0.36664732752E-03 -0.19397703309E-03  0.27617407886E-02  0.51100000000E-03 0. -1.
        -14    1    1    0    0    0 -0.69716311876E-03  0.13262441914E-02  0.36981365692E-02  0.39901346035E-02  0.00000000000E+00 0. -1.
         12    1    1    0    0    0 -0.16505873729E-02 -0.38891394353E-04 -0.24180290037E-02  0.29279370688E-02  0.00000000000E+00 0.  1.
         14    1    1    0    0    0  0.18264957070E-02 -0.50317171583E-02 -0.26055571031E-02  0.59534185093E-02  0.00000000000E+00 0.  1.
     999901    1    1    0    0    0  0.57874951348E-02 -0.26423577021E-02  0.30636804075E-02  0.90002770140E+00  0.90000000000E+00 0. -1.
     999903    1    1    0    0    0 -0.79484099629E-02  0.67533693909E-02 -0.15442538369E-02  0.22609067627E-01  0.20000000000E-01 0.  0.
</event>
<event>
 7    1  0.5676831E-066  0.9118800E+02  0.7957747E-01            NaN
     999900   -1    0    0    0    0  0.00000000000E+00  0.00000000000E+00  0.99999998245E-14  0.93827000000E+00  0.93827000000E+00 0.  1.
        -11    1    1    0    0    0  0.60734215989E-03  0.18904507736E-02 -0.20003926943E-02  0.28645000537E-02  0.51100000000E-03 0. -1.
        -14    1    1    0    0    0 -0.43278545933E-03 -0.69911240688E-03  0.21768238149E-02  0.23269343206E-02  0.00000000000E+00 0. -1.
         12    1    1    0    0    0  0.32293100501E-02  0.10349452699E-02  0.14146536497E-02  0.36743434870E-02  0.00000000000E+00 0.  1.
         14    1    1    0    0    0  0.14842572377E-02 -0.42995008576E-02 -0.19254427834E-02  0.49392364880E-02  0.00000000000E+00 0.  1.
     999901    1    1    0    0    0  0.45019561533E-02 -0.81537583495E-02  0.21481671795E-02  0.90005075746E+00  0.90000000000E+00 0.  1.
     999903    1    1    0    0    0 -0.93900801417E-02  0.10226975571E-01 -0.18138091665E-02  0.24414228189E-01  0.20000000000E-01 0.  0.
</event>
<event>
 7    1  0.5676831E-066  0.9118800E+02  0.7957747E-01            NaN
     999900   -1    0    0    0    0  0.00000000000E+00  0.00000000000E+00  0.99999998245E-14  0.93827000000E+00  0.93827000000E+00 0.  1.
        -11    1    1    0    0    0 -0.64915035176E-02 -0.10401985221E-02 -0.14997889927E-02  0.67625526916E-02  0.51100000000E-03 0. -1.
        -14    1    1    0    0    0  0.41711084014E-02 -0.20918542056E-02  0.29533846974E-02  0.55223618574E-02  0.00000000000E+00 0. -1.
         12    1    1    0    0    0 -0.20354522787E-02 -0.75423186530E-04  0.20762944013E-02  0.29085654671E-02  0.00000000000E+00 0.  1.
         14    1    1    0    0    0 -0.27653452500E-03  0.20128444563E-02 -0.11282198950E-02  0.23239824183E-02  0.00000000000E+00 0.  1.
     999901    1    1    0    0    0  0.20532277144E-02 -0.36437505000E-02 -0.26140583035E-02  0.90001351432E+00  0.90000000000E+00 0. -1.
     999903    1    1    0    0    0  0.25791542056E-02  0.48383819580E-02  0.21238809266E-03  0.20739023243E-01  0.20000000000E-01 0.  0.
</event>
<event>
 7    1  0.5676831E-066  0.9118800E+02  0.7957747E-01            NaN
     999900   -1    0    0    0    0  0.00000000000E+00  0.00000000000E+00  0.99999998245E-14  0.93827000000E+00  0.93827000000E+00 0.  1.
        -11    1    1    0    0    0  0.10023746520E-02  0.11039430650E-02 -0.12490119950E-02  0.20111183947E-02  0.51100000000E-03 0. -1.
        -14    1    1    0    0    0 -0.16471936031E-02 -0.34849622092E-02  0.10780545101E-02  0.40025504235E-02  0.00000000000E+00 0. -1.
         12    1    1    0    0    0 -0.28447668648E-02 -0.58816219320E-02 -0.20740965881E-02  0.68547831274E-02  0.00000000000E+00 0.  1.
         14    1    1    0    0    0 -0.20528994232E-02  0.12468375593E-02  0.58088017055E-03  0.24711175030E-02  0.00000000000E+00 0.  1.
     999901    1    1    0    0    0  0.15814131037E-01  0.33440183727E-02  0.19543058975E-02  0.90014725935E+00  0.90000000000E+00 0.  1.
     999903    1    1    0    0    0 -0.10271645797E-01  0.36717851443E-02 -0.29013199504E-03  0.22783171204E-01  0.20000000000E-01 0.  0.
</event>
<event>
 7    1  0.5676831E-066  0.9118800E+02  0.7957747E-01            NaN
     999900   -1    0    0    0    0  0.00000000000E+00  0.00000000000E+00  0.99999998245E-14  0.93827000000E+00  0.93827000000E+00 0. -1.
        -11    1    1    0    0    0  0.40649973148E-02 -0.14144621489E-02 -0.14328666645E-02  0.45649900568E-02  0.51100000000E-03 0. -1.
        -14    1    1    0    0    0  0.74475714364E-03 -0.24401715471E-03 -0.36850220689E-02  0.37674388148E-02  0.00000000000E+00 0. -1.
         12    1    1    0    0    0  0.67705687876E-03  0.15427242121E-02  0.50896790588E-02  0.53612719511E-02  0.00000000000E+00 0.  1.
         14    1    1    0    0    0  0.56233833786E-03  0.24101804091E-02 -0.31384080981E-02  0.39968486837E-02  0.00000000000E+00 0.  1.
     999901    1    1    0    0    0 -0.48721280532E-02 -0.28333645638E-02 -0.14231147235E-02  0.90001877249E+00  0.90000000000E+00 0. -1.
     999903    1    1    0    0    0 -0.11770216219E-02  0.53893924614E-03  0.45897324961E-02  0.20560677999E-01  0.20000000000E-01 0.  0.
</event>
<event>
 7    1  0.5676831E-066  0.9118800E+02  0.7957747E-01            NaN
     999900   -1    0    0    0    0  0.00000000000E+00  0.00000000000E+00  0.99999998245E-14  0.93827000000E+00  0.93827000000E+00 0.  1.
        -11    1    1    0    0    0 -0.12205738429E-02 -0.16911333341E-02 -0.25262007931E-02  0.33155005515E-02  0.51100000000E-03 0. -1.
        -14    1    1    0    0    0  0.20350812067E-02 -0.12920299479E-02  0.64198654822E-03  0.24946029007E-02  0.00000000000E+00 0. -1.
         12    1    1    0    0    0 -0.16825382662E-02  0.11046409385E-02 -0.26370770324E-03  0.20299528007E-02  0.00000000000E+00 0.  1.
         14    1    1    0    0    0 -0.13167251171E-02 -0.56143881794E-02  0.49267891246E-02  0.75847459246E-02  0.00000000000E+00 0.  1.
     999901    1    1    0    0    0  0.44818418733E-02 -0.11843239695E-02 -0.90024296554E-02  0.90005696112E+00  0.90000000000E+00 0. -1.
     999903    1    1    0    0    0 -0.22970858537E-02  0.86772344924E-02  0.62235624790E-02  0.22788236698E-01  0.20000000000E-01 0.  0.
</event>
<event>
 7    1  0.5676831E-066  0.9118800E+02  0.7957747E-01            NaN
     999900   -1    0    0    0    0  0.00000000000E+00  0.00000000000E+00  0.99999998245E-14  0.93827000000E+00  0.93827000000E+00 0. -1.
        -11    1    1    0    0    0  0.35492900341E-02 -0.14332306971E-02  0.10008972037E-03  0.38629974022E-02  0.51100000000E-03 0. -1.
        -14    1    1    0    0    0 -0.27568620344E-02  0.27916797352E-03  0.13772227037E-02  0.30943441001E-02  0.00000000000E+00 0. -1.
         12    1    1    0    0    0  0.14003097678E-02  0.14320494288E-02 -0.47376910907E-03  0.20581764213E-02  0.00000000000E+00 0.  1.
         14    1    1    0    0    0 -0.39658520788E-03  0.56715644136E-02  0.46567300098E-02  0.73490854608E-02  0.00000000000E+00 0.  1.
     999901    1    1    0    0    0 -0.20219641442E-02 -0.56625300661E-03  0.14570674553E-02  0.90000362890E+00  0.90000000000E+00 0.  1.
     999903    1    1    0    0    0  0.22581158454E-03 -0.53832981123E-02 -0.71173407801E-02  0.21901767719E-01  0.20000000000E-01 0.  0.
</event>
<event>
 7    1  0.5676831E-066  0.9118800E+02  0.7957747E-01            NaN
     999900   -1    0    0    0    0  0.00000000000E+00  0.00000000000E+00  0.99999998245E-14  0.93827000000E+00  0.93827000000E+00 0. -1.
        -11    1    1    0    0    0  0.38421246763E-02  0.95044203602E-03 -0.40012975479E-03  0.40107962941E-02  0.51100000000E-03 0. -1.
        -14    1    1    0    0    0  0.17423558393E-02 -0.42593735460E-02  0.24004402750E-02  0.51903930861E-02  0.00000000000E+00 0. -1.
         12    1    1    0    0    0  0.52194426721E-02  0.64225492556E-03  0.35145838020E-02  0.63251381406E-02  0.00000000000E+00 0.  1.
         14    1    1    0    0    0  0.42851339963E-03  0.48357163928E-03 -0.28804759702E-03  0.70741549469E-03  0.00000000000E+00 0.  1.
     999901    1    1    0    0    0 -0.16587997556E-01  0.35467103799E-02 -0.11905020827E-01  0.90023856301E+00  0.90000000000E+00 0.  1.
     999903    1    1    0    0    0  0.53555609689E-02 -0.13636054348E-02  0.66781741020E-02  0.21797693970E-01  0.20000000000E-01 0.  0.
</event>
<event>
 7    1  0.5676831E-066  0.9118800E+02  0.7957747E-01            NaN
     999900   -1    0    0    0    0  0.00000000000E+00  0.00000000000E+00  0.99999998245E-14  0.93827000000E+00  0.93827000000E+00 0. -1.
        -11    1    1    0    0    0 -0.16005707385E-02  0.40762636786E-02 -0.13052314596E-03  0.44108853485E-02  0.51100000000E-03 0. -1.
        -14    1    1    0    0    0 -0.89347770200E-03 -0.12415275497E-02  0.23942887652E-02  0.28411814007E-02  0.00000000000E+00 0. -1.
         12    1    1    0    0    0  0.59266189988E-03  0.10868296043E-02  0.25359584257E-02  0.28219730426E-02  0.00000000000E+00 0.  1.
         14    1    1    0    0    0 -0.31343232999E-02 -0.21021638322E-02 -0.28733071319E-02  0.47433078331E-02  0.00000000000E+00 0.  1.
     999901    1    1    0    0    0 -0.41297891748E-02  0.60577721081E-02 -0.32387030448E-03  0.90002991987E+00  0.90000000000E+00 0.  1.
     999903    1    1    0    0    0  0.91654990153E-02 -0.78771740092E-02 -0.16025466085E-02  0.23422732509E-01  0.20000000000E-01 0.  0.
</event>
<event>
 7    1  0.5676831E-066  0.9118800E+02  0.7957747E-01            NaN
     999900   -1    0    0    0    0  0.00000000000E+00  0.00000000000E+00  0.99999998245E-14  0.93827000000E+00  0.93827000000E+00 0.  1.
        -11    1    1    0    0    0 -0.21174828803E-03 -0.27253468311E-02 -0.41128366921E-03  0.28111613158E-02  0.51100000000E-03 0. -1.
        -14    1    1    0    0    0 -0.66190774952E-02 -0.31353976554E-03  0.48661444274E-03  0.66443425324E-02  0.00000000000E+00 0. -1.
         12    1    1    0    0    0  0.24228445011E-02  0.31093135464E-02  0.30926892927E-02  0.50102627942E-02  0.00000000000E+00 0.  1.
         14    1    1    0    0    0 -0.13556455467E-02 -0.28971436041E-03 -0.18023044136E-02  0.22737657000E-02  0.00000000000E+00 0.  1.
     999901    1    1    0    0    0  0.20437395797E-02 -0.45921353425E-02 -0.63658371383E-02  0.90003654840E+00  0.90000000000E+00 0. -1.
     999903    1    1    0    0    0  0.37198872491E-02  0.48114227531E-02  0.50001214857E-02  0.21493919255E-01  0.20000000000E-01 0.  0.
</event>
<event>
 7    1  0.5676831E-066  0.9118800E+02  0.7957747E-01            NaN
     999900   -1    0    0    0    0  0.00000000000E+00  0.00000000000E+00  0.99999998245E-14  0.93827000000E+00  0.93827000000E+00 0.  1.
        -11    1    1    0    0    0  0.87418574440E-03  0.25088554866E-02 -0.34880402997E-02  0.44143065934E-02  0.51100000000E-03 0. -1.
        -14    1    1    0    0    0  0.18020578079E-02  0.15811250616E-03  0.12464459715E-02  0.21968248604E-02  0.00000000000E+00 0. -1.
         12    1    1    0    0    0  0.34031653793E-02  0.22156040244E-02 -0.22487056551E-02  0.46418867839E-02  0.00000000000E+00 0.  1.
         14    1    1    0    0    0 -0.17767986751E-02  0.66238895483E-03 -0.15876343743E-03  0.19028868827E-02  0.00000000000E+00 0.  1.
     999901    1    1    0    0    0 -0.18178498061E-01 -0.50352361480E-02 -0.64410162589E-03  0.90019788172E+00  0.90000000000E+00 0. -1.
     999903    1    1    0    0    0  0.13875887805E-01 -0.50972482403E-03  0.52931650466E-02  0.24916213155E-01  0.20000000000E-01 0.  0.
</event>
<event>
 7    1  0.5676831E-066  0.9118800E+02  0.7957747E-01            NaN
     999900   -1    0    0    0    0  0.00000000000E+00  0.00000000000E+00  0.99999998245E-14  0.93827000000E+00  0.93827000000E+00 0.  1.
        -11    1    1    0    0    0  0.21467983080E-03 -0.81833002725E-03  0.67136947435E-03  0.11948261105E-02  0.51100000000E-03 0. -1.
        -14    1    1    0    0    0 -0.23696423756E-02  0.34784353598E-02  0.19723156499E-02  0.46480906363E-02  0.00000000000E+00 0. -1.
         12    1    1    0    0    0  0.21995728441E-04  0.14980237156E-02 -0.78741606311E-04  0.15002530137E-02  0.00000000000E+00 0.  1.
         14    1    1    0    0    0 -0.48097532119E-03 -0.92164144718E-03  0.40809301682E-02  0.42112648046E-02  0.00000000000E+00 0.  1.
     999901    1    1    0    0    0  0.16029556248E-01 -0.12604970934E-01 -0.12068721962E-01  0.90031188264E+00  0.90000000000E+00 0. -1.
     999903    1    1    0    0    0 -0.13415614110E-01  0.93684833331E-02  0.54228482764E-02  0.26403682799E-01  0.20000000000E-01 0.  0.
</event>
<event>
 7    1  0.5676831E-066  0.9118800E+02  0.7957747E-01            NaN
     999900   -1    0    0    0    0  0.00000000000E+00  0.00000000000E+00  0.99999998245E-14  0.93827000000E+00  0.93827000000E+00 0.  1.
        -11    1    1    0    0    0 -0.93853862076E-03  0.41214093471E-02  0.11718054733E-02  0.44160071123E-02  0.51100000000E-03 0. -1.
        -14    1    1    0    0    0 -0.12830823286E-02 -0.15906441342E-02 -0.37597341589E-03  0.20779328750E-02  0.00000000000E+00 0. -1.
         12    1    1    0    0    0  0.20616309826E-02 -0.46232859575E-02 -0.17166817352E-02  0.53452868523E-02  0.00000000000E+00 0.  1.
         14    1    1    0    0    0  0.11625673796E-02 -0.96900925809E-03  0.30239592462E-02  0.33815486655E-02  0.00000000000E+00 0.  1.
     999901    1    1    0    0    0  0.74352805163E-02 -0.30585190398E-02 -0.65596329619E-02  0.90005981286E+00  0.90000000000E+00 0. -1.
     999903    1    1    0    0    0 -0.84378579292E-02  0.61200490425E-02  0.44565233936E-02  0.22989411638E-01  0.20000000000E-01 0.  0.
</event>
<event>
 7    1  0.5676831E-066  0.9118800E+02  0.7957747E-01            NaN
     999900   -1    0    0    0    0  0.00000000000E+00  0.00000000000E+00  0.99999998245E-14  0.93827000000E+00  0.93827000000E+00 0. -1.
        -11    1    1    0    0    0 -0.35964549697E-02 -0.18991034884E-03 -0.19543729114E-02  0.41293157746E-02  0.51100000000E-03 0. -1.
        -14    1    1    0    0    0  0.28767895959E-02  0.41245051236E-02  0.12734565425E-02  0.51874032482E-02  0.00000000000E+00 0. -1.
         12    1    1    0    0    0  0.15238072796E-02  0.57388039800E-03 -0.24965231648E-02  0.29805964586E-02  0.00000000000E+00 0.  1.
         14    1    1    0    0    0  0.79148718598E-03  0.28571551048E-02  0.13286134318E-02  0.32488460889E-02  0.00000000000E+00 0.  1.
     999901    1    1    0    0    0 -0.45490038182E-02 -0.16007585944E-01  0.68317405719E-02  0.90017976478E+00  0.90000000000E+00 0. -1.
     999903    1    1    0    0    0  0.29533747264E-02  0.86419556668E-02 -0.49829144700E-02  0.22544073648E-01  0.20000000000E-01 0.  0.
</event>
<event>
 7    1  0.5676831E-066  0.9118800E+02  0.7957747E-01            NaN
     999900   -1    0    0    0    0  0.00000000000E+00  0.00000000000E+00  0.99999998245E-14  0.93827000000E+00  0.93827000000E+00 0. -1.
        -11    1    1    0    0    0 -0.12460785567E-02  0.61159013119E-03  0.15669056564E-02  0.21547780847E-02  0.51100000000E-03 0. -1.
        -14    1    1    0    0    0  0.41059628235E-03  0.13300884169E-02  0.29468629154E-02  0.32590988856E-02  0.00000000000E+00 0. -1.
         12    1    1    0    0    0 -0.15462480440E-02  0.41058082212E-02  0.38105333222E-02  0.58110849557E-02  0.00000000000E+00 0.  1.
         14    1    1    0    0    0 -0.12137269992E-04  0.41802277150E-02 -0.29065218461E-02  0.50913966948E-02  0.00000000000E+00 0.  1.
     999901    1    1    0    0    0 -0.13389305495E-02 -0.32548346584E-02 -0.10498792084E-02  0.90000749382E+00  0.90000000000E+00 0.  1.
     999903    1    1    0    0    0  0.37327981378E-02 -0.69728798258E-02 -0.43679008395E-02  0.21946147560E-01  0.20000000000E-01 0.  0.
</event>
<event>
 7    1  0.5676831E-066  0.9118800E+02  0.7957747E-01            NaN
     999900   -1    0    0    0    0  0.00000000000E+00  0.00000000000E+00  0.99999998245E-14  0.93827000000E+00  0.93827000000E+00 0.  1.
        -11    1    1    0    0    0 -0.34715916965E-03  0.66879030707E-03  0.96970718345E-03  0.13301326947E-02  0.51100000000E-03 0.  1.
        -14    1    1    0    0    0 -0.35809040104E-02  0.27360046058E-02 -0.17818264745E-02  0.48459777465E-02  0.00000000000E+00 0. -1.
         12    1    1    0    0    0 -0.15792006388E-02 -0.31982390939E-02  0.43701105454E-02  0.56409639370E-02  0.00000000000E+00 0.  1.
         14    1    1    0    0    0  0.87036159080E-03  0.50268948039E-03 -0.32874536821E-02  0.34376703921E-02  0.00000000000E+00 0.  1.
     999901    1    1    0    0    0  0.52236420019E-02  0.10227685105E-01  0.22289294979E-02  0.90007603018E+00  0.90000000000E+00 0. -1.
     999903    1    1    0    0    0 -0.58673977386E-03 -0.10936930404E-01 -0.24994670701E-02  0.22939225049E-01  0.20000000000E-01 0.  0.
</event>
<event>
 7    1  0.5676831E-066  0.9118800E+02  0.7957747E-01            NaN
     999900   -1    0    0    0    0  0.00000000000E+00  0.00000000000E+00  0.99999998245E-14  0.93827000000E+00  0.93827000000E+00 0. -1.
        -11    1    1    0    0    0 -0.85017153172E-03  0.50205842821E-02 -0.12819035843E-03  0.51192393903E-02  0.51100000000E-03 0. -1.
        -14    1    1    0    0    0 -0.96487877217E-03 -0.21125326528E-02  0.12790622041E-03  0.23259718948E-02  0.00000000000E+00 0. -1.
         12    1    1    0    0    0  0.83092560480E-03  0.26211928313E-03 -0.97925656799E-03  0.13107582940E-02  0.00000000000E+00 0.  1.
         14    1    1    0    0    0 -0.44755277810E-02 -0.25596564802E-03  0.87759307207E-03  0.45679357408E-02  0.00000000000E+00 0.  1.
     999901    1    1    0    0    0  0.65330793469E-02 -0.12782706510E-01 -0.10620088544E-01  0.90017712979E+00  0.90000000000E+00 0.  1.
     999903    1    1    0    0    0 -0.10734268668E-02  0.98685012453E-02  0.10722036178E-01  0.24768964893E-01  0.20000000000E-01 0.  0.
</event>
<event>
 7    1  0.5676831E-066  0.9118800E+02  0.7957747E-01            NaN
     999900   -1    0    0    0    0  0.00000000000E+00  0.00000000000E+00  0.99999998245E-14  0.93827000000E+00  0.93827000000E+00 0. -1.
        -11    1    1    0    0    0 -0.41205949397E-02 -0.35047853341E-03  0.10188682462E-02  0.42896796340E-02  0.51100000000E-03 0. -1.
        -14    1    1    0    0    0 -0.28595637089E-02  0.18317568340E-02  0.53687180861E-02  0.63526035287E-02  0.00000000000E+00 0. -1.
         12    1    1    0    0    0 -0.25537788489E-03 -0.13793399700E-02  0.24311370060E-02  0.28068173718E-02  0.00000000000E+00 0.  1.
         14    1    1    0    0    0  0.23143846245E-02  0.14400744395E-02 -0.28014695176E-02  0.39087622132E-02  0.00000000000E+00 0.  1.
     999901    1    1    0    0    0  0.90800880857E-02 -0.66178154643E-03 -0.98972382571E-02  0.90010046177E+00  0.90000000000E+00 0. -1.
     999903    1    1    0    0    0 -0.41589361767E-02 -0.88023122370E-03  0.38799844364E-02  0.20811675482E-01  0.20000000000E-01 0.  0.
</event>
<event>
 7    1  0.5676831E-066  0.9118800E+02  0.7957747E-01            NaN
     999900   -1    0    0    0    0  0.00000000000E+00  0.00000000000E+00  0.99999998245E-14  0.93827000000E+00  0.93827000000E+00 0.  1.
        -11    1    1    0    0    0 -0.16701360865E-02 -0.16908025336E-02 -0.79567893599E-03  0.25578103378E-02  0.51100000000E-03 0. -1.
        -14    1    1    0    0    0  0.14758815292E-02  0.19663227103E-02 -0.41320426208E-02  0.48081625918E-02  0.00000000000E+00 0. -1.
         12    1    1    0    0    0  0.45197825506E-03  0.26162060800E-02 -0.40948240494E-03  0.26863533714E-02  0.00000000000E+00 0.  1.
         14    1    1    0    0    0  0.52559893015E-02 -0.43672559021E-02 -0.36949905264E-03  0.68436011866E-02  0.00000000000E+00 0.  1.
     999901    1    1    0    0    0 -0.96902651927E-02  0.69231671268E-02  0.32325472351E-02  0.90008459649E+00  0.90000000000E+00 0.  1.
     999903    1    1    0    0    0  0.41765521934E-02 -0.54476374814E-02  0.24741557793E-02  0.21289476019E-01  0.20000000000E-01 0.  0.
</event>
<event>
 7    1  0.5676831E-066  0.9118800E+02  0.7957747E-01            NaN
     999900   -1    0    0    0    0  0.00000000000E+00  0.00000000000E+00  0.99999998245E-14  0.93827000000E+00  0.93827000000E+00 0.  1.
        -11    1    1    0    0    0  0.35980481386E-03  0.31731685093E-02 -0.24795356612E-03  0.32436183289E-02  0.51100000000E-03 0. -1.
        -14    1    1    0    0    0  0.13962660326E-02 -0.27154424042E-03 -0.28075053991E-02  0.31472816325E-02  0.00000000000E+00 0. -1.
         12    1    1    0    0    0  0.33381127970E-02 -0.18539673156E-02 -0.39338653458E-02  0.54822886108E-02  0.00000000000E+00 0.  1.
         14    1    1    0    0    0 -0.26097024271E-02 -0.27017692423E-02  0.26857263234E-02  0.46177082715E-02  0.00000000000E+00 0.  1.
     999901    1    1    0    0    0 -0.28128799389E-02 -0.43474198030E-02 -0.18180497122E-02  0.90001673188E+00  0.90000000000E+00 0. -1.
     999903    1    1    0    0    0  0.32839872253E-03  0.60015320920E-02  0.61216476998E-02  0.21762371280E-01  0.20000000000E-01 0.  0.
</event>
<event>
 7    1  0.5676831E-066  0.9118800E+02  0.7957747E-01            NaN
     999900   -1    0    0    0    0  0.00000000000E+00  0.00000000000E+00  0.99999998245E-14  0.93827000000E+00  0.93827000000E+00 0. -1.
        -11    1    1    0    0    0 -0.29995006400E-02 -0.44363467643E-03  0.21802838368E-02  0.37694262726E-02  0.51100000000E-03 0. -1.
        -14    1    1    0    0    0  0.40148222325E-02 -0.21675421361E-02 -0.25106676703E-02  0.52077335398E-02  0.00000000000E+00 0. -1.
         12    1    1    0    0    0 -0.39339898112E-02 -0.44232341751E-02  0.25853539819E-02  0.64595148126E-02  0.00000000000E+00 0.  1.
         14    1    1    0    0    0  0.35561027435E-03  0.11938558046E-02 -0.39492963743E-03  0.13067975237E-02  0.00000000000E+00 0.  1.
     999901    1    1    0    0    0  0.69554070542E-02  0.10641600735E-01 -0.59049290694E-02  0.90010915424E+00  0.90000000000E+00 0.  1.
     999903    1    1    0    0    0 -0.43923491098E-02 -0.48010455520E-02  0.40448885584E-02  0.21417373615E-01  0.20000000000E-01 0.  0.
</event>
<event>
 7    1  0.5676831E-066  0.9118800E+02  0.7957747E-01            NaN
     999900   -1    0    0    0    0  0.00000000000E+00  0.00000000000E+00  0.99999998245E-14  0.93827000000E+00  0.93827000000E+00 0.  1.
        -11    1    1    0    0    0  0.12530364312E-02  0.77988838891E-03  0.70213069056E-03  0.17124353138E-02  0.51100000000E-03 0. -1.
        -14    1    1    0    0    0  0.34074410926E-02 -0.92757754964E-03  0.43625389005E-02  0.56127355691E-02  0.00000000000E+00 0. -1.
         12    1    1    0    0    0 -0.50641078522E-02  0.90164608736E-03 -0.32564237383E-02  0.60878936890E-02  0.00000000000E+00 0.  1.
         14    1    1    0    0    0  0.68362961110E-03  0.18135656818E-03 -0.16673565668E-02  0.18111647001E-02  0.00000000000E+00 0.  1.
     999901    1    1    0    0    0  0.83663210059E-02  0.19501547216E-02 -0.68444764741E-02  0.90006702266E+00  0.90000000000E+00 0. -1.
     999903    1    1    0    0    0 -0.86463202886E-02 -0.28854682164E-02  0.67035871882E-02  0.22978748063E-01  0.20000000000E-01 0.  0.
</event>
<event>
 7    1  0.5676831E-066  0.9118800E+02  0.7957747E-01            NaN
     999900   -1    0    0    0    0  0.00000000000E+00  0.00000000000E+00  0.99999998245E-14  0.93827000000E+00  0.93827000000E+00 0. -1.
        -11    1    1    0    0    0  0.25252475818E-02  0.11693969164E-02 -0.18591384538E-02  0.33855400290E-02  0.51100000000E-03 0. -1.
        -14    1    1    0    0    0  0.14778621947E-03 -0.56057738009E-03  0.15503216668E-02  0.16551691866E-02  0.00000000000E+00 0. -1.
         12    1    1    0    0    0  0.13044786150E-03  0.35554796991E-02 -0.40062600146E-03  0.35803566482E-02  0.00000000000E+00 0.  1.
         14    1    1    0    0    0 -0.43268100984E-03 -0.36533815793E-02  0.47835121392E-02  0.60346000867E-02  0.00000000000E+00 0.  1.
     999901    1    1    0    0    0 -0.90078031372E-02  0.80547250791E-03 -0.14290510615E-01  0.90015887931E+00  0.90000000000E+00 0.  1.
     999903    1    1    0    0    0  0.66370024843E-02 -0.13163901640E-02  0.10216441264E-01  0.23455454742E-01  0.20000000000E-01 0.  0.
</event>
<event>
 7    1  0.5676831E-066  0.9118800E+02  0.7957747E-01            NaN
     999900   -1    0    0    0    0  0.00000000000E+00  0.00000000000E+00  0.99999998245E-14  0.93827000000E+00  0.93827000000E+00 0.  1.
        -11    1    1    0    0    0 -0.94755459568E-03 -0.47533965212E-03 -0.34892030318E-02  0.36823180598E-02  0.51100000000E-03 0. -1.
        -14    1    1    0    0    0 -0.56005996612E-02  0.11033140329E-02  0.29040272763E-02  0.64044822462E-02  0.00000000000E+00 0. -1.
         12    1    1    0    0    0 -0.12914127483E-02  0.77059732618E-03  0.17496136851E-02  0.23071010322E-02  0.00000000000E+00 0.  1.
         14    1    1    0    0    0  0.34845229825E-03  0.33681998863E-03 -0.49359521844E-03  0.69173907549E-03  0.00000000000E+00 0.  1.
     999901    1    1    0    0    0  0.12177720409E-01  0.12538108600E-01 -0.50116441510E-03  0.90016984631E+00  0.90000000000E+00 0.  1.
     999903    1    1    0    0    0 -0.46866057017E-02 -0.14273500295E-01 -0.16967829604E-03  0.25014513275E-01  0.20000000000E-01 0.  0.
</event>
<event>
 7    1  0.5676831E-066  0.9118800E+02  0.7957747E-01            NaN
     999900   -1    0    0    0    0  0.00000000000E+00  0.00000000000E+00  0.99999998245E-14  0.93827000000E+00  0.93827000000E+00 0. -1.
        -11    1    1    0    0    0  0.10411819404E-02  0.12098601469E-03  0.18923155129E-02  0.22227632463E-02  0.51100000000E-03 0. -1.
        -14    1    1    0    0    0  0.25279059377E-02  0.39386012450E-02  0.49563354732E-03  0.47062236252E-02  0.00000000000E+00 0. -1.
         12    1    1    0    0    0  0.31562891920E-04 -0.45064077450E-02 -0.27619775863E-02  0.52855678188E-02  0.00000000000E+00 0.  1.
         14    1    1    0    0    0  0.87758277813E-03  0.90576696421E-03  0.43751339809E-02  0.45532804303E-02  0.00000000000E+00 0.  1.
     999901    1    1    0    0    0  0.28099491674E-02 -0.11044323264E-03 -0.67961953002E-02  0.90003005299E+00  0.90000000000E+00 0.  1.
     999903    1    1    0    0    0 -0.72881827156E-02 -0.34850324627E-03  0.27950898454E-02  0.21472111891E-01  0.20000000000E-01 0.  0.
</event>
<event>
 7    1  0.5676831E-066  0.9118800E+02  0.7957747E-01            NaN
     999900   -1    0    0    0    0  0.00000000000E+00  0.00000000000E+00  0.99999998245E-14  0.93827000000E+00  0.93827000000E+00 0. -1.
        -11    1    1    0    0    0  0.45672808878E-02 -0.14542648745E-02  0.36250316001E-02  0.60313278915E-02  0.51100000000E-03 0. -1.
        -14    1    1    0    0    0  0.59270864391E-05  0.14798856744E-03 -0.88551521718E-04  0.17256047765E-03  0.00000000000E+00 0. -1.
         12    1    1    0    0    0  0.40367882081E-02  0.31045674864E-02 -0.23451281546E-02  0.56065697513E-02  0.00000000000E+00 0.  1.
         14    1    1    0    0    0 -0.23122552027E-03 -0.29929035813E-02  0.20646844744E-02  0.36433307655E-02  0.00000000000E+00 0.  1.
     999901    1    1    0    0    0  0.15968922460E-02 -0.32850489404E-02 -0.37986866078E-02  0.90001542855E+00  0.90000000000E+00 0.  1.
     999903    1    1    0    0    0 -0.99756629081E-02  0.44796613423E-02  0.54265020962E-03  0.22800782562E-01  0.20000000000E-01 0.  0.
</event>
<event>
 7    1  0.5676831E-066  0.9118800E+02  0.7957747E-01            NaN
     999900   -1    0    0    0    0  0.00000000000E+00  0.00000000000E+00  0.99999998245E-14  0.93827000000E+00  0.93827000000E+00 0.  1.
        -11    1    1    0    0    0 -0.53980130122E-02  0.29808194905E-02  0.42206595862E-04  0.61876273087E-02  0.51100000000E-03 0. -1.
        -14    1    1    0    0    0  0.25790416493E-02 -0.18500278126E-02 -0.19656629413E-02  0.37333483008E-02  0.00000000000E+00 0. -1.
         12    1    1    0    0    0 -0.15247677024E-02  0.13989442761E-02 -0.27815159107E-02  0.34668130026E-02  0.00000000000E+00 0.  1.
         14    1    1    0    0    0 -0.15706676923E-02 -0.50024438283E-03  0.24889918930E-02  0.29853512500E-02  0.00000000000E+00 0.  1.
     999901    1    1    0    0    0 -0.18271462994E-02 -0.59147946093E-02  0.39844630255E-02  0.90003011017E+00  0.90000000000E+00 0.  1.
     999903    1    1    0    0    0  0.77415530569E-02  0.38853030381E-02 -0.17684826624E-02  0.21866749972E-01  0.20000000000E-01 0.  0.
</event>
<event>
 7    1  0.5676831E-066  0.9118800E+02  0.7957747E-01            NaN
     999900   -1    0    0    0    0  0.00000000000E+00  0.00000000000E+00  0.99999998245E-14  0.93827000000E+00  0.93827000000E+00 0.  1.
        -11    1    1    0    0    0 -0.23502088008E-02  0.33334163744E-03  0.66127139671E-03  0.25165450353E-02  0.51100000000E-03 0. -1.
        -14    1    1    0    0    0  0.80652989968E-04 -0.16533309816E-02  0.10637933046E-02  0.19676545516E-02  0.00000000000E+00 0. -1.
         12    1    1    0    0    0  0.33456418183E-02  0.51186649886E-03  0.21658378180E-02  0.40182309469E-02  0.00000000000E+00 0.  1.
         14    1    1    0    0    0  0.65360712192E-03  0.48707142278E-02  0.32882925020E-02  0.59130302669E-02  0.00000000000E+00 0.  1.
     999901    1    1    0    0    0 -0.14710343048E-02  0.85885468057E-02 -0.93265778751E-02  0.90009050219E+00  0.90000000000E+00 0. -1.
     999903    1    1    0    0    0 -0.25865882458E-03 -0.12651138188E-01  0.21473828538E-02  0.23764037009E-01  0.20000000000E-01 0.  0.
</event>
<event>
 7    1  0.5676831E-066  0.9118800E+02  0.7957747E-01            NaN
     999900   -1    0    0    0    0  0.00000000000E+00  0.00000000000E+00  0.99999998245E-14  0.93827000000E+00  0.93827000000E+00 0. -1.
        -11    1    1    0    0    0 -0.65175203601E-03  0.10150038191E-03 -0.23644808024E-02  0.25073837977E-02  0.51100000000E-03 0. -1.
        -14    1    1    0    0    0  0.10736180843E-02 -0.48092738294E-02  0.16972287847E-02  0.52117517310E-02  0.00000000000E+00 0. -1.
         12    1    1    0    0    0  0.35233068775E-02  0.46408800755E-02  0.48626603148E-02  0.75892637697E-02  0.00000000000E+00 0.  1.
         14    1    1    0    0    0 -0.20881714889E-03 -0.85455376362E-03 -0.11094959897E-02  0.14159265828E-02  0.00000000000E+00 0.  1.
     999901    1    1    0    0    0 -0.85172095164E-02  0.65114240037E-02 -0.56551950278E-02  0.90008162004E+00  0.90000000000E+00 0. -1.
     999903    1    1    0    0    0  0.47808537394E-02 -0.55899768681E-02  0.25692827204E-02  0.21464054080E-01  0.20000000000E-01 0.  0.
</event>
<event>
 7    1  0.5676831E-066  0.9118800E+02  0.7957747E-01            NaN
     999900   -1    0    0    0    0  0.00000000000E+00  0.00000000000E+00  0.99999998245E-14  0.93827000000E+00  0.93827000000E+00 0.  1.
        -11    1    1    0    0    0  0.46097066925E-02 -0.85053739130E-03 -0.18710691149E-02  0.50729508452E-02  0.51100000000E-03 0. -1.
        -14    1    1    0    0    0 -0.14448960022E-02 -0.48865157543E-03  0.57201958204E-03  0.16290215534E-02  0.00000000000E+00 0. -1.
         12    1    1    0    0    0 -0.92264359685E-03 -0.77248592466E-04  0.36334145998E-02  0.37495253308E-02  0.00000000000E+00 0.  1.
         14    1    1    0    0    0  0.39930270176E-03 -0.25226007102E-03 -0.11636370637E-02  0.12558379701E-02  0.00000000000E+00 0.  1.
     999901    1    1    0    0    0  0.13471062735E-01  0.15312905906E-02  0.51343056934E-02  0.90011675658E+00  0.90000000000E+00 0.  1.
     999903    1    1    0    0    0 -0.16112532530E-01  0.13740703964E-03 -0.63050336966E-02  0.26445907720E-01  0.20000000000E-01 0.  0.
</event>
<event>
 7    1  0.5676831E-066  0.9118800E+02  0.7957747E-01            NaN
     999900   -1    0    0    0    0  0.00000000000E+00  0.00000000000E+00  0.99999998245E-14  0.93827000000E+00  0.93827000000E+00 0.  1.
        -11    1    1    0    0    0 -0.32924373079E-02  0.21301167511E-02  0.12493580316E-02  0.41472348970E-02  0.51100000000E-03 0. -1.
        -14    1    1    0    0    0 -0.12643962917E-02 -0.33708303471E-02 -0.12319791651E-02  0.38051238974E-02  0.00000000000E+00 0. -1.
         12    1    1    0    0    0  0.35401366481E-02  0.19694658171E-03 -0.75873111647E-03  0.36258831132E-02  0.00000000000E+00 0.  1.
         14    1    1    0    0    0 -0.83341370303E-03 -0.97598794651E-03  0.10383006856E-04  0.12834479650E-02  0.00000000000E+00 0.  1.
     999901    1    1    0    0    0  0.15046246507E-01 -0.55177879194E-02  0.33912326388E-02  0.90014906320E+00  0.90000000000E+00 0. -1.
     999903    1    1    0    0    0 -0.13196135852E-01  0.75375428801E-02 -0.26602633956E-02  0.25259246929E-01  0.20000000000E-01 0.  0.
</event>
<event>
 7    1  0.5676831E-066  0.9118800E+02  0.7957747E-01            NaN
     999900   -1    0    0    0    0  0.00000000000E+00  0.00000000000E+00  0.99999998245E-14  0.93827000000E+00  0.93827000000E+00 0.  1.
        -11    1    1    0    0    0  0.20167995459E-02  0.43405908335E-03 -0.22400706054E-02  0.30878673892E-02  0.51100000000E-03 0. -1.
        -14    1    1    0    0    0  0.74814588802E-03 -0.18921850587E-02 -0.70633687032E-03  0.21538334059E-02  0.00000000000E+00 0. -1.
         12    1    1    0    0    0 -0.19351858550E-02  0.21626435757E-02 -0.13543380159E-02  0.32025307166E-02  0.00000000000E+00 0.  1.
         14    1    1    0    0    0  0.73566630091E-04 -0.13594965001E-02  0.34335796972E-02  0.36936583924E-02  0.00000000000E+00 0.  1.
     999901    1    1    0    0    0  0.45369051659E-02  0.13691218971E-01  0.95106079565E-02  0.90016580953E+00  0.90000000000E+00 0.  1.
     999903    1    1    0    0    0 -0.54402313750E-02 -0.13036240071E-01 -0.86434421620E-02  0.25966300565E-01  0.20000000000E-01 0.  0.
</event>
<event>
 7    1  0.5676831E-066  0.9118800E+02  0.7957747E-01            NaN
     999900   -1    0    0    0    0  0.00000000000E+00  0.00000000000E+00  0.99999998245E-14  0.93827000000E+00  0.93827000000E+00 0.  1.
        -11    1    1    0    0    0 -0.41921520516E-02 -0.32520446335E-02  0.10809651797E-02  0.54387075525E-02  0.51100000000E-03 0. -1.
        -14    1    1    0    0    0  0.36564989481E-03 -0.61862674049E-03 -0.84331457387E-03  0.11079613532E-02  0.00000000000E+00 0. -1.
         12    1    1    0    0    0 -0.15310933039E-02 -0.21512730168E-02 -0.26741774919E-02  0.37581175549E-02  0.00000000000E+00 0.  1.
         14    1    1    0    0    0 -0.10915250953E-02  0.25471102944E-02  0.82199361403E-03  0.28904794390E-02  0.00000000000E+00 0.  1.
     999901    1    1    0    0    0  0.93495563480E-02  0.98295763794E-02 -0.11469285162E-01  0.90017530475E+00  0.90000000000E+00 0. -1.
     999903    1    1    0    0    0 -0.29004357920E-02 -0.63547422831E-02  0.13083818434E-01  0.24899429353E-01  0.20000000000E-01 0.  0.
</event>
<event>
 7    1  0.5676831E-066  0.9118800E+02  0.7957747E-01            NaN
     999900   -1    0    0    0    0  0.00000000000E+00  0.00000000000E+00  0.99999998245E-14  0.93827000000E+00  0.93827000000E+00 0. -1.
        -11    1    1    0    0    0  0.51828465916E-02  0.22206208616E-02 -0.29021371797E-02  0.63621204809E-02  0.51100000000E-03 0. -1.
        -14    1    1    0    0    0 -0.43298740689E-02  0.28394060921E-02  0.20671523629E-02  0.55752269282E-02  0.00000000000E+00 0. -1.
         12    1    1    0    0    0  0.10074265975E-02 -0.10193247741E-02 -0.10228335421E-02  0.17607157066E-02  0.00000000000E+00 0.  1.
         14    1    1    0    0    0  0.76595189106E-03  0.17103458210E-03 -0.19219800542E-05  0.78481769966E-03  0.00000000000E+00 0.  1.
     999901    1    1    0    0    0 -0.24406845425E-02 -0.94951879543E-02  0.13291778067E-01  0.90015153552E+00  0.90000000000E+00 0. -1.
     999903    1    1    0    0    0 -0.18566646870E-03  0.52834511927E-02 -0.11432037728E-01  0.23635583664E-01  0.20000000000E-01 0.  0.
</event>
<event>
 7    1  0.5676831E-066  0.9118800E+02  0.7957747E-01            NaN
     999900   -1    0    0    0    0  0.00000000000E+00  0.00000000000E+00  0.99999998245E-14  0.93827000000E+00  0.93827000000E+00 0. -1.
        -11    1    1    0    0    0 -0.42353018259E-02  0.15064470303E-02 -0.12750532128E-02  0.47004303960E-02  0.51100000000E-03 0. -1.
        -14    1    1    0    0    0  0.13909336526E-03  0.12127925055E-02 -0.11209228998E-02  0.16573113084E-02  0.00000000000E+00 0. -1.
         12    1    1    0    0    0  0.30446467208E-02 -0.94397825552E-03 -0.21990368564E-03  0.31952036292E-02  0.00000000000E+00 0.  1.
         14    1    1    0    0    0  0.75950382579E-03 -0.17225405107E-02 -0.27983178537E-02  0.33726213370E-02  0.00000000000E+00 0.  1.
     999901    1    1    0    0    0 -0.62247930771E-02 -0.40950599451E-02 -0.80083781679E-02  0.90006647070E+00  0.90000000000E+00 0. -1.
     999903    1    1    0    0    0  0.65168509912E-02  0.40423391756E-02  0.13422575820E-01  0.25277962625E-01  0.20000000000E-01 0.  0.
</event>
<event>
 7    1  0.5676831E-066  0.9118800E+02  0.7957747E-01            NaN
     999900   -1    0    0    0    0  0.00000000000E+00  0.00000000000E+00  0.99999998245E-14  0.93827000000E+00  0.93827000000E+00 0.  1.
        -11    1    1    0    0    0 -0.17017596582E-02  0.94261011357E-03 -0.16250092057E-02  0.25857833782E-02  0.51100000000E-03 0. -1.
        -14    1    1    0    0    0  0.18132662846E-02 -0.53133325108E-02  0.32605769257E-02  0.64923646599E-02  0.00000000000E+00 0. -1.
         12    1    1    0    0    0 -0.21879228527E-02  0.42427737840E-02 -0.24677813519E-02  0.53738329517E-02  0.00000000000E+00 0.  1.
         14    1    1    0    0    0  0.11539635721E-02  0.67675233221E-03  0.15993903559E-02  0.20851079482E-02  0.00000000000E+00 0.  1.
     999901    1    1    0    0    0 -0.25058893417E-03 -0.88259438101E-02 -0.14738376694E-02  0.90004451683E+00  0.90000000000E+00 0.  1.
     999903    1    1    0    0    0  0.11730415884E-02  0.82771400910E-02  0.70666094536E-03  0.21688394232E-01  0.20000000000E-01 0.  0.
</event>
<event>
 7    1  0.5676831E-066  0.9118800E+02  0.7957747E-01            NaN
     999900   -1    0    0    0    0  0.00000000000E+00  0.00000000000E+00  0.99999998245E-14  0.93827000000E+00  0.93827000000E+00 0. -1.
        -11    1    1    0    0    0  0.34866614974E-02 -0.29359190805E-02  0.81975656564E-03  0.46593509281E-02  0.51100000000E-03 0. -1.
        -14    1    1    0    0    0 -0.15780349621E-02  0.12489363635E-02 -0.35260182594E-02  0.40599065442E-02  0.00000000000E+00 0. -1.
         12    1    1    0    0    0  0.18495523459E-02 -0.76425126806E-03 -0.22888591347E-02  0.30403618238E-02  0.00000000000E+00 0.  1.
         14    1    1    0    0    0  0.23729073676E-02  0.24569011720E-02  0.17450769515E-02  0.38356676486E-02  0.00000000000E+00 0.  1.
     999901    1    1    0    0    0 -0.15245431581E-01  0.30502416176E-02  0.70471860039E-02  0.90016186877E+00  0.90000000000E+00 0. -1.
     999903    1    1    0    0    0  0.91143453322E-02 -0.30559088045E-02 -0.37971421269E-02  0.22512844285E-01  0.20000000000E-01 0.  0.
</event>
<event>
 7    1  0.5676831E-066  0.9118800E+02  0.7957747E-01            NaN
     999900   -1    0    0    0    0  0.00000000000E+00  0.00000000000E+00  0.99999998245E-14  0.93827000000E+00  0.93827000000E+00 0. -1.
        -11    1    1    0    0    0 -0.18669763519E-02  0.83798847731E-03  0.31504394891E-02  0.37913342455E-02  0.51100000000E-03 0. -1.
        -14    1    1    0    0    0 -0.42764911250E-03  0.86266020456E-03 -0.13150672842E-02  0.16298675879E-02  0.00000000000E+00 0. -1.
         12    1    1    0    0    0 -0.38760277274E-03 -0.25816055164E-03  0.29900165973E-03  0.55343000676E-03  0.00000000000E+00 0.  1.
         14    1    1    0    0    0  0.21835085283E-02  0.49459068136E-02  0.14314466028E-02  0.55927402120E-02  0.00000000000E+00 0.  1.
     999901    1    1    0    0    0 -0.86178271507E-02 -0.14966671133E-01  0.84918193899E-02  0.90020574270E+00  0.90000000000E+00 0.  1.
     999903    1    1    0    0    0  0.91165468596E-02  0.85782761896E-02 -0.12057639857E-01  0.26496885250E-01  0.20000000000E-01 0.  0.
</event>
<event>
 7    1  0.5676831E-066  0.9118800E+02  0.7957747E-01            NaN
     999900   -1    0    0    0    0  0.00000000000E+00  0.00000000000E+00  0.99999998245E-14  0.93827000000E+00  0.93827000000E+00 0. -1.
        -11    1    1    0    0    0  0.26033111249E-03  0.85875226394E-03 -0.13822445252E-02  0.17253836288E-02  0.51100000000E-03 0. -1.
        -14    1    1    0    0    0 -0.36621593462E-02 -0.18284641339E-03  0.37304817518E-02  0.52308066288E-02  0.00000000000E+00 0. -1.
         12    1    1    0    0    0 -0.22279896273E-02 -0.14591247954E-02 -0.54520518928E-03  0.27184980498E-02  0.00000000000E+00 0.  1.
         14    1    1    0    0    0 -0.68408539346E-03 -0.25070579019E-02  0.33534356156E-02  0.42425042813E-02  0.00000000000E+00 0.  1.
     999901    1    1    0    0    0  0.26250192384E-02 -0.74367495199E-02 -0.12791146868E-01  0.90012544093E+00  0.90000000000E+00 0.  1.
     999903    1    1    0    0    0  0.36888840161E-02  0.10727026367E-01  0.76346792148E-02  0.24227366482E-01  0.20000000000E-01 0.  0.
</event>
<event>
 7    1  0.5676831E-066  0.9118800E+02  0.7957747E-01            NaN
     999900   -1    0    0    0    0  0.00000000000E+00  0.00000000000E+00  0.99999998245E-14  0.93827000000E+00  0.93827000000E+00 0.  1.
        -11    1    1    0    0    0  0.34124628178E-03 -0.34414555167E-02  0.19370293623E-02  0.39966572093E-02  0.51100000000E-03 0. -1.
        -14    1    1    0    0    0  0.16427925356E-02 -0.41034396262E-03 -0.17784787347E-02  0.24556335420E-02  0.00000000000E+00 0. -1.
         12    1    1    0    0    0 -0.71054643095E-03  0.11964480842E-02 -0.14447490583E-02  0.20059072985E-02  0.00000000000E+00 0.  1.
         14    1    1    0    0    0 -0.95958418761E-03 -0.65946176592E-02  0.12378405818E-02  0.67780552660E-02  0.00000000000E+00 0.  1.
     999901    1    1    0    0    0 -0.14273803551E-02  0.20017060896E-01 -0.16994157208E-02  0.90022530966E+00  0.90000000000E+00 0.  1.
     999903    1    1    0    0    0  0.11134721562E-02 -0.10767091841E-01  0.17477735698E-02  0.22808437023E-01  0.20000000000E-01 0.  0.
</event>
<event>
 7    1  0.5676831E-066  0.9118800E+02  0.7957747E-01            NaN
     999900   -1    0    0    0    0  0.00000000000E+00  0.00000000000E+00  0.99999998245E-14  0.93827000000E+00  0.93827000000E+00 0. -1.
        -11    1    1    0    0    0 -0.10798013977E-03  0.14237268063E-02 -0.15919116785E-02  0.21986271903E-02  0.51100000000E-03 0. -1.
        -14    1    1    0    0    0 -0.42201927562E-03 -0.20315570037E-02  0.19650830560E-02  0.28577745792E-02  0.00000000000E+00 0. -1.
         12    1    1    0    0    0 -0.30578856413E-02  0.10006560713E-02  0.62790484421E-03  0.32781460709E-02  0.00000000000E+00 0.  1.
         14    1    1    0    0    0  0.21833467112E-02 -0.44434151652E-02 -0.18146107532E-02  0.52729264529E-02  0.00000000000E+00 0.  1.
     999901    1    1    0    0    0  0.14987224552E-01 -0.12332201025E-03  0.12013249807E-02  0.90012558862E+00  0.90000000000E+00 0. -1.
     999903    1    1    0    0    0 -0.13582686206E-01  0.41739113015E-02 -0.38779044919E-03  0.24536937086E-01  0.20000000000E-01 0.  0.
</event>
<event>
 7    1  0.5676831E-066  0.9118800E+02  0.7957747E-01            NaN
     999900   -1    0    0    0    0  0.00000000000E+00  0.00000000000E+00  0.99999998245E-14  0.93827000000E+00  0.93827000000E+00 0.  1.
        -11    1    1    0    0    0  0.17614450416E-03  0.35514947475E-02  0.12385444297E-02  0.37999019898E-02  0.51100000000E-03 0. -1.
        -14    1    1    0    0    0  0.29653098628E-02 -0.16062939528E-02  0.25875042376E-02  0.42506965341E-02  0.00000000000E+00 0. -1.
         12    1    1    0    0    0 -0.94721488700E-03  0.40061994492E-02  0.17962750744E-02  0.44914868598E-02  0.00000000000E+00 0.  1.
         14    1    1    0    0    0  0.23754574207E-02 -0.30574133163E-02 -0.87155934396E-04  0.38727471258E-02  0.00000000000E+00 0.  1.
     999901    1    1    0    0    0 -0.82076583930E-02  0.47711938652E-02 -0.70423955535E-02  0.90007762181E+00  0.90000000000E+00 0. -1.
     999903    1    1    0    0    0  0.36379614924E-02 -0.76651807927E-02  0.15072277463E-02  0.21777545681E-01  0.20000000000E-01 0.  0.
</event>
<event>
 7    1  0.5676831E-066  0.9118800E+02  0.7957747E-01            NaN
     999900   -1    0    0    0    0  0.00000000000E+00  0.00000000000E+00  0.99999998245E-14  0.93827000000E+00  0.93827000000E+00 0.  1.
        -11    1    1    0    0    0 -0.12802589805E-02  0.55977011693E-05  0.55572119781E-03  0.14862844415E-02  0.51100000000E-03 0. -1.
        -14    1    1    0    0    0  0.11613013365E-02 -0.17702609194E-02 -0.19030030432E-02  0.28467288419E-02  0.00000000000E+00 0. -1.
         12    1    1    0    0    0  0.34273871343E-02 -0.46999182360E-02  0.16060127631E-02  0.60345249182E-02  0.00000000000E+00 0.  1.
         14    1    1    0    0    0  0.20382030643E-02  0.14369067214E-02 -0.51386066108E-02  0.57117642246E-02  0.00000000000E+00 0.  1.
     999901    1    1    0    0    0 -0.11422634416E-01  0.42333232747E-02 -0.22685431653E-02  0.90008529812E+00  0.90000000000E+00 0. -1.
     999903    1    1    0    0    0  0.60760018610E-02  0.79435145803E-03  0.71484188584E-02  0.22105399454E-01  0.20000000000E-01 0.  0.
</event>
<event>
 7    1  0.5676831E-066  0.9118800E+02  0.7957747E-01            NaN
     999900   -1    0    0    0    0  0.00000000000E+00  0.00000000000E+00  0.99999998245E-14  0.93827000000E+00  0.93827000000E+00 0. -1.
        -11    1    1    0    0    0 -0.15829314261E-02  0.21516602224E-02 -0.78522980149E-03  0.28307279017E-02  0.51100000000E-03 0. -1.
        -14    1    1    0    0    0  0.30278012581E-02  0.11422547689E-02  0.32407495581E-02  0.45798235898E-02  0.00000000000E+00 0. -1.
         12    1    1    0    0    0  0.73341649553E-04 -0.10095128717E-02  0.29982642080E-03  0.10556472509E-02  0.00000000000E+00 0.  1.
         14    1    1    0    0    0 -0.26435439084E-02  0.28539705590E-02 -0.10333722423E-02  0.40250876436E-02  0.00000000000E+00 0.  1.
     999901    1    1    0    0    0  0.12259853155E-01 -0.13893664089E-01 -0.89227727973E-02  0.90023494365E+00  0.90000000000E+00 0.  1.
     999903    1    1    0    0    0 -0.11134520728E-01  0.87552914102E-02  0.72007988622E-02  0.25543769960E-01  0.20000000000E-01 0.  0.
</event>
<event>
 7    1  0.5676831E-066  0.9118800E+02  0.7957747E-01            NaN
     999900   -1    0    0    0    0  0.00000000000E+00  0.00000000000E+00  0.99999998245E-14  0.93827000000E+00  0.93827000000E+00 0. -1.
        -11    1    1    0    0    0 -0.31340145073E-02 -0.22077019248E-02  0.11196124772E-02  0.40262448783E-02  0.51100000000E-03 0. -1.
        -14    1    1    0    0    0  0.16488949132E-02  0.35188560603E-03 -0.26973739551E-02  0.31809596300E-02  0.00000000000E+00 0. -1.
         12    1    1    0    0    0 -0.46900366201E-02 -0.38467984307E-03 -0.25823044579E-02  0.53677479815E-02  0.00000000000E+00 0.  1.
         14    1    1    0    0    0  0.11373884071E-02 -0.26417749442E-02  0.44512674060E-02  0.52996611934E-02  0.00000000000E+00 0.  1.
     999901    1    1    0    0    0  0.30456466101E-02  0.78033972111E-02  0.10710505381E-02  0.90003961919E+00  0.90000000000E+00 0.  1.
     999903    1    1    0    0    0  0.19921211971E-02 -0.29211261050E-02 -0.13622520083E-02  0.20355767122E-01  0.20000000000E-01 0.  0.
</event>
<event>
 7    1  0.5676831E-066  0.9118800E+02  0.7957747E-01            NaN
     999900   -1    0    0    0    0  0.00000000000E+00  0.00000000000E+00  0.99999998245E-14  0.93827000000E+00  0.93827000000E+00 0.  1.
        -11    1    1    0    0    0 -0.13549581517E-03 -0.20832162162E-03  0.95336883089E-03  0.11098604154E-02  0.51100000000E-03 0. -1.
        -14    1    1    0    0    0  0.79975824901E-03  0.28465720855E-02  0.11275593153E-03  0.29589355848E-02  0.00000000000E+00 0. -1.
         12    1    1    0    0    0  0.23687789235E-02 -0.60000437221E-04  0.19907980694E-04  0.23696223262E-02  0.00000000000E+00 0.  1.
         14    1    1    0    0    0 -0.25258708016E-02  0.38484250555E-03  0.33280362677E-03  0.25766034453E-02  0.00000000000E+00 0.  1.
     999901    1    1    0    0    0 -0.33412286256E-02  0.16134448115E-01 -0.98549160023E-02  0.90020475648E+00  0.90000000000E+00 0.  1.
     999903    1    1    0    0    0  0.28340580698E-02 -0.19097540647E-01  0.84360796325E-02  0.29050221746E-01  0.20000000000E-01 0.  0.
</event>
<event>
 7    1  0.5676831E-066  0.9118800E+02  0.7957747E-01            NaN
     999900   -1    0    0    0    0  0.00000000000E+00  0.00000000000E+00  0.99999998245E-14  0.93827000000E+00  0.93827000000E+00 0.  1.
        -11    1    1    0    0    0 -0.77077069976E-05 -0.47234013295E-03  0.49364621604E-02  0.49852727379E-02  0.51100000000E-03 0. -1.
        -14    1    1    0    0    0 -0.33005866230E-03 -0.46396987604E-03  0.23530562049E-03  0.61609699031E-03  0.00000000000E+00 0. -1.
         12    1    1    0    0    0 -0.34221801971E-02  0.16302633520E-02 -0.36346858637E-02  0.52516680423E-02  0.00000000000E+00 0.  1.
         14    1    1    0    0    0  0.28027792114E-02 -0.15593538290E-02  0.43707856144E-02  0.54213395539E-02  0.00000000000E+00 0.  1.
     999901    1    1    0    0    0 -0.55105017167E-02 -0.30362779598E-02 -0.83147469766E-03  0.90002237526E+00  0.90000000000E+00 0.  1.
     999903    1    1    0    0    0  0.64676690718E-02  0.39016784457E-02 -0.50763928340E-02  0.21973247419E-01  0.20000000000E-01 0.  0.
</event>
<event>
 7    1  0.5676831E-066  0.9118800E+02  0.7957747E-01            NaN
     999900   -1    0    0    0    0  0.00000000000E+00  0.00000000000E+00  0.99999998245E-14  0.93827000000E+00  0.93827000000E+00 0.  1.
        -11    1    1    0    0    0 -0.14337360320E-02  0.26740990237E-02 -0.32551757728E-02  0.44792516015E-02  0.51100000000E-03 0. -1.
        -14    1    1    0    0    0 -0.27816021189E-03 -0.25223380816E-02 -0.43721346089E-04  0.25380059215E-02  0.00000000000E+00 0. -1.
         12    1    1    0    0    0  0.20488106467E-02  0.29933337367E-02  0.54991729543E-03  0.36687982988E-02  0.00000000000E+00 0.  1.
         14    1    1    0    0    0  0.47467630405E-03 -0.25865995806E-02 -0.13289396584E-02  0.29465056592E-02  0.00000000000E+00 0.  1.
     999901    1    1    0    0    0  0.88787123255E-02  0.48241172505E-03  0.14290109228E-01  0.90015735929E+00  0.90000000000E+00 0.  1.
     999903    1    1    0    0    0 -0.96903030324E-02 -0.10409068232E-02 -0.10212189747E-01  0.24480079234E-01  0.20000000000E-01 0.  0.
</event>
<event>
 7    1  0.5676831E-066  0.9118800E+02  0.7957747E-01            NaN
     999900   -1    0    0    0    0  0.00000000000E+00  0.00000000000E+00  0.99999998245E-14  0.93827000000E+00  0.93827000000E+00 0. -1.
        -11    1    1    0    0    0 -0.10530867140E-04  0.21309746080E-02  0.43775617940E-03  0.22347069498E-02  0.51100000000E-03 0. -1.
        -14    1    1    0    0    0  0.20577399241E-03 -0.43309336250E-02 -0.30124012657E-02  0.52795729359E-02  0.00000000000E+00 0. -1.
         12    1    1    0    0    0  0.86294714035E-03  0.19324786500E-02 -0.14379153849E-02  0.25586621805E-02  0.00000000000E+00 0.  1.
         14    1    1    0    0    0  0.12827680819E-02 -0.55334096516E-02 -0.55246946954E-03  0.57069553037E-02  0.00000000000E+00 0.  1.
     999901    1    1    0    0    0  0.24462720786E-02  0.44492504580E-02  0.13283934622E-01  0.90011235021E+00  0.90000000000E+00 0. -1.
     999903    1    1    0    0    0 -0.47872304261E-02  0.13516395605E-02 -0.87189046810E-02  0.22377752423E-01  0.20000000000E-01 0.  0.
</event>
<event>
 7    1  0.5676831E-066  0.9118800E+02  0.7957747E-01            NaN
     999900   -1    0    0    0    0  0.00000000000E+00  0.00000000000E+00  0.99999998245E-14  0.93827000000E+00  0.93827000000E+00 0.  1.
        -11    1    1    0    0    0 -0.53567545443E-02  0.34229565231E-02 -0.20575834268E-02  0.67012104254E-02  0.51100000000E-03 0. -1.
        -14    1    1    0    0    0  0.29846884516E-02  0.87200915606E-03  0.10530670834E-03  0.31112464743E-02  0.00000000000E+00 0. -1.
         12    1    1    0    0    0 -0.26403496046E-04 -0.24015267049E-02 -0.32649216375E-04  0.24018937592E-02  0.00000000000E+00 0.  1.
         14    1    1    0    0    0 -0.13255732928E-02  0.10245379975E-02 -0.27841942549E-02  0.32493938376E-02  0.00000000000E+00 0.  1.
     999901    1    1    0    0    0  0.55862360596E-02  0.76041309300E-02  0.29047289767E-02  0.90005414631E+00  0.90000000000E+00 0.  1.
     999903    1    1    0    0    0 -0.18621931780E-02 -0.10522107902E-01  0.18643912131E-02  0.22752109193E-01  0.20000000000E-01 0.  0.
</event>
<event>
 7    1  0.5676831E-066  0.9118800E+02  0.7957747E-01            NaN
     999900   -1    0    0    0    0  0.00000000000E+00  0.00000000000E+00  0.99999998245E-14  0.93827000000E+00  0.93827000000E+00 0. -1.
        -11    1    1    0    0    0  0.21639852270E-03  0.74520125123E-04  0.36467620382E-04  0.56109932901E-03  0.51100000000E-03 0. -1.
        -14    1    1    0    0    0 -0.26821291899E-02 -0.25974814244E-02  0.37858790659E-03  0.37528729721E-02  0.00000000000E+00 0. -1.
         12    1    1    0    0    0 -0.12731165551E-02 -0.89740489270E-03  0.11692383281E-02  0.19476343529E-02  0.00000000000E+00 0.  1.
         14    1    1    0    0    0 -0.28328452585E-02  0.12828619535E-02 -0.16917679619E-02  0.35401731436E-02  0.00000000000E+00 0.  1.
     999901    1    1    0    0    0 -0.57933348725E-02 -0.68300367459E-02 -0.12905696633E-01  0.90013708352E+00  0.90000000000E+00 0.  1.
     999903    1    1    0    0    0  0.12365027353E-01  0.89675409844E-02  0.13013170739E-01  0.28331136678E-01  0.20000000000E-01 0.  0.
</event>
<event>
 7    1  0.5676831E-066  0.9118800E+02  0.7957747E-01            NaN
     999900   -1    0    0    0    0  0.00000000000E+00  0.00000000000E+00  0.99999998245E-14  0.93827000000E+00  0.93827000000E+00 0. -1.
        -11    1    1    0    0    0 -0.95588105378E-03  0.86558354008E-03 -0.37090130967E-03  0.14358385130E-02  0.51100000000E-03 0. -1.
        -14    1    1    0    0    0  0.11053425938E-02 -0.18563416886E-03  0.76561946897E-03  0.13573560570E-02  0.00000000000E+00 0. -1.
         12    1    1    0    0    0 -0.35641608140E-02  0.11816300064E-03  0.38609787465E-02  0.52558882868E-02  0.00000000000E+00 0.  1.
         14    1    1    0    0    0  0.26186058194E-02 -0.38644822413E-03 -0.39802658731E-02  0.47800580633E-02  0.00000000000E+00 0.  1.
     999901    1    1    0    0    0 -0.98265993520E-02 -0.10056401142E-01  0.56327224521E-02  0.90012744699E+00  0.90000000000E+00 0. -1.
     999903    1    1    0    0    0  0.10622692807E-01  0.96447369938E-02 -0.59081534848E-02  0.25313412092E-01  0.20000000000E-01 0.  0.
</event>
<event>
 7    1  0.5676831E-066  0.9118800E+02  0.7957747E-01            NaN
     999900   -1    0    0    0    0  0.00000000000E+00  0.00000000000E+00  0.99999998245E-14  0.93827000000E+00  0.93827000000E+00 0. -1.
        -11    1    1    0    0    0  0.58212884799E-02  0.57551421800E-02 -0.16629612072E-02  0.83687288195E-02  0.51100000000E-03 0. -1.
        -14    1    1    0    0    0 -0.32574669899E-02  0.15521293351E-02  0.13058085110E-02  0.38373600991E-02  0.00000000000E+00 0. -1.
         12    1    1    0    0    0  0.16901142847E-02 -0.16104250628E-02  0.84390215074E-03  0.24823629908E-02  0.00000000000E+00 0.  1.
         14    1    1    0    0    0  0.13902344167E-02 -0.22397931737E-03 -0.53604737344E-03  0.15067399426E-02  0.00000000000E+00 0.  1.
     999901    1    1    0    0    0 -0.87449614147E-02  0.96783861860E-03  0.58346067171E-02  0.90006191659E+00  0.90000000000E+00 0.  1.
     999903    1    1    0    0    0  0.31007912234E-02 -0.64407057535E-02 -0.57853087981E-02  0.22012891557E-01  0.20000000000E-01 0.  0.
</event>
<event>
 7    1  0.5676831E-066  0.9118800E+02  0.7957747E-01            NaN
     999900   -1    0    0    0    0  0.00000000000E+00  0.00000000000E+00  0.99999998245E-14  0.93827000000E+00  0.93827000000E+00 0. -1.
        -11    1    1    0    0    0  0.22973405663E-02 -0.42365752018E-03 -0.88057277874E-03  0.25482913473E-02  0.51100000000E-03 0. -1.
        -14    1    1    0    0    0 -0.63615747836E-02 -0.53357797005E-02  0.28258992406E-02  0.87707402913E-02  0.00000000000E+00 0. -1.
         12    1    1    0    0    0  0.11771678136E-02 -0.34041646692E-02  0.44768342912E-03  0.36296668730E-02  0.00000000000E+00 0.  1.
         14    1    1    0    0    0 -0.14133493167E-03 -0.37767762237E-03 -0.37099778647E-03  0.54795557020E-03  0.00000000000E+00 0.  1.
     999901    1    1    0    0    0  0.52009333928E-02  0.30660602155E-02  0.63468092840E-02  0.90004262811E+00  0.90000000000E+00 0. -1.
     999903    1    1    0    0    0 -0.21725320574E-02  0.64752192967E-02 -0.83688213885E-02  0.22730717805E-01  0.20000000000E-01 0.  0.
</event>
<event>
 7    1  0.5676831E-066  0.9118800E+02  0.7957747E-01            NaN
     999900   -1    0    0    0    0  0.00000000000E+00  0.00000000000E+00  0.99999998245E-14  0.93827000000E+00  0.93827000000E+00 0.  1.
        -11    1    1    0    0    0 -0.72382552002E-03 -0.18138694687E-02  0.91259359946E-03  0.22153992667E-02  0.51100000000E-03 0. -1.
        -14    1    1    0    0    0 -0.40213396502E-02  0.10578046232E-02 -0.23032273980E-02  0.47534176810E-02  0.00000000000E+00 0. -1.
         12    1    1    0    0    0 -0.35327261374E-02  0.21377051380E-02 -0.31563388107E-02  0.51973466218E-02  0.00000000000E+00 0.  1.
         14    1    1    0    0    0  0.36402266680E-02 -0.41074693139E-02  0.30948685812E-03  0.54971207440E-02  0.00000000000E+00 0.  1.
     999901    1    1    0    0    0  0.16718256028E-03  0.29649997490E-02  0.21674900597E-02  0.90000750952E+00  0.90000000000E+00 0.  1.
     999903    1    1    0    0    0  0.44704820793E-02 -0.23917072757E-03  0.20699956914E-02  0.20599206170E-01  0.20000000000E-01 0.  0.
</event>
<event>
 7    1  0.5676831E-066  0.9118800E+02  0.7957747E-01            NaN
     999900   -1    0    0    0    0  0.00000000000E+00  0.00000000000E+00  0.99999998245E-14  0.93827000000E+00  0.93827000000E+00 0.  1.
        -11    1    1    0    0    0  0.62590891879E-03  0.80467393904E-03  0.91986018420E-03  0.14651026863E-02  0.51100000000E-03 0. -1.
        -14    1    1    0    0    0  0.21574063894E-02 -0.55834133893E-02 -0.39317332247E-02  0.71615245272E-02  0.00000000000E+00 0. -1.
         12    1    1    0    0    0 -0.14764740523E-02  0.10534935413E-02 -0.91401078006E-03  0.20310686780E-02  0.00000000000E+00 0.  1.
         14    1    1    0    0    0  0.35512863408E-02  0.11859437957E-02 -0.10630668322E-02  0.38920699442E-02  0.00000000000E+00 0.  1.
     999901    1    1    0    0    0 -0.36916998271E-02  0.19041817013E-02 -0.76167459162E-02  0.90004181535E+00  0.90000000000E+00 0. -1.
     999903    1    1    0    0    0 -0.11664277695E-02  0.63512041192E-03  0.12605696569E-01  0.23678418817E-01  0.20000000000E-01 0.  0.
</event>
<event>
 7    1  0.5676831E-066  0.9118800E+02  0.7957747E-01            NaN
     999900   -1    0    0    0    0  0.00000000000E+00  0.00000000000E+00  0.99999998245E-14  0.93827000000E+00  0.93827000000E+00 0. -1.
        -11    1    1    0    0    0 -0.30995133255E-03  0.39695622652E-03  0.83483098362E-03  0.11007760197E-02  0.51100000000E-03 0. -1.
        -14    1    1    0    0    0  0.46698877817E-03  0.27491698425E-03 -0.98670950660E-03  0.11257235529E-02  0.00000000000E+00 0. -1.
         12    1    1    0    0    0  0.89899277524E-03 -0.39294445971E-02 -0.33074543946E-04  0.40311061481E-02  0.00000000000E+00 0.  1.
         14    1    1    0    0    0  0.33975344539E-02 -0.19583923151E-03  0.21624548702E-02  0.40320967791E-02  0.00000000000E+00 0.  1.
     999901    1    1    0    0    0  0.55648397492E-02  0.54876281409E-02  0.14454753808E-01  0.90014999940E+00  0.90000000000E+00 0.  1.
     999903    1    1    0    0    0 -0.10018404424E-01 -0.20342175230E-02 -0.16432255611E-01  0.27830298105E-01  0.20000000000E-01 0.  0.
</event>
<event>
 7    1  0.5676831E-066  0.9118800E+02  0.7957747E-01            NaN
     999900   -1    0    0    0    0  0.00000000000E+00  0.00000000000E+00  0.99999998245E-14  0.93827000000E+00  0.93827000000E+00 0. -1.
        -11    1    1    0    0    0  0.34821068503E-02  0.30991815295E-02 -0.30110090035E-02  0.55729068257E-02  0.51100000000E-03 0. -1.
        -14    1    1    0    0    0  0.19488211894E-02 -0.29449821262E-02 -0.85106150035E-03  0.36325100728E-02  0.00000000000E+00 0. -1.
         12    1    1    0    0    0 -0.14642900758E-02 -0.13175188066E-02  0.39334877642E-03  0.20086623638E-02  0.00000000000E+00 0.  1.
         14    1    1    0    0    0  0.11352032189E-02  0.22552725480E-02  0.14190798154E-02  0.28963301152E-02  0.00000000000E+00 0.  1.
     999901    1    1    0    0    0 -0.33639058681E-02 -0.33725894336E-02  0.15041981484E-01  0.90013829572E+00  0.90000000000E+00 0. -1.
     999903    1    1    0    0    0 -0.17379353146E-02  0.22806362889E-02 -0.12992339572E-01  0.24021294898E-01  0.20000000000E-01 0.  0.
</event>
<event>
 7    1  0.5676831E-066  0.9118800E+02  0.7957747E-01            NaN
     999900   -1    0    0    0    0  0.00000000000E+00  0.00000000000E+00  0.99999998245E-14  0.93827000000E+00  0.93827000000E+00 0. -1.
        -11    1    1    0    0    0 -0.27811518468E-02 -0.45372464965E-02  0.81124553596E-03  0.54074625921E-02  0.51100000000E-03 0. -1.
        -14    1    1    0    0    0  0.12306632923E-02 -0.13554614646E-02  0.70052101793E-03  0.19602391735E-02  0.00000000000E+00 0. -1.
         12    1    1    0    0    0  0.19047271018E-02  0.38302973615E-02  0.21527253968E-02  0.47888818991E-02  0.00000000000E+00 0.  1.
         14    1    1    0    0    0  0.60292429608E-03 -0.27690500791E-02  0.17136798639E-02  0.33117751620E-02  0.00000000000E+00 0.  1.
     999901    1    1    0    0    0  0.91179093424E-02  0.37296687331E-02 -0.15470341405E-02  0.90005524276E+00  0.90000000000E+00 0.  1.
     999903    1    1    0    0    0 -0.10075072186E-01  0.11017919457E-02 -0.38311376741E-02  0.22746398416E-01  0.20000000000E-01 0.  0.
</event>
<event>
 7    1  0.5676831E-066  0.9118800E+02  0.7957747E-01            NaN
     999900   -1    0    0    0    0  0.00000000000E+00  0.00000000000E+00  0.99999998245E-14  0.93827000000E+00  0.93827000000E+00 0.  1.
        -11    1    1    0    0    0  0.56908632988E-03  0.13680411619E-02  0.77116118714E-03  0.17467702906E-02  0.51100000000E-03 0. -1.
        -14    1    1    0    0    0 -0.44746417770E-03  0.32829096653E-03 -0.64122157482E-03  0.84803552817E-03  0.00000000000E+00 0. -1.
         12    1    1    0    0    0 -0.29475131637E-02 -0.81832992621E-03  0.10409769737E-02  0.32312738631E-02  0.00000000000E+00 0.  1.
         14    1    1    0    0    0  0.87055230572E-02  0.26349582795E-02 -0.94534046349E-03  0.91445505863E-02  0.00000000000E+00 0.  1.
     999901    1    1    0    0    0  0.26194014116E-02  0.47698657032E-02  0.88582178559E-03  0.90001688738E+00  0.90000000000E+00 0.  1.
     999903    1    1    0    0    0 -0.84990334573E-02 -0.82828261850E-02 -0.11113979082E-02  0.23282482355E-01  0.20000000000E-01 0.  0.
</event>
<event>
 7    1  0.5676831E-066  0.9118800E+02  0.7957747E-01            NaN
     999900   -1    0    0    0    0  0.00000000000E+00  0.00000000000E+00  0.99999998245E-14  0.93827000000E+00  0.93827000000E+00 0.  1.
        -11    1    1    0    0    0 -0.15315168944E-02  0.25310559995E-03  0.13632553547E-02  0.21281899833E-02  0.51100000000E-03 0. -1.
        -14    1    1    0    0    0 -0.90770145843E-03 -0.25157202574E-02 -0.31020520061E-02  0.40957901557E-02  0.00000000000E+00 0. -1.
         12    1    1    0    0    0  0.31241445700E-02 -0.60622549555E-03 -0.26838409291E-02  0.41630266367E-02  0.00000000000E+00 0.  1.
         14    1    1    0    0    0  0.88703618246E-03 -0.19329029276E-02 -0.57554817566E-03  0.22032255035E-02  0.00000000000E+00 0.  1.
     999901    1    1    0    0    0 -0.12251138594E-01 -0.30732945420E-02  0.13578073322E-01  0.90019103506E+00  0.90000000000E+00 0. -1.
     999903    1    1    0    0    0  0.10679176195E-01  0.78750376226E-02 -0.85798875658E-02  0.25488732656E-01  0.20000000000E-01 0.  0.
</event>
<event>
 7    1  0.5676831E-066  0.9118800E+02  0.7957747E-01            NaN
     999900   -1    0    0    0    0  0.00000000000E+00  0.00000000000E+00  0.99999998245E-14  0.93827000000E+00  0.93827000000E+00 0. -1.
        -11    1    1    0    0    0 -0.14623106276E-02 -0.77020151646E-03 -0.15786523821E-02  0.23419707708E-02  0.51100000000E-03 0. -1.
        -14    1    1    0    0    0  0.60524667036E-03 -0.63300969587E-03  0.10863677284E-02  0.13954281236E-02  0.00000000000E+00 0. -1.
         12    1    1    0    0    0 -0.16037524257E-03 -0.40801200904E-02  0.20051437248E-02  0.45490330322E-02  0.00000000000E+00 0.  1.
         14    1    1    0    0    0  0.57199145126E-03 -0.40358447911E-04 -0.42260709920E-02  0.42647953121E-02  0.00000000000E+00 0.  1.
     999901    1    1    0    0    0  0.40761340479E-02 -0.80132163348E-02 -0.51582022526E-02  0.90005968333E+00  0.90000000000E+00 0.  1.
     999903    1    1    0    0    0 -0.36306862994E-02  0.13536906085E-01  0.78714141736E-02  0.25659089432E-01  0.20000000000E-01 0.  0.
</event>
<event>
 7    1  0.5676831E-066  0.9118800E+02  0.7957747E-01            NaN
     999900   -1    0    0    0    0  0.00000000000E+00  0.00000000000E+00  0.99999998245E-14  0.93827000000E+00  0.93827000000E+00 0.  1.
        -11    1    1    0    0    0  0.20576006278E-02  0.38091197056E-02 -0.69524226844E-02  0.82061206095E-02  0.51100000000E-03 0. -1.
        -14    1    1    0    0    0 -0.58622204613E-03  0.16444126026E-02  0.11552133650E-02  0.20933864941E-02  0.00000000000E+00 0. -1.
         12    1    1    0    0    0 -0.20210414336E-02 -0.99484548029E-04  0.31768493797E-02  0.37665471765E-02  0.00000000000E+00 0.  1.
         14    1    1    0    0    0  0.47699089441E-04  0.27694997839E-02  0.15967390753E-02  0.31971831244E-02  0.00000000000E+00 0.  1.
     999901    1    1    0    0    0 -0.11345754783E-03 -0.19875863045E-02  0.27516591648E-02  0.90000640831E+00  0.90000000000E+00 0.  1.
     999903    1    1    0    0    0  0.61542131029E-03 -0.61359612395E-02 -0.17280383004E-02  0.21000354285E-01  0.20000000000E-01 0.  0.
</event>
<event>
 7    1  0.5676831E-066  0.9118800E+02  0.7957747E-01            NaN
     999900   -1    0    0    0    0  0.00000000000E+00  0.00000000000E+00  0.99999998245E-14  0.93827000000E+00  0.93827000000E+00 0. -1.
        -11    1    1    0    0    0  0.22920234814E-02 -0.24496509957E-02  0.21340598145E-02  0.40086773294E-02  0.51100000000E-03 0. -1.
        -14    1    1    0    0    0 -0.29016105076E-02  0.74824691092E-03 -0.12461191609E-02  0.32453089129E-02  0.00000000000E+00 0. -1.
         12    1    1    0    0    0  0.52006881162E-02  0.44142620897E-02  0.45071310818E-02  0.81760074160E-02  0.00000000000E+00 0.  1.
         14    1    1    0    0    0 -0.50564993693E-03 -0.86120250128E-03 -0.19123613384E-02  0.21574238099E-02  0.00000000000E+00 0.  1.
     999901    1    1    0    0    0 -0.55724355461E-02 -0.44097345851E-02  0.74127493312E-03  0.90002835916E+00  0.90000000000E+00 0. -1.
     999903    1    1    0    0    0  0.14869843930E-02  0.25580790815E-02 -0.42239853300E-02  0.20654223375E-01  0.20000000000E-01 0.  0.
</event>
<event>
 7    1  0.5676831E-066  0.9118800E+02  0.7957747E-01            NaN
     999900   -1    0    0    0    0  0.00000000000E+00  0.00000000000E+00  0.99999998245E-14  0.93827000000E+00  0.93827000000E+00 0. -1.
        -11    1    1    0    0    0 -0.42546644493E-03  0.13165250291E-02  0.34342203497E-03  0.15143710054E-02  0.51100000000E-03 0.  1.
        -14    1    1    0    0    0  0.45356279601E-02  0.42174775390E-03  0.36464618614E-02  0.58349358409E-02  0.00000000000E+00 0. -1.
         12    1    1    0    0    0  0.86060042711E-04  0.85890121100E-03 -0.16337368950E-03  0.87852637048E-03  0.00000000000E+00 0.  1.
         14    1    1    0    0    0  0.40755178656E-02 -0.14964176986E-02 -0.25205135074E-02  0.50201693340E-02  0.00000000000E+00 0.  1.
     999901    1    1    0    0    0 -0.79791313308E-02 -0.15834108644E-01 -0.84320946054E-03  0.90017503661E+00  0.90000000000E+00 0.  1.
     999903    1    1    0    0    0 -0.29260809270E-03  0.14733352349E-01 -0.46278723895E-03  0.24846960839E-01  0.20000000000E-01 0.  0.
</event>
<event>
 7    1  0.1304948E-065  0.9118800E+02  0.7957747E-01            NaN
     999900   -1    0    0    0    0  0.00000000000E+00  0.00000000000E+00  0.99999998245E-14  0.93827000000E+00  0.93827000000E+00 0.  1.
        -11    1    1    0    0    0 -0.68424587061E-02  0.19094989905E-02  0.33806149127E-02  0.78838509453E-02  0.51100000000E-03 0. -1.
        -14    1    1    0    0    0  0.53014894036E-02  0.25769176889E-02  0.22280353490E-02  0.63016217110E-02  0.00000000000E+00 0. -1.
         12    1    1    0    0    0  0.13557668330E-02 -0.11223272279E-02  0.14640854494E-02  0.22893816447E-02  0.00000000000E+00 0.  1.
         14    1    1    0    0    0 -0.31863720170E-03  0.57857605504E-03  0.61921365733E-03  0.90537587289E-03  0.00000000000E+00 0.  1.
     999901    1    1    0    0    0 -0.48998718415E-02 -0.26405817801E-02 -0.56873690292E-02  0.90003518130E+00  0.90000000000E+00 0. -1.
     999903    1    1    0    0    0  0.54037115127E-02 -0.13020837265E-02 -0.20045803394E-02  0.20854588523E-01  0.20000000000E-01 0.  0.
</event>
<event>
 7    1  0.5676831E-066  0.9118800E+02  0.7957747E-01            NaN
     999900   -1    0    0    0    0  0.00000000000E+00  0.00000000000E+00  0.99999998245E-14  0.93827000000E+00  0.93827000000E+00 0. -1.
        -11    1    1    0    0    0  0.29882640528E-02  0.29132607207E-02 -0.30334481735E-02  0.51845673780E-02  0.51100000000E-03 0. -1.
        -14    1    1    0    0    0 -0.41837632723E-02  0.48755687744E-02 -0.98591234888E-04  0.64253222662E-02  0.00000000000E+00 0. -1.
         12    1    1    0    0    0 -0.25740328439E-03  0.61017402434E-03  0.94389490555E-03  0.11530422297E-02  0.00000000000E+00 0.  1.
         14    1    1    0    0    0  0.72934616647E-03 -0.92684596735E-03 -0.39969124154E-04  0.11800791535E-02  0.00000000000E+00 0.  1.
     999901    1    1    0    0    0  0.83484673621E-02 -0.10216846935E-01  0.13038603187E-01  0.90019113862E+00  0.90000000000E+00 0. -1.
     999903    1    1    0    0    0 -0.76249110246E-02  0.27446893828E-02 -0.10810489560E-01  0.24135850357E-01  0.20000000000E-01 0.  0.
</event>
<event>
 7    1  0.5676831E-066  0.9118800E+02  0.7957747E-01            NaN
     999900   -1    0    0    0    0  0.00000000000E+00  0.00000000000E+00  0.99999998245E-14  0.93827000000E+00  0.93827000000E+00 0. -1.
        -11    1    1    0    0    0 -0.22352641314E-02  0.39654099857E-02  0.23945409586E-02  0.51687357733E-02  0.51100000000E-03 0. -1.
        -14    1    1    0    0    0 -0.52653985604E-03 -0.15876721115E-02  0.10658869131E-02  0.19834469655E-02  0.00000000000E+00 0. -1.
         12    1    1    0    0    0  0.63736988757E-03 -0.58434519392E-05 -0.16921882342E-02  0.18082520675E-02  0.00000000000E+00 0.  1.
         14    1    1    0    0    0  0.36463755218E-02  0.35866982882E-04  0.20088850233E-02  0.41632871536E-02  0.00000000000E+00 0.  1.
     999901    1    1    0    0    0  0.26528948977E-02 -0.99497937493E-02 -0.15942678437E-01  0.90020009178E+00  0.90000000000E+00 0.  1.
     999903    1    1    0    0    0 -0.41748363196E-02  0.75420323442E-02  0.12165553777E-01  0.24946186259E-01  0.20000000000E-01 0.  0.
</event>
<event>
 7    1  0.5676831E-066  0.9118800E+02  0.7957747E-01            NaN
     999900   -1    0    0    0    0  0.00000000000E+00  0.00000000000E+00  0.99999998245E-14  0.93827000000E+00  0.93827000000E+00 0. -1.
        -11    1    1    0    0    0 -0.12672486386E-02 -0.56270249225E-03  0.94449546447E-03  0.17537804564E-02  0.51100000000E-03 0. -1.
        -14    1    1    0    0    0 -0.12411680142E-02  0.47810608768E-02 -0.66462252627E-04  0.49399856658E-02  0.00000000000E+00 0. -1.
         12    1    1    0    0    0 -0.16624984843E-02 -0.70265805720E-03 -0.11517437334E-03  0.18085614980E-02  0.00000000000E+00 0.  1.
         14    1    1    0    0    0  0.14396026453E-02  0.76601439494E-03  0.20724807092E-02  0.26371215595E-02  0.00000000000E+00 0.  1.
     999901    1    1    0    0    0 -0.12304131990E-01  0.23321686986E-02  0.49620517157E-02  0.90010080137E+00  0.90000000000E+00 0. -1.
     999903    1    1    0    0    0  0.15035444482E-01 -0.66138834209E-02 -0.77973912634E-02  0.27029749447E-01  0.20000000000E-01 0.  0.
</event>
<event>
 7    1  0.5676831E-066  0.9118800E+02  0.7957747E-01            NaN
     999900   -1    0    0    0    0  0.00000000000E+00  0.00000000000E+00  0.99999998245E-14  0.93827000000E+00  0.93827000000E+00 0.  1.
        -11    1    1    0    0    0  0.11475476439E-02 -0.20528857979E-03  0.36193436839E-02  0.38366363781E-02  0.51100000000E-03 0. -1.
        -14    1    1    0    0    0  0.20791573314E-02 -0.24926305223E-02 -0.23871657354E-02  0.40292260271E-02  0.00000000000E+00 0. -1.
         12    1    1    0    0    0 -0.24317271620E-03  0.24762198879E-02 -0.26893923615E-02  0.36638271217E-02  0.00000000000E+00 0.  1.
         14    1    1    0    0    0 -0.33876834427E-02 -0.39980241320E-02 -0.19215662873E-02  0.55814884273E-02  0.00000000000E+00 0.  1.
     999901    1    1    0    0    0  0.45267137058E-02  0.36817247974E-02 -0.20536840324E-02  0.90002125744E+00  0.90000000000E+00 0.  1.
     999903    1    1    0    0    0 -0.41225625222E-02  0.53799854871E-03  0.54324647328E-02  0.21137564601E-01  0.20000000000E-01 0.  0.
</event>
<event>
 7    1  0.5676831E-066  0.9118800E+02  0.7957747E-01            NaN
     999900   -1    0    0    0    0  0.00000000000E+00  0.00000000000E+00  0.99999998245E-14  0.93827000000E+00  0.93827000000E+00 0. -1.
        -11    1    1    0    0    0  0.27644298447E-02 -0.13282072485E-02  0.70067737782E-03  0.31872051470E-02  0.51100000000E-03 0. -1.
        -14    1    1    0    0    0 -0.44080488996E-03 -0.21511116886E-02 -0.15366220264E-02  0.26800741968E-02  0.00000000000E+00 0. -1.
         12    1    1    0    0    0  0.39360866457E-02  0.14269717384E-02  0.13566616534E-02  0.44010859190E-02  0.00000000000E+00 0.  1.
         14    1    1    0    0    0 -0.27686870862E-02  0.13860575376E-02 -0.23649741926E-02  0.38961373962E-02  0.00000000000E+00 0.  1.
     999901    1    1    0    0    0  0.46625742176E-03 -0.10890317918E-01 -0.34809903977E-02  0.90007273801E+00  0.90000000000E+00 0.  1.
     999903    1    1    0    0    0 -0.39572819361E-02  0.11556607579E-01  0.53252475855E-02  0.24032759328E-01  0.20000000000E-01 0.  0.
</event>
<event>
 7    1  0.5676831E-066  0.9118800E+02  0.7957747E-01            NaN
     999900   -1    0    0    0    0  0.00000000000E+00  0.00000000000E+00  0.99999998245E-14  0.93827000000E+00  0.93827000000E+00 0. -1.
        -11    1    1    0    0    0 -0.89000731442E-03 -0.11972259520E-02 -0.62223276018E-03  0.16952160947E-02  0.51100000000E-03 0. -1.
        -14    1    1    0    0    0  0.41013223992E-02  0.42880880957E-03  0.10579258580E-02  0.42572208703E-02  0.00000000000E+00 0. -1.
         12    1    1    0    0    0 -0.81872161067E-03 -0.99053892192E-03 -0.31206868132E-02  0.33749309056E-02  0.00000000000E+00 0.  1.
         14    1    1    0    0    0  0.24105528364E-02 -0.38966597965E-02 -0.61131268706E-03  0.46225994579E-02  0.00000000000E+00 0.  1.
     999901    1    1    0    0    0  0.72191738270E-02 -0.25113063168E-03  0.36095912486E-04  0.90002898889E+00  0.90000000000E+00 0.  1.
     999903    1    1    0    0    0 -0.12022320138E-01  0.59067464924E-02  0.32602104899E-02  0.24291043783E-01  0.20000000000E-01 0.  0.
</event>
<event>
 7    1  0.5676831E-066  0.9118800E+02  0.7957747E-01            NaN
     999900   -1    0    0    0    0  0.00000000000E+00  0.00000000000E+00  0.99999998245E-14  0.93827000000E+00  0.93827000000E+00 0. -1.
        -11    1    1    0    0    0  0.36118431113E-02 -0.78944452949E-03 -0.23919969192E-02  0.44329903663E-02  0.51100000000E-03 0. -1.
        -14    1    1    0    0    0  0.80522764888E-03  0.10990243141E-02  0.47688169739E-03  0.14434895783E-02  0.00000000000E+00 0. -1.
         12    1    1    0    0    0 -0.62975510564E-02 -0.27739667326E-03  0.40808893930E-02  0.75093113173E-02  0.00000000000E+00 0.  1.
         14    1    1    0    0    0 -0.25772485516E-03  0.23611214692E-02 -0.61755908448E-03  0.24541181545E-02  0.00000000000E+00 0.  1.
     999901    1    1    0    0    0 -0.20932355452E-02 -0.11383063717E-01 -0.24971224780E-02  0.90007788074E+00  0.90000000000E+00 0.  1.
     999903    1    1    0    0    0  0.42314406966E-02  0.89897591370E-02  0.94890739128E-03  0.22352209845E-01  0.20000000000E-01 0.  0.
</event>
<event>
 7    1  0.5676831E-066  0.9118800E+02  0.7957747E-01            NaN
     999900   -1    0    0    0    0  0.00000000000E+00  0.00000000000E+00  0.99999998245E-14  0.93827000000E+00  0.93827000000E+00 0. -1.
        -11    1    1    0    0    0 -0.80106809724E-04 -0.21617825833E-02  0.34880961386E-02  0.41361403156E-02  0.51100000000E-03 0. -1.
        -14    1    1    0    0    0  0.14746346456E-02  0.20720281387E-02 -0.47014020518E-02  0.53451874802E-02  0.00000000000E+00 0. -1.
         12    1    1    0    0    0  0.25718827759E-02  0.89767171652E-03  0.28701366001E-02  0.39570291415E-02  0.00000000000E+00 0.  1.
         14    1    1    0    0    0 -0.16502484778E-02 -0.13180276778E-02 -0.19464079653E-02  0.28721108902E-02  0.00000000000E+00 0.  1.
     999901    1    1    0    0    0  0.44027982609E-02  0.15041230540E-02 -0.56090361184E-02  0.90002950413E+00  0.90000000000E+00 0.  1.
     999903    1    1    0    0    0 -0.67189603948E-02 -0.99401264816E-03  0.58986133968E-02  0.21930028042E-01  0.20000000000E-01 0.  0.
</event>
<event>
 7    1  0.5676831E-066  0.9118800E+02  0.7957747E-01            NaN
     999900   -1    0    0    0    0  0.00000000000E+00  0.00000000000E+00  0.99999998245E-14  0.93827000000E+00  0.93827000000E+00 0.  1.
        -11    1    1    0    0    0 -0.50267437624E-02 -0.21291911244E-02  0.12174329416E-02  0.56164821431E-02  0.51100000000E-03 0. -1.
        -14    1    1    0    0    0  0.76867439446E-03 -0.84690888509E-03 -0.21877606280E-02  0.24686861991E-02  0.00000000000E+00 0. -1.
         12    1    1    0    0    0  0.13395152352E-02  0.38701810002E-02 -0.47802567355E-02  0.62947165542E-02  0.00000000000E+00 0.  1.
         14    1    1    0    0    0 -0.10368241014E-02 -0.62258708286E-03  0.11353119089E-02  0.16587802818E-02  0.00000000000E+00 0.  1.
     999901    1    1    0    0    0 -0.43214772648E-02 -0.49594813616E-02  0.59586742216E-02  0.90004376417E+00  0.90000000000E+00 0.  1.
     999903    1    1    0    0    0  0.82768554989E-02  0.46879874538E-02 -0.13434017085E-02  0.22187570653E-01  0.20000000000E-01 0.  0.
</event>
<event>
 7    1  0.5676831E-066  0.9118800E+02  0.7957747E-01            NaN
     999900   -1    0    0    0    0  0.00000000000E+00  0.00000000000E+00  0.99999998245E-14  0.93827000000E+00  0.93827000000E+00 0.  1.
        -11    1    1    0    0    0 -0.10345889984E-03 -0.45286636055E-03  0.53450893345E-03  0.87327686584E-03  0.51100000000E-03 0. -1.
        -14    1    1    0    0    0 -0.12886075792E-03  0.27609715305E-02 -0.44470679616E-03  0.27995237134E-02  0.00000000000E+00 0. -1.
         12    1    1    0    0    0 -0.90340489166E-03 -0.52032189738E-02  0.26414762327E-02  0.59048306306E-02  0.00000000000E+00 0.  1.
         14    1    1    0    0    0 -0.24548550581E-02  0.26014469943E-02  0.43686327793E-02  0.56461307265E-02  0.00000000000E+00 0.  1.
     999901    1    1    0    0    0  0.23973354998E-02 -0.76857069529E-02  0.92222483140E-03  0.90003648138E+00  0.90000000000E+00 0. -1.
     999903    1    1    0    0    0  0.11932441077E-02  0.79793737624E-02 -0.80221359806E-02  0.23009756688E-01  0.20000000000E-01 0.  0.
</event>
<event>
 7    1  0.5676831E-066  0.9118800E+02  0.7957747E-01            NaN
     999900   -1    0    0    0    0  0.00000000000E+00  0.00000000000E+00  0.99999998245E-14  0.93827000000E+00  0.93827000000E+00 0. -1.
        -11    1    1    0    0    0  0.19420715451E-02  0.17158446631E-02  0.24182324783E-02  0.35811637931E-02  0.51100000000E-03 0. -1.
        -14    1    1    0    0    0 -0.27295465240E-02  0.14460993381E-02 -0.17241457677E-02  0.35375565226E-02  0.00000000000E+00 0. -1.
         12    1    1    0    0    0  0.91012599513E-03 -0.46807251813E-02  0.74156511903E-03  0.48257057904E-02  0.00000000000E+00 0.  1.
         14    1    1    0    0    0 -0.38384055554E-02 -0.16124049462E-02  0.12067546090E-02  0.43346814882E-02  0.00000000000E+00 0.  1.
     999901    1    1    0    0    0  0.79427785877E-02  0.10199976785E-01  0.77437788662E-03  0.90009317680E+00  0.90000000000E+00 0. -1.
     999903    1    1    0    0    0 -0.42270240485E-02 -0.70687906591E-02 -0.34167843252E-02  0.21897715607E-01  0.20000000000E-01 0.  0.
</event>
<event>
 7    1  0.5676831E-066  0.9118800E+02  0.7957747E-01            NaN
     999900   -1    0    0    0    0  0.00000000000E+00  0.00000000000E+00  0.99999998245E-14  0.93827000000E+00  0.93827000000E+00 0. -1.
        -11    1    1    0    0    0 -0.32788436949E-03 -0.19823845810E-02  0.20812138217E-02  0.29376740388E-02  0.51100000000E-03 0. -1.
        -14    1    1    0    0    0 -0.37378014550E-02 -0.21331681849E-03  0.25379438502E-02  0.45230324749E-02  0.00000000000E+00 0. -1.
         12    1    1    0    0    0  0.27521363695E-02 -0.37694337609E-03 -0.55887427648E-02  0.62410244829E-02  0.00000000000E+00 0.  1.
         14    1    1    0    0    0 -0.30672063012E-02  0.18640391103E-02  0.42641478048E-03  0.36144468268E-02  0.00000000000E+00 0.  1.
     999901    1    1    0    0    0  0.59167412007E-02  0.52259871141E-02 -0.32774793120E-02  0.90004058833E+00  0.90000000000E+00 0.  1.
     999903    1    1    0    0    0 -0.15359854446E-02 -0.45173814489E-02  0.38206496243E-02  0.20913233848E-01  0.20000000000E-01 0.  0.
</event>
<event>
 7    1  0.5676831E-066  0.9118800E+02  0.7957747E-01            NaN
     999900   -1    0    0    0    0  0.00000000000E+00  0.00000000000E+00  0.99999998245E-14  0.93827000000E+00  0.93827000000E+00 0.  1.
        -11    1    1    0    0    0 -0.53174953405E-03 -0.66845422646E-03  0.49066249985E-02  0.50065635415E-02  0.51100000000E-03 0. -1.
        -14    1    1    0    0    0  0.79145319531E-03 -0.10699835356E-02 -0.59199994267E-03  0.14566148629E-02  0.00000000000E+00 0. -1.
         12    1    1    0    0    0 -0.20662762916E-03  0.39329730485E-02 -0.43236246029E-02  0.58484785786E-02  0.00000000000E+00 0.  1.
         14    1    1    0    0    0  0.18116897572E-02 -0.19040868720E-03 -0.91870313025E-03  0.20402182937E-02  0.00000000000E+00 0.  1.
     999901    1    1    0    0    0 -0.92765379608E-02  0.73097289225E-03  0.11129783412E-01  0.90011691494E+00  0.90000000000E+00 0.  1.
     999903    1    1    0    0    0  0.74117721716E-02 -0.27350994915E-02 -0.10202080734E-01  0.23801209786E-01  0.20000000000E-01 0.  0.
</event>
<event>
 7    1  0.5676831E-066  0.9118800E+02  0.7957747E-01            NaN
     999900   -1    0    0    0    0  0.00000000000E+00  0.00000000000E+00  0.99999998245E-14  0.93827000000E+00  0.93827000000E+00 0. -1.
        -11    1    1    0    0    0  0.13566615909E-02  0.20173602620E-02 -0.10296196230E-02  0.26891468289E-02  0.51100000000E-03 0. -1.
        -14    1    1    0    0    0 -0.10234295097E-02 -0.53905303470E-04 -0.39621720278E-04  0.10256137791E-02  0.00000000000E+00 0. -1.
         12    1    1    0    0    0  0.13598050029E-02 -0.11983963207E-02 -0.20905086452E-02  0.27668483484E-02  0.00000000000E+00 0.  1.
         14    1    1    0    0    0 -0.44943819347E-02  0.34200739265E-02 -0.17375806866E-02  0.59089390994E-02  0.00000000000E+00 0.  1.
     999901    1    1    0    0    0  0.16687333221E-01  0.38559903616E-02  0.29996667060E-02  0.90016794753E+00  0.90000000000E+00 0.  1.
     999903    1    1    0    0    0 -0.13885988371E-01 -0.80411229259E-02  0.18976639690E-02  0.25711504419E-01  0.20000000000E-01 0.  0.
</event>
<event>
 7    1  0.5676831E-066  0.9118800E+02  0.7957747E-01            NaN
     999900   -1    0    0    0    0  0.00000000000E+00  0.00000000000E+00  0.99999998245E-14  0.93827000000E+00  0.93827000000E+00 0. -1.
        -11    1    1    0    0    0 -0.32568908152E-02 -0.34647543542E-04  0.29375579122E-02  0.44157565289E-02  0.51100000000E-03 0. -1.
        -14    1    1    0    0    0  0.30983076567E-02 -0.37819260446E-02  0.27881684984E-03  0.48969596463E-02  0.00000000000E+00 0. -1.
         12    1    1    0    0    0 -0.28743166478E-02  0.21811119114E-02  0.15675260752E-02  0.39339653479E-02  0.00000000000E+00 0.  1.
         14    1    1    0    0    0  0.29274533036E-02  0.15483217508E-03  0.28494358768E-02  0.40881830516E-02  0.00000000000E+00 0.  1.
     999901    1    1    0    0    0 -0.14107483760E-02 -0.11940531424E-03 -0.18632794117E-02  0.90000304237E+00  0.90000000000E+00 0.  1.
     999903    1    1    0    0    0  0.15161948789E-02  0.16000348159E-02 -0.57700573024E-02  0.20932093053E-01  0.20000000000E-01 0.  0.
</event>
<event>
 7    1  0.5676831E-066  0.9118800E+02  0.7957747E-01            NaN
     999900   -1    0    0    0    0  0.00000000000E+00  0.00000000000E+00  0.99999998245E-14  0.93827000000E+00  0.93827000000E+00 0.  1.
        -11    1    1    0    0    0 -0.11084771009E-02  0.23527850107E-02 -0.10702301610E-02  0.28584667896E-02  0.51100000000E-03 0. -1.
        -14    1    1    0    0    0 -0.98803072627E-03  0.43489568458E-03 -0.16017334004E-02  0.19315508946E-02  0.00000000000E+00 0. -1.
         12    1    1    0    0    0 -0.35676915525E-03 -0.92696845192E-03 -0.19098322659E-03  0.10114491257E-02  0.00000000000E+00 0.  1.
         14    1    1    0    0    0  0.58154248291E-02 -0.23670430054E-02  0.13015185101E-02  0.64121766168E-02  0.00000000000E+00 0.  1.
     999901    1    1    0    0    0 -0.34230016978E-02 -0.44689060003E-02  0.17205073834E-01  0.90018203861E+00  0.90000000000E+00 0.  1.
     999903    1    1    0    0    0  0.60853851112E-04  0.49752367624E-02 -0.15643645556E-01  0.25874317968E-01  0.20000000000E-01 0.  0.
</event>
<event>
 7    1  0.5676831E-066  0.9118800E+02  0.7957747E-01            NaN
     999900   -1    0    0    0    0  0.00000000000E+00  0.00000000000E+00  0.99999998245E-14  0.93827000000E+00  0.93827000000E+00 0. -1.
        -11    1    1    0    0    0  0.58076511701E-03  0.54554353690E-04 -0.35212755896E-04  0.77628940275E-03  0.51100000000E-03 0. -1.
        -14    1    1    0    0    0 -0.57110678406E-03  0.42370490987E-02 -0.12639390670E-02  0.44582833006E-02  0.00000000000E+00 0. -1.
         12    1    1    0    0    0 -0.45255272201E-02  0.27707552828E-02 -0.10177371799E-02  0.54030797167E-02  0.00000000000E+00 0.  1.
         14    1    1    0    0    0  0.32843639046E-02  0.11266570169E-02 -0.10230290739E-02  0.36198053508E-02  0.00000000000E+00 0.  1.
     999901    1    1    0    0    0 -0.91752722706E-02 -0.15677878597E-02 -0.13613419102E-02  0.90004916356E+00  0.90000000000E+00 0.  1.
     999903    1    1    0    0    0  0.10406777253E-01 -0.66212278924E-02  0.47012599869E-02  0.23963378665E-01  0.20000000000E-01 0.  0.
</event>
<event>
 7    1  0.5676831E-066  0.9118800E+02  0.7957747E-01            NaN
     999900   -1    0    0    0    0  0.00000000000E+00  0.00000000000E+00  0.99999998245E-14  0.93827000000E+00  0.93827000000E+00 0. -1.
        -11    1    1    0    0    0 -0.88526704613E-03  0.28877441680E-02  0.23707416104E-02  0.38735385509E-02  0.51100000000E-03 0. -1.
        -14    1    1    0    0    0  0.19592396938E-03 -0.27938328575E-02 -0.37082731078E-02  0.46470611874E-02  0.00000000000E+00 0. -1.
         12    1    1    0    0    0 -0.49904960866E-04  0.52245424141E-02  0.50562929326E-03  0.52491899302E-02  0.00000000000E+00 0.  1.
         14    1    1    0    0    0  0.32433502689E-02 -0.91393538301E-03 -0.10987340041E-02  0.35442651231E-02  0.00000000000E+00 0.  1.
     999901    1    1    0    0    0 -0.12081145628E-02 -0.19959365536E-02  0.74314801052E-02  0.90003370504E+00  0.90000000000E+00 0. -1.
     999903    1    1    0    0    0 -0.12959876685E-02 -0.24085817879E-02 -0.55008438969E-02  0.20922240173E-01  0.20000000000E-01 0.  0.
</event>
<event>
 7    1  0.5676831E-066  0.9118800E+02  0.7957747E-01            NaN
     999900   -1    0    0    0    0  0.00000000000E+00  0.00000000000E+00  0.99999998245E-14  0.93827000000E+00  0.93827000000E+00 0. -1.
        -11    1    1    0    0    0  0.63139964041E-03  0.10942365574E-03 -0.19326428047E-02  0.20992542135E-02  0.51100000000E-03 0. -1.
        -14    1    1    0    0    0  0.25484790931E-02  0.53324097649E-03  0.17810528033E-02  0.31545587195E-02  0.00000000000E+00 0. -1.
         12    1    1    0    0    0  0.43426307871E-03 -0.34436615683E-02  0.10036717172E-02  0.36131352500E-02  0.00000000000E+00 0.  1.
         14    1    1    0    0    0  0.16512533812E-02  0.43657555158E-03 -0.41927360066E-02  0.45272807691E-02  0.00000000000E+00 0.  1.
     999901    1    1    0    0    0 -0.76310377392E-02  0.10425401407E-01  0.15062140695E-01  0.90021874554E+00  0.90000000000E+00 0. -1.
     999903    1    1    0    0    0  0.23656425458E-02 -0.80609800226E-02 -0.11721486405E-01  0.24657025512E-01  0.20000000000E-01 0.  0.
</event>
<event>
 7    1  0.5676831E-066  0.9118800E+02  0.7957747E-01            NaN
     999900   -1    0    0    0    0  0.00000000000E+00  0.00000000000E+00  0.99999998245E-14  0.93827000000E+00  0.93827000000E+00 0.  1.
        -11    1    1    0    0    0  0.19130684124E-02 -0.18615409875E-02  0.49723417312E-03  0.27628840767E-02  0.51100000000E-03 0.  1.
        -14    1    1    0    0    0  0.41578781725E-03 -0.21980543437E-02 -0.44516571760E-02  0.49821254520E-02  0.00000000000E+00 0. -1.
         12    1    1    0    0    0  0.29910617429E-03 -0.12746867996E-02  0.43038952359E-02  0.44986448118E-02  0.00000000000E+00 0.  1.
         14    1    1    0    0    0  0.86713893838E-03  0.11908291531E-02 -0.21582026775E-02  0.26130141231E-02  0.00000000000E+00 0.  1.
     999901    1    1    0    0    0 -0.14919209586E-01  0.72041471591E-02  0.28019012814E-02  0.90015683811E+00  0.90000000000E+00 0.  1.
     999903    1    1    0    0    0  0.11424108244E-01 -0.30606941814E-02 -0.99317083704E-03  0.23256493423E-01  0.20000000000E-01 0.  0.
</event>
<event>
 7    1  0.5676831E-066  0.9118800E+02  0.7957747E-01            NaN
     999900   -1    0    0    0    0  0.00000000000E+00  0.00000000000E+00  0.99999998245E-14  0.93827000000E+00  0.93827000000E+00 0.  1.
        -11    1    1    0    0    0 -0.34171005426E-02  0.27737516171E-02 -0.20546333285E-02  0.48839444373E-02  0.51100000000E-03 0. -1.
        -14    1    1    0    0    0  0.88544710935E-03  0.15156377358E-03  0.91563713370E-03  0.12827234782E-02  0.00000000000E+00 0. -1.
         12    1    1    0    0    0  0.32461903872E-03  0.64616535131E-02 -0.26383781304E-02  0.69870868610E-02  0.00000000000E+00 0.  1.
         14    1    1    0    0    0  0.74651579084E-03  0.32721264284E-03 -0.81129344721E-03  0.11500221724E-02  0.00000000000E+00 0.  1.
     999901    1    1    0    0    0  0.12199883669E-01 -0.60222869223E-02  0.10709211981E-01  0.90016653588E+00  0.90000000000E+00 0. -1.
     999903    1    1    0    0    0 -0.10739365065E-01 -0.36918946243E-02 -0.61205442085E-02  0.23799687169E-01  0.20000000000E-01 0.  0.
</event>
<event>
 7    1  0.5676831E-066  0.9118800E+02  0.7957747E-01            NaN
     999900   -1    0    0    0    0  0.00000000000E+00  0.00000000000E+00  0.99999998245E-14  0.93827000000E+00  0.93827000000E+00 0. -1.
        -11    1    1    0    0    0 -0.11149128419E-02  0.31984465532E-02 -0.19518847410E-03  0.34310800834E-02  0.51100000000E-03 0. -1.
        -14    1    1    0    0    0  0.10028479642E-01  0.13275135153E-02 -0.74969035755E-03  0.10143704043E-01  0.00000000000E+00 0. -1.
         12    1    1    0    0    0  0.11877757229E-02 -0.36018226916E-03  0.71416173739E-04  0.12432387964E-02  0.00000000000E+00 0.  1.
         14    1    1    0    0    0 -0.88285270306E-03 -0.45566674015E-04 -0.10880504554E-02  0.14019126259E-02  0.00000000000E+00 0.  1.
     999901    1    1    0    0    0 -0.14736992973E-01 -0.10990185040E-01  0.14518877766E-02  0.90018890857E+00  0.90000000000E+00 0.  1.
     999903    1    1    0    0    0  0.55185031522E-02  0.68699739143E-02  0.50962533675E-03  0.21861155885E-01  0.20000000000E-01 0.  0.
</event>
<event>
 7    1  0.5676831E-066  0.9118800E+02  0.7957747E-01            NaN
     999900   -1    0    0    0    0  0.00000000000E+00  0.00000000000E+00  0.99999998245E-14  0.93827000000E+00  0.93827000000E+00 0.  1.
        -11    1    1    0    0    0 -0.39466929551E-03  0.33540987691E-03 -0.14130076445E-02  0.15893316966E-02  0.51100000000E-03 0. -1.
        -14    1    1    0    0    0  0.69321435492E-03 -0.60605464983E-02  0.19339966081E-02  0.63993056561E-02  0.00000000000E+00 0. -1.
         12    1    1    0    0    0  0.17053272836E-02 -0.90636083553E-03  0.10949688244E-02  0.22200423047E-02  0.00000000000E+00 0.  1.
         14    1    1    0    0    0  0.25738614949E-03  0.26884056155E-02 -0.42440586339E-02  0.50304876574E-02  0.00000000000E+00 0.  1.
     999901    1    1    0    0    0 -0.63458388057E-03  0.14229108802E-01 -0.14631273978E-02  0.90011388778E+00  0.90000000000E+00 0. -1.
     999903    1    1    0    0    0 -0.16266746120E-02 -0.10286016961E-01  0.40912282438E-02  0.22916944904E-01  0.20000000000E-01 0.  0.
</event>
<event>
 7    1  0.5676831E-066  0.9118800E+02  0.7957747E-01            NaN
     999900   -1    0    0    0    0  0.00000000000E+00  0.00000000000E+00  0.99999998245E-14  0.93827000000E+00  0.93827000000E+00 0.  1.
        -11    1    1    0    0    0  0.19709765509E-03 -0.19207052162E-02  0.22844962387E-02  0.30344686649E-02  0.51100000000E-03 0. -1.
        -14    1    1    0    0    0 -0.39509884235E-02 -0.12726596771E-03  0.41997344427E-02  0.57675190107E-02  0.00000000000E+00 0. -1.
         12    1    1    0    0    0  0.90833902187E-03 -0.18517300121E-02 -0.10107161901E-02  0.22968524186E-02  0.00000000000E+00 0.  1.
         14    1    1    0    0    0  0.42089652476E-02  0.85760224975E-03  0.19104669040E-02  0.47011438890E-02  0.00000000000E+00 0.  1.
     999901    1    1    0    0    0  0.62141201963E-02  0.94333596198E-02 -0.86468363205E-02  0.90011242150E+00  0.90000000000E+00 0. -1.
     999903    1    1    0    0    0 -0.75775336973E-02 -0.63912606736E-02  0.12628549251E-02  0.22357594515E-01  0.20000000000E-01 0.  0.
</event>
<event>
 7    1  0.5676831E-066  0.9118800E+02  0.7957747E-01            NaN
     999900   -1    0    0    0    0  0.00000000000E+00  0.00000000000E+00  0.99999998245E-14  0.93827000000E+00  0.93827000000E+00 0.  1.
        -11    1    1    0    0    0  0.44291120796E-03  0.12279024698E-02 -0.30726646636E-02  0.33773220084E-02  0.51100000000E-03 0. -1.
        -14    1    1    0    0    0  0.31669250061E-02 -0.14728400791E-02  0.16487126715E-02  0.38622435663E-02  0.00000000000E+00 0. -1.
         12    1    1    0    0    0 -0.37520458982E-03 -0.17617980739E-02  0.57066648120E-03  0.18895425823E-02  0.00000000000E+00 0.  1.
         14    1    1    0    0    0  0.47224824217E-02 -0.49848376155E-02 -0.44852084144E-02  0.82016791449E-02  0.00000000000E+00 0.  1.
     999901    1    1    0    0    0 -0.12622419955E-01  0.10141659635E-01  0.50174459116E-02  0.90015962668E+00  0.90000000000E+00 0.  1.
     999903    1    1    0    0    0  0.46653059090E-02 -0.31500863363E-02  0.32104801375E-03  0.20779586016E-01  0.20000000000E-01 0.  0.
</event>
<event>
 7    1  0.5676831E-066  0.9118800E+02  0.7957747E-01            NaN
     999900   -1    0    0    0    0  0.00000000000E+00  0.00000000000E+00  0.99999998245E-14  0.93827000000E+00  0.93827000000E+00 0.  1.
        -11    1    1    0    0    0  0.49835047078E-02 -0.62742964038E-02  0.13570881603E-02  0.81427835419E-02  0.51100000000E-03 0. -1.
        -14    1    1    0    0    0  0.50973031445E-03  0.97518068449E-03  0.91798834659E-03  0.14330055706E-02  0.00000000000E+00 0. -1.
         12    1    1    0    0    0  0.13809857423E-02 -0.68282160455E-03 -0.33384485292E-03  0.15763309773E-02  0.00000000000E+00 0.  1.
         14    1    1    0    0    0 -0.21053701262E-02  0.18577100024E-02 -0.49153683194E-03  0.28504873756E-02  0.00000000000E+00 0.  1.
     999901    1    1    0    0    0 -0.46929992961E-03  0.61694815563E-03  0.10994120611E-01  0.90006748167E+00  0.90000000000E+00 0.  1.
     999903    1    1    0    0    0 -0.42995507088E-02  0.35072791659E-02 -0.12443815433E-01  0.24199910867E-01  0.20000000000E-01 0.  0.
</event>
<event>
 7    1  0.5676831E-066  0.9118800E+02  0.7957747E-01            NaN
     999900   -1    0    0    0    0  0.00000000000E+00  0.00000000000E+00  0.99999998245E-14  0.93827000000E+00  0.93827000000E+00 0. -1.
        -11    1    1    0    0    0 -0.58265203489E-02 -0.74876936294E-03  0.46619627375E-03  0.59150194337E-02  0.51100000000E-03 0. -1.
        -14    1    1    0    0    0 -0.67570030948E-03 -0.80379470626E-03  0.16980854667E-02  0.19965347706E-02  0.00000000000E+00 0. -1.
         12    1    1    0    0    0 -0.11549232250E-02 -0.24121286132E-02 -0.16558660011E-02  0.31454895192E-02  0.00000000000E+00 0.  1.
         14    1    1    0    0    0  0.78450095946E-03  0.28351714014E-02  0.12491903001E-02  0.31959529153E-02  0.00000000000E+00 0.  1.
     999901    1    1    0    0    0  0.11023029013E-01 -0.45623897443E-02 -0.12672660143E-01  0.90016827254E+00  0.90000000000E+00 0.  1.
     999903    1    1    0    0    0 -0.41503860888E-02  0.56919110252E-02  0.10915054103E-01  0.23848730823E-01  0.20000000000E-01 0.  0.
</event>
<event>
 7    1  0.5676831E-066  0.9118800E+02  0.7957747E-01            NaN
     999900   -1    0    0    0    0  0.00000000000E+00  0.00000000000E+00  0.99999998245E-14  0.93827000000E+00  0.93827000000E+00 0.  1.
        -11    1    1    0    0    0  0.11694825187E-02 -0.62453042189E-03 -0.21678736708E-03  0.14373048987E-02  0.51100000000E-03 0. -1.
        -14    1    1    0    0    0 -0.20445067211E-02 -0.17026340075E-02  0.16881299540E-02  0.31509923893E-02  0.00000000000E+00 0. -1.
         12    1    1    0    0    0  0.97323150856E-03 -0.89073861353E-04 -0.93956443871E-03  0.13556898821E-02  0.00000000000E+00 0.  1.
         14    1    1    0    0    0 -0.45437275475E-02 -0.47069889049E-02  0.17757852035E-02  0.67789835275E-02  0.00000000000E+00 0.  1.
     999901    1    1    0    0    0  0.13385021393E-01  0.16496802409E-01 -0.10612128215E-01  0.90031323469E+00  0.90000000000E+00 0. -1.
     999903    1    1    0    0    0 -0.89395011518E-02 -0.93735752132E-02  0.83045648630E-02  0.25233794615E-01  0.20000000000E-01 0.  0.
</event>
<event>
 7    1  0.5676831E-066  0.9118800E+02  0.7957747E-01            NaN
     999900   -1    0    0    0    0  0.00000000000E+00  0.00000000000E+00  0.99999998245E-14  0.93827000000E+00  0.93827000000E+00 0. -1.
        -11    1    1    0    0    0 -0.21715243281E-02  0.31027727679E-02 -0.11463067210E-02  0.39897188943E-02  0.51100000000E-03 0. -1.
        -14    1    1    0    0    0  0.16860700728E-02 -0.26586171200E-02 -0.24671498004E-02  0.39997381688E-02  0.00000000000E+00 0. -1.
         12    1    1    0    0    0 -0.94228952514E-03 -0.35883108578E-02 -0.47801120384E-02  0.60508970790E-02  0.00000000000E+00 0.  1.
         14    1    1    0    0    0 -0.42974485889E-04  0.86897425847E-03  0.87995465687E-03  0.12374503087E-02  0.00000000000E+00 0.  1.
     999901    1    1    0    0    0  0.94817519639E-02 -0.36616422262E-02  0.12282836384E-01  0.90014119965E+00  0.90000000000E+00 0. -1.
     999903    1    1    0    0    0 -0.80110336975E-02  0.59368231775E-02 -0.47692224815E-02  0.22850995896E-01  0.20000000000E-01 0.  0.
</event>
<event>
 7    1  0.5676831E-066  0.9118800E+02  0.7957747E-01            NaN
     999900   -1    0    0    0    0  0.00000000000E+00  0.00000000000E+00  0.99999998245E-14  0.93827000000E+00  0.93827000000E+00 0. -1.
        -11    1    1    0    0    0 -0.28873735461E-02 -0.71082865649E-03 -0.18452973741E-02  0.35367282582E-02  0.51100000000E-03 0. -1.
        -14    1    1    0    0    0  0.40521509112E-03 -0.85651056739E-03  0.14493221932E-02  0.17315728231E-02  0.00000000000E+00 0. -1.
         12    1    1    0    0    0  0.27994834490E-02 -0.11426415892E-02  0.28134689737E-02  0.41301749417E-02  0.00000000000E+00 0.  1.
         14    1    1    0    0    0 -0.51230792693E-02  0.22779820610E-02  0.19408091028E-02  0.59331175148E-02  0.00000000000E+00 0.  1.
     999901    1    1    0    0    0  0.95876734153E-02  0.98228623470E-02 -0.11503431623E-02  0.90010540238E+00  0.90000000000E+00 0. -1.
     999903    1    1    0    0    0 -0.47819191399E-02 -0.93908635949E-02 -0.32079597334E-02  0.22833004081E-01  0.20000000000E-01 0.  0.
</event>
<event>
 7    1  0.5676831E-066  0.9118800E+02  0.7957747E-01            NaN
     999900   -1    0    0    0    0  0.00000000000E+00  0.00000000000E+00  0.99999998245E-14  0.93827000000E+00  0.93827000000E+00 0.  1.
        -11    1    1    0    0    0 -0.29073922563E-02  0.16814815293E-02  0.28185997880E-02  0.44142876697E-02  0.51100000000E-03 0. -1.
        -14    1    1    0    0    0  0.17395785881E-02 -0.10261401881E-02 -0.27684316072E-03  0.20385630933E-02  0.00000000000E+00 0. -1.
         12    1    1    0    0    0  0.21532913146E-02  0.74007896430E-02 -0.27388466967E-02  0.81798308083E-02  0.00000000000E+00 0.  1.
         14    1    1    0    0    0 -0.13314479276E-02 -0.70547449852E-03  0.32637110244E-04  0.15071539513E-02  0.00000000000E+00 0.  1.
     999901    1    1    0    0    0 -0.58968397021E-02 -0.11100883457E-01 -0.55003042808E-02  0.90010458041E+00  0.90000000000E+00 0. -1.
     999903    1    1    0    0    0  0.62428099833E-02  0.37502269711E-02  0.56647572400E-02  0.22025584065E-01  0.20000000000E-01 0.  0.
</event>
<event>
 7    1  0.5676831E-066  0.9118800E+02  0.7957747E-01            NaN
     999900   -1    0    0    0    0  0.00000000000E+00  0.00000000000E+00  0.99999998245E-14  0.93827000000E+00  0.93827000000E+00 0. -1.
        -11    1    1    0    0    0  0.27117080793E-03 -0.19422418526E-02 -0.21039125854E-02  0.29211994434E-02  0.51100000000E-03 0. -1.
        -14    1    1    0    0    0 -0.16820372669E-02 -0.24617254431E-02  0.20101073638E-02  0.35958132791E-02  0.00000000000E+00 0. -1.
         12    1    1    0    0    0  0.24717436043E-02 -0.46832195264E-03 -0.30976436221E-02  0.39905185009E-02  0.00000000000E+00 0.  1.
         14    1    1    0    0    0 -0.17665090625E-02 -0.60570405350E-03  0.58415004602E-02  0.61327448418E-02  0.00000000000E+00 0.  1.
     999901    1    1    0    0    0 -0.91786852063E-03 -0.23674222768E-02 -0.43936094540E-02  0.90001430598E+00  0.90000000000E+00 0. -1.
     999903    1    1    0    0    0  0.16235004378E-02  0.78454155787E-02  0.17435578375E-02  0.21615417951E-01  0.20000000000E-01 0.  0.
</event>
<event>
 7    1  0.5676831E-066  0.9118800E+02  0.7957747E-01            NaN
     999900   -1    0    0    0    0  0.00000000000E+00  0.00000000000E+00  0.99999998245E-14  0.93827000000E+00  0.93827000000E+00 0. -1.
        -11    1    1    0    0    0  0.18612987320E-02  0.62499395002E-03  0.18732537020E-02  0.27613856738E-02  0.51100000000E-03 0. -1.
        -14    1    1    0    0    0 -0.51118659479E-02  0.29545687513E-02 -0.52059418205E-03  0.59271973375E-02  0.00000000000E+00 0. -1.
         12    1    1    0    0    0 -0.14765903689E-03  0.11205796179E-02  0.37663915219E-03  0.11913685081E-02  0.00000000000E+00 0.  1.
         14    1    1    0    0    0 -0.28837402964E-02 -0.83353628872E-03  0.58124454960E-04  0.30023522935E-02  0.00000000000E+00 0.  1.
     999901    1    1    0    0    0  0.21374006140E-01 -0.26949101576E-02 -0.24881783811E-03  0.90025783673E+00  0.90000000000E+00 0. -1.
     999903    1    1    0    0    0 -0.15092039590E-01 -0.11716958729E-02 -0.15386052890E-02  0.25129859459E-01  0.20000000000E-01 0.  0.
</event>
<event>
 7    1  0.5676831E-066  0.9118800E+02  0.7957747E-01            NaN
     999900   -1    0    0    0    0  0.00000000000E+00  0.00000000000E+00  0.99999998245E-14  0.93827000000E+00  0.93827000000E+00 0.  1.
        -11    1    1    0    0    0 -0.48644333640E-02 -0.23733558780E-03  0.37774908299E-02  0.61846259470E-02  0.51100000000E-03 0. -1.
        -14    1    1    0    0    0  0.37274186298E-03 -0.67195124186E-03 -0.28790906462E-02  0.29798687751E-02  0.00000000000E+00 0. -1.
         12    1    1    0    0    0  0.16603978717E-02 -0.23319773373E-02 -0.39380281778E-02  0.48685835027E-02  0.00000000000E+00 0.  1.
         14    1    1    0    0    0  0.15100485585E-02  0.87365933808E-03 -0.37805480566E-03  0.17850637871E-02  0.00000000000E+00 0.  1.
     999901    1    1    0    0    0 -0.14640413888E-02 -0.32654734986E-02 -0.45671191100E-02  0.90001870276E+00  0.90000000000E+00 0. -1.
     999903    1    1    0    0    0  0.27852864597E-02  0.56330783275E-02  0.79848019098E-02  0.22433155232E-01  0.20000000000E-01 0.  0.
</event>
<event>
 7    1  0.5676831E-066  0.9118800E+02  0.7957747E-01            NaN
     999900   -1    0    0    0    0  0.00000000000E+00  0.00000000000E+00  0.99999998245E-14  0.93827000000E+00  0.93827000000E+00 0. -1.
        -11    1    1    0    0    0  0.19302037834E-02  0.39058583851E-02  0.35902856784E-02  0.56685702450E-02  0.51100000000E-03 0. -1.
        -14    1    1    0    0    0 -0.15176400711E-02 -0.12625230329E-03  0.28428373083E-03  0.15491895523E-02  0.00000000000E+00 0. -1.
         12    1    1    0    0    0 -0.10308575342E-02  0.37333264666E-02 -0.29406433556E-02  0.48628980153E-02  0.00000000000E+00 0.  1.
         14    1    1    0    0    0 -0.43359983843E-03 -0.27749260923E-02 -0.37858919935E-03  0.28339995447E-02  0.00000000000E+00 0.  1.
     999901    1    1    0    0    0  0.11221410188E-01  0.14843732600E-02 -0.45569435357E-03  0.90007129221E+00  0.90000000000E+00 0. -1.
     999903    1    1    0    0    0 -0.10169516527E-01 -0.62223797162E-02 -0.99642500788E-04  0.23284050429E-01  0.20000000000E-01 0.  0.
</event>
<event>
 7    1  0.5676831E-066  0.9118800E+02  0.7957747E-01            NaN
     999900   -1    0    0    0    0  0.00000000000E+00  0.00000000000E+00  0.99999998245E-14  0.93827000000E+00  0.93827000000E+00 0. -1.
        -11    1    1    0    0    0 -0.19861697781E-02 -0.11633164109E-02 -0.17995162496E-04  0.23578847056E-02  0.51100000000E-03 0. -1.
        -14    1    1    0    0    0 -0.80248766642E-04 -0.41477411328E-03  0.56438987536E-03  0.70499174534E-03  0.00000000000E+00 0. -1.
         12    1    1    0    0    0  0.88810025649E-03 -0.55970442325E-02 -0.32034306444E-02  0.65098075317E-02  0.00000000000E+00 0.  1.
         14    1    1    0    0    0  0.13961141714E-02  0.19272016388E-02 -0.34310284851E-02  0.41755475572E-02  0.00000000000E+00 0.  1.
     999901    1    1    0    0    0 -0.37121074188E-02  0.10873490597E-01  0.18128659362E-01  0.90025588631E+00  0.90000000000E+00 0. -1.
     999903    1    1    0    0    0  0.34943115356E-02 -0.56255574792E-02 -0.12040594945E-01  0.24265882154E-01  0.20000000000E-01 0.  0.
</event>
<event>
 7    1  0.5676831E-066  0.9118800E+02  0.7957747E-01            NaN
     999900   -1    0    0    0    0  0.00000000000E+00  0.00000000000E+00  0.99999998245E-14  0.93827000000E+00  0.93827000000E+00 0.  1.
        -11    1    1    0    0    0 -0.18125138564E-02  0.18462370896E-02 -0.22948068875E-02  0.34958629152E-02  0.51100000000E-03 0. -1.
        -14    1    1    0    0    0 -0.15527850870E-02 -0.93172230417E-03 -0.12255426654E-02  0.21865961683E-02  0.00000000000E+00 0. -1.
         12    1    1    0    0    0 -0.48190419372E-02  0.67201953828E-03 -0.64857671257E-02  0.81080176776E-02  0.00000000000E+00 0.  1.
         14    1    1    0    0    0  0.59604970558E-03  0.24210227181E-02 -0.10728491730E-03  0.24956234304E-02  0.00000000000E+00 0.  1.
     999901    1    1    0    0    0  0.14678845974E-01 -0.32514544619E-02  0.14767260225E-01  0.90024669533E+00  0.90000000000E+00 0.  1.
     999903    1    1    0    0    0 -0.70905547985E-02 -0.75610257989E-03 -0.46538586294E-02  0.21737204480E-01  0.20000000000E-01 0.  0.
</event>
<event>
 7    1  0.5676831E-066  0.9118800E+02  0.7957747E-01            NaN
     999900   -1    0    0    0    0  0.00000000000E+00  0.00000000000E+00  0.99999998245E-14  0.93827000000E+00  0.93827000000E+00 0.  1.
        -11    1    1    0    0    0 -0.26468518793E-02 -0.67185666347E-03 -0.45669701408E-02  0.53456106773E-02  0.51100000000E-03 0. -1.
        -14    1    1    0    0    0  0.22784086676E-02  0.18196863929E-02  0.56162327294E-03  0.29694823330E-02  0.00000000000E+00 0. -1.
         12    1    1    0    0    0 -0.16897816733E-02  0.43511600652E-02 -0.20669816030E-02  0.51049357453E-02  0.00000000000E+00 0.  1.
         14    1    1    0    0    0  0.29899354755E-03  0.50150095656E-03  0.96496558340E-03  0.11278558986E-02  0.00000000000E+00 0.  1.
     999901    1    1    0    0    0 -0.93993616020E-02 -0.52756486125E-03  0.27105091628E-02  0.90005331686E+00  0.90000000000E+00 0.  1.
     999903    1    1    0    0    0  0.11158592939E-01 -0.54729258899E-02  0.23968537246E-02  0.23668798490E-01  0.20000000000E-01 0.  0.
</event>
<event>
 7    1  0.5676831E-066  0.9118800E+02  0.7957747E-01            NaN
     999900   -1    0    0    0    0  0.00000000000E+00  0.00000000000E+00  0.99999998245E-14  0.93827000000E+00  0.93827000000E+00 0. -1.
        -11    1    1    0    0    0 -0.29385200210E-02 -0.19810530030E-03 -0.32724458250E-02  0.44321742183E-02  0.51100000000E-03 0. -1.
        -14    1    1    0    0    0  0.46045606331E-02 -0.79488836815E-03  0.19759380554E-02  0.50732787564E-02  0.00000000000E+00 0. -1.
         12    1    1    0    0    0  0.22347834095E-02  0.45611677979E-03  0.29230077057E-02  0.37075967218E-02  0.00000000000E+00 0.  1.
         14    1    1    0    0    0 -0.18685346162E-02 -0.19935648216E-03  0.10626561930E-02  0.21587966100E-02  0.00000000000E+00 0.  1.
     999901    1    1    0    0    0  0.43952353715E-02  0.17011220428E-02  0.62837383856E-02  0.90003427561E+00  0.90000000000E+00 0. -1.
     999903    1    1    0    0    0 -0.64275247770E-02 -0.96488867200E-03 -0.89728945146E-02  0.22863878080E-01  0.20000000000E-01 0.  0.
</event>
<event>
 7    1  0.5676831E-066  0.9118800E+02  0.7957747E-01            NaN
     999900   -1    0    0    0    0  0.00000000000E+00  0.00000000000E+00  0.99999998245E-14  0.93827000000E+00  0.93827000000E+00 0. -1.
        -11    1    1    0    0    0  0.13272423590E-03  0.54536865560E-02  0.53779748992E-03  0.55055117759E-02  0.51100000000E-03 0. -1.
        -14    1    1    0    0    0 -0.20925384268E-02 -0.87062401272E-03 -0.22479481802E-02  0.31921739082E-02  0.00000000000E+00 0. -1.
         12    1    1    0    0    0  0.35539736969E-02 -0.17648005915E-02 -0.78080679627E-03  0.40441203517E-02  0.00000000000E+00 0.  1.
         14    1    1    0    0    0  0.16781579192E-04  0.17636600354E-02 -0.11020927838E-02  0.20797564391E-02  0.00000000000E+00 0.  1.
     999901    1    1    0    0    0 -0.32776479580E-03  0.59492311975E-02  0.94275865781E-02  0.90006909744E+00  0.90000000000E+00 0. -1.
     999903    1    1    0    0    0 -0.12831762894E-02 -0.10531153185E-01 -0.58345363077E-02  0.23379340083E-01  0.20000000000E-01 0.  0.
</event>
<event>
 7    1  0.5676831E-066  0.9118800E+02  0.7957747E-01            NaN
     999900   -1    0    0    0    0  0.00000000000E+00  0.00000000000E+00  0.99999998245E-14  0.93827000000E+00  0.93827000000E+00 0. -1.
        -11    1    1    0    0    0  0.64521165731E-03 -0.33702121583E-02  0.46680448557E-02  0.58160460667E-02  0.51100000000E-03 0. -1.
        -14    1    1    0    0    0  0.13817693996E-02 -0.18089962787E-02 -0.20245873838E-02  0.30464254930E-02  0.00000000000E+00 0. -1.
         12    1    1    0    0    0 -0.18978397821E-02 -0.24801083743E-02 -0.19395642195E-02  0.36762266998E-02  0.00000000000E+00 0.  1.
         14    1    1    0    0    0 -0.21759375828E-02  0.97317681443E-03  0.20638845805E-03  0.23925663360E-02  0.00000000000E+00 0.  1.
     999901    1    1    0    0    0  0.75865970843E-02  0.12244698145E-01 -0.95919594804E-02  0.90016637061E+00  0.90000000000E+00 0.  1.
     999903    1    1    0    0    0 -0.55398007762E-02 -0.55585581486E-02  0.86816777700E-02  0.23172364796E-01  0.20000000000E-01 0.  0.
</event>
<event>
 7    1  0.5676831E-066  0.9118800E+02  0.7957747E-01            NaN
     999900   -1    0    0    0    0  0.00000000000E+00  0.00000000000E+00  0.99999998245E-14  0.93827000000E+00  0.93827000000E+00 0.  1.
        -11    1    1    0    0    0  0.26140467855E-02 -0.41233602457E-03  0.51003504019E-02  0.57687049514E-02  0.51100000000E-03 0. -1.
        -14    1    1    0    0    0  0.33899453116E-04  0.13521718713E-02 -0.74948870550E-03  0.15463671175E-02  0.00000000000E+00 0. -1.
         12    1    1    0    0    0  0.54114132785E-02 -0.36034508613E-02  0.22740679141E-02  0.68876437668E-02  0.00000000000E+00 0.  1.
         14    1    1    0    0    0  0.38592208124E-03  0.23952345459E-02  0.15697250660E-02  0.28896576209E-02  0.00000000000E+00 0.  1.
     999901    1    1    0    0    0 -0.14670411148E-01  0.46441364214E-03 -0.62635536095E-02  0.90014147152E+00  0.90000000000E+00 0. -1.
     999903    1    1    0    0    0  0.62251295493E-02 -0.19603317351E-03 -0.19311010671E-02  0.21036155025E-01  0.20000000000E-01 0.  0.
</event>
<event>
 7    1  0.5676831E-066  0.9118800E+02  0.7957747E-01            NaN
     999900   -1    0    0    0    0  0.00000000000E+00  0.00000000000E+00  0.99999998245E-14  0.93827000000E+00  0.93827000000E+00 0. -1.
        -11    1    1    0    0    0  0.27723466207E-02 -0.37078185311E-02  0.51489769960E-02  0.69431195547E-02  0.51100000000E-03 0. -1.
        -14    1    1    0    0    0 -0.13484987429E-04 -0.17531441494E-02  0.11669871246E-02  0.21060757827E-02  0.00000000000E+00 0. -1.
         12    1    1    0    0    0  0.73657788396E-03  0.46394555052E-03 -0.41855373970E-03  0.96590873586E-03  0.00000000000E+00 0.  1.
         14    1    1    0    0    0 -0.27611782829E-02 -0.31962949555E-02  0.46218052475E-03  0.42490019757E-02  0.00000000000E+00 0.  1.
     999901    1    1    0    0    0 -0.10605189400E-01  0.56195394944E-02 -0.14294897953E-01  0.90019353107E+00  0.90000000000E+00 0.  1.
     999903    1    1    0    0    0  0.98709281661E-02  0.25737725912E-02  0.79353070474E-02  0.23812362885E-01  0.20000000000E-01 0.  0.
</event>
<event>
 7    1  0.5676831E-066  0.9118800E+02  0.7957747E-01            NaN
     999900   -1    0    0    0    0  0.00000000000E+00  0.00000000000E+00  0.99999998245E-14  0.93827000000E+00  0.93827000000E+00 0. -1.
        -11    1    1    0    0    0 -0.44255442327E-03 -0.14271970876E-02  0.21208416673E-02  0.26442080709E-02  0.51100000000E-03 0. -1.
        -14    1    1    0    0    0 -0.35070140790E-02  0.11507472709E-02 -0.10717894170E-02  0.38434489181E-02  0.00000000000E+00 0. -1.
         12    1    1    0    0    0 -0.52083726600E-03 -0.50040463507E-03 -0.76591395477E-03  0.10527584920E-02  0.00000000000E+00 0.  1.
         14    1    1    0    0    0  0.19773881962E-02  0.51664787296E-03  0.49857753839E-02  0.53884084182E-02  0.00000000000E+00 0.  1.
     999901    1    1    0    0    0  0.39265896791E-02  0.15231531712E-01 -0.79630237453E-02  0.90017266533E+00  0.90000000000E+00 0. -1.
     999903    1    1    0    0    0 -0.14335721071E-02 -0.14971325133E-01  0.26941100659E-02  0.25168510768E-01  0.20000000000E-01 0.  0.
</event>
<event>
 7    1  0.5676831E-066  0.9118800E+02  0.7957747E-01            NaN
     999900   -1    0    0    0    0  0.00000000000E+00  0.00000000000E+00  0.99999998245E-14  0.93827000000E+00  0.93827000000E+00 0.  1.
        -11    1    1    0    0    0 -0.14355401555E-02 -0.14258197607E-02 -0.39943069769E-03  0.21247125477E-02  0.51100000000E-03 0. -1.
        -14    1    1    0    0    0  0.10944029915E-02  0.25736078271E-02 -0.49663999663E-04  0.27970773441E-02  0.00000000000E+00 0. -1.
         12    1    1    0    0    0  0.31450703869E-04  0.33369599538E-02  0.61075070967E-03  0.33925370020E-02  0.00000000000E+00 0.  1.
         14    1    1    0    0    0 -0.15325918678E-02  0.57681811138E-03 -0.20737523341E-02  0.26423485216E-02  0.00000000000E+00 0.  1.
     999901    1    1    0    0    0  0.55834082474E-02  0.30402837510E-02 -0.14183506728E-01  0.90013420646E+00  0.90000000000E+00 0. -1.
     999903    1    1    0    0    0 -0.37411299196E-02 -0.81018498827E-02  0.16095603050E-01  0.27179118127E-01  0.20000000000E-01 0.  0.
</event>
<event>
 7    1  0.5676831E-066  0.9118800E+02  0.7957747E-01            NaN
     999900   -1    0    0    0    0  0.00000000000E+00  0.00000000000E+00  0.99999998245E-14  0.93827000000E+00  0.93827000000E+00 0. -1.
        -11    1    1    0    0    0  0.12305100598E-02  0.44706049118E-04  0.33548650650E-02  0.36100407535E-02  0.51100000000E-03 0. -1.
        -14    1    1    0    0    0 -0.73218793623E-03  0.12749117819E-02  0.13691967933E-02  0.20090293886E-02  0.00000000000E+00 0. -1.
         12    1    1    0    0    0 -0.22766679597E-02  0.29221105383E-02 -0.57029140018E-02  0.68003805120E-02  0.00000000000E+00 0.  1.
         14    1    1    0    0    0 -0.98591911426E-03 -0.19972044356E-02  0.19427588164E-02  0.29555327567E-02  0.00000000000E+00 0.  1.
     999901    1    1    0    0    0  0.97901799753E-02  0.76629781427E-03  0.69158104138E-02  0.90008014269E+00  0.90000000000E+00 0. -1.
     999903    1    1    0    0    0 -0.70259150249E-02 -0.30108217480E-02 -0.78797170867E-02  0.22814873896E-01  0.20000000000E-01 0.  0.
</event>
<event>
 7    1  0.5676831E-066  0.9118800E+02  0.7957747E-01            NaN
     999900   -1    0    0    0    0  0.00000000000E+00  0.00000000000E+00  0.99999998245E-14  0.93827000000E+00  0.93827000000E+00 0. -1.
        -11    1    1    0    0    0 -0.26554538802E-03  0.49489272521E-02  0.10649432730E-02  0.50948621644E-02  0.51100000000E-03 0. -1.
        -14    1    1    0    0    0  0.56346975382E-03 -0.70956715988E-03 -0.20003101193E-02  0.21959563500E-02  0.00000000000E+00 0. -1.
         12    1    1    0    0    0 -0.11250201482E-02 -0.29792601834E-02  0.10637754834E-02  0.33575705284E-02  0.00000000000E+00 0.  1.
         14    1    1    0    0    0 -0.10549005067E-02 -0.21852412543E-03 -0.90372892874E-03  0.14061628103E-02  0.00000000000E+00 0.  1.
     999901    1    1    0    0    0  0.14279556758E-01 -0.12146859986E-01  0.84186649251E-03  0.90019562357E+00  0.90000000000E+00 0. -1.
     999903    1    1    0    0    0 -0.12397560469E-01  0.11105284202E-01 -0.66546200830E-04  0.26019824581E-01  0.20000000000E-01 0.  0.
</event>
<event>
 7    1  0.5676831E-066  0.9118800E+02  0.7957747E-01            NaN
     999900   -1    0    0    0    0  0.00000000000E+00  0.00000000000E+00  0.99999998245E-14  0.93827000000E+00  0.93827000000E+00 0.  1.
        -11    1    1    0    0    0  0.23978694441E-02  0.19712198076E-02  0.11132758624E-02  0.33370630120E-02  0.51100000000E-03 0. -1.
        -14    1    1    0    0    0 -0.26414067417E-02 -0.17805617560E-02  0.73611588615E-03  0.32694489352E-02  0.00000000000E+00 0. -1.
         12    1    1    0    0    0  0.38304699544E-04 -0.46965921618E-02  0.34492121987E-02  0.58272214628E-02  0.00000000000E+00 0.  1.
         14    1    1    0    0    0  0.17955779315E-04 -0.19671386706E-02 -0.24583684460E-02  0.31485762458E-02  0.00000000000E+00 0.  1.
     999901    1    1    0    0    0  0.39113526998E-02  0.74195744365E-02  0.70066045880E-02  0.90006635382E+00  0.90000000000E+00 0.  1.
     999903    1    1    0    0    0 -0.37240758811E-02 -0.94650165570E-03 -0.98468400893E-02  0.22621336528E-01  0.20000000000E-01 0.  0.
</event>
<event>
 7    1  0.5676831E-066  0.9118800E+02  0.7957747E-01            NaN
     999900   -1    0    0    0    0  0.00000000000E+00  0.00000000000E+00  0.99999998245E-14  0.93827000000E+00  0.93827000000E+00 0. -1.
        -11    1    1    0    0    0 -0.40100246625E-02  0.13380252014E-02 -0.30397915367E-02  0.52318316888E-02  0.51100000000E-03 0. -1.
        -14    1    1    0    0    0 -0.42923408638E-03 -0.17297694610E-02 -0.32373543232E-03  0.18113941921E-02  0.00000000000E+00 0. -1.
         12    1    1    0    0    0 -0.29396250782E-02  0.34455451626E-02  0.88541774613E-03  0.46148826261E-02  0.00000000000E+00 0.  1.
         14    1    1    0    0    0  0.84966588822E-04 -0.21513772247E-02 -0.18595562376E-02  0.28449240209E-02  0.00000000000E+00 0.  1.
     999901    1    1    0    0    0  0.13595443681E-01  0.86162744031E-03  0.14889670071E-01  0.90022623866E+00  0.90000000000E+00 0. -1.
     999903    1    1    0    0    0 -0.63015264429E-02 -0.17640511186E-02 -0.10552004611E-01  0.23540728816E-01  0.20000000000E-01 0.  0.
</event>
<event>
 7    1  0.5676831E-066  0.9118800E+02  0.7957747E-01            NaN
     999900   -1    0    0    0    0  0.00000000000E+00  0.00000000000E+00  0.99999998245E-14  0.93827000000E+00  0.93827000000E+00 0. -1.
        -11    1    1    0    0    0 -0.60363101817E-03 -0.67512282039E-03 -0.17259836584E-02  0.20150190614E-02  0.51100000000E-03 0. -1.
        -14    1    1    0    0    0  0.20140105991E-02 -0.86181679224E-03  0.14765926366E-02  0.26418350992E-02  0.00000000000E+00 0. -1.
         12    1    1    0    0    0 -0.94335361685E-03  0.19156409492E-04  0.38750626416E-03  0.10200216268E-02  0.00000000000E+00 0.  1.
         14    1    1    0    0    0  0.61102634882E-02  0.54292099872E-02  0.37548638193E-02  0.89950343680E-02  0.00000000000E+00 0.  1.
     999901    1    1    0    0    0 -0.12925369337E-01 -0.63135881173E-02  0.63220607934E-02  0.90013715345E+00  0.90000000000E+00 0. -1.
     999903    1    1    0    0    0  0.63480798849E-02  0.24021613332E-02 -0.10215039855E-01  0.23460936395E-01  0.20000000000E-01 0.  0.
</event>
<event>
 7    1  0.5676831E-066  0.9118800E+02  0.7957747E-01            NaN
     999900   -1    0    0    0    0  0.00000000000E+00  0.00000000000E+00  0.99999998245E-14  0.93827000000E+00  0.93827000000E+00 0.  1.
        -11    1    1    0    0    0  0.15088401637E-02  0.54214650708E-02  0.50170662698E-02  0.75565175252E-02  0.51100000000E-03 0. -1.
        -14    1    1    0    0    0 -0.19863625706E-03  0.80033778319E-03 -0.13867647483E-02  0.16134166842E-02  0.00000000000E+00 0. -1.
         12    1    1    0    0    0 -0.10571124540E-02  0.58461294599E-03  0.36032443006E-03  0.12605922147E-02  0.00000000000E+00 0.  1.
         14    1    1    0    0    0 -0.15870111957E-02  0.15593014501E-02  0.58836904777E-02  0.62902972255E-02  0.00000000000E+00 0.  1.
     999901    1    1    0    0    0 -0.62097425972E-03 -0.25045061580E-02 -0.48270837972E-02  0.90001664368E+00  0.90000000000E+00 0. -1.
     999903    1    1    0    0    0  0.19548940027E-02 -0.58612110921E-02 -0.50472326321E-02  0.21532532672E-01  0.20000000000E-01 0.  0.
</event>
<event>
 7    1  0.5676831E-066  0.9118800E+02  0.7957747E-01            NaN
     999900   -1    0    0    0    0  0.00000000000E+00  0.00000000000E+00  0.99999998245E-14  0.93827000000E+00  0.93827000000E+00 0.  1.
        -11    1    1    0    0    0 -0.30672849750E-02  0.16087845319E-03 -0.77036948454E-03  0.32076017735E-02  0.51100000000E-03 0. -1.
        -14    1    1    0    0    0 -0.20638851368E-02  0.55595716290E-02 -0.50210166320E-02  0.77703968093E-02  0.00000000000E+00 0. -1.
         12    1    1    0    0    0 -0.21505069244E-03 -0.34372442180E-02  0.10251657543E-02  0.35933075902E-02  0.00000000000E+00 0.  1.
         14    1    1    0    0    0  0.85545104789E-03  0.13234036515E-02  0.10466263160E-02  0.18917241780E-02  0.00000000000E+00 0.  1.
     999901    1    1    0    0    0  0.12631160408E-01 -0.56492017206E-02  0.32459663457E-02  0.90011221300E+00  0.90000000000E+00 0.  1.
     999903    1    1    0    0    0 -0.81403906517E-02  0.20425922048E-02  0.47362770056E-03  0.21694756649E-01  0.20000000000E-01 0.  0.
</event>
<event>
 7    1  0.5676831E-066  0.9118800E+02  0.7957747E-01            NaN
     999900   -1    0    0    0    0  0.00000000000E+00  0.00000000000E+00  0.99999998245E-14  0.93827000000E+00  0.93827000000E+00 0. -1.
        -11    1    1    0    0    0 -0.28418450835E-02  0.61241677766E-03  0.22030751096E-03  0.29598638799E-02  0.51100000000E-03 0. -1.
        -14    1    1    0    0    0  0.15224624195E-02 -0.53397754452E-03  0.88025455641E-03  0.18378987788E-02  0.00000000000E+00 0. -1.
         12    1    1    0    0    0  0.91336050356E-03  0.92608721213E-03  0.34479289464E-03  0.13456400240E-02  0.00000000000E+00 0.  1.
         14    1    1    0    0    0  0.19216065129E-03 -0.47729634246E-02  0.19689965169E-02  0.51667255445E-02  0.00000000000E+00 0.  1.
     999901    1    1    0    0    0 -0.10930607787E-01 -0.72139426119E-02  0.53065456842E-02  0.90011092571E+00  0.90000000000E+00 0. -1.
     999903    1    1    0    0    0  0.11144469296E-01  0.10982379591E-01 -0.87208971631E-02  0.26848946063E-01  0.20000000000E-01 0.  0.
</event>
<event>
 7    1  0.5676831E-066  0.9118800E+02  0.7957747E-01            NaN
     999900   -1    0    0    0    0  0.00000000000E+00  0.00000000000E+00  0.99999998245E-14  0.93827000000E+00  0.93827000000E+00 0. -1.
        -11    1    1    0    0    0 -0.13131995382E-02  0.38130823656E-03 -0.25139514739E-02  0.29070538370E-02  0.51100000000E-03 0. -1.
        -14    1    1    0    0    0  0.46853807399E-02  0.58127288583E-03  0.20172764641E-02  0.51342063825E-02  0.00000000000E+00 0. -1.
         12    1    1    0    0    0 -0.27592557572E-02 -0.92371903773E-03  0.24194997477E-02  0.37842738040E-02  0.00000000000E+00 0.  1.
         14    1    1    0    0    0 -0.14421381488E-03 -0.15812324006E-02 -0.40602301638E-02  0.43596516503E-02  0.00000000000E+00 0.  1.
     999901    1    1    0    0    0 -0.27968384170E-02  0.88646458677E-02  0.71700359164E-02  0.90007655989E+00  0.90000000000E+00 0. -1.
     999903    1    1    0    0    0  0.23281267873E-02 -0.73222755518E-02 -0.50326304904E-02  0.22008254434E-01  0.20000000000E-01 0.  0.
</event>
<event>
 7    1  0.5676831E-066  0.9118800E+02  0.7957747E-01            NaN
     999900   -1    0    0    0    0  0.00000000000E+00  0.00000000000E+00  0.99999998245E-14  0.93827000000E+00  0.93827000000E+00 0.  1.
        -11    1    1    0    0    0  0.35413421809E-02 -0.32703966855E-02 -0.41664676443E-03  0.48653175075E-02  0.51100000000E-03 0. -1.
        -14    1    1    0    0    0 -0.10725038429E-02 -0.12751677402E-02  0.12936091546E-02  0.21094411354E-02  0.00000000000E+00 0. -1.
         12    1    1    0    0    0  0.32247330918E-02 -0.12194250694E-02  0.17702370593E-02  0.38755180634E-02  0.00000000000E+00 0.  1.
         14    1    1    0    0    0 -0.54685397461E-02  0.23647634471E-02  0.56829455195E-03  0.59849805190E-02  0.00000000000E+00 0.  1.
     999901    1    1    0    0    0 -0.28392545545E-02 -0.37015707712E-02 -0.43184728050E-02  0.90002245094E+00  0.90000000000E+00 0.  1.
     999903    1    1    0    0    0  0.26142228708E-02  0.71017968192E-02  0.11029788036E-02  0.21412291833E-01  0.20000000000E-01 0.  0.
</event>
<event>
 7    1  0.5676831E-066  0.9118800E+02  0.7957747E-01            NaN
     999900   -1    0    0    0    0  0.00000000000E+00  0.00000000000E+00  0.99999998245E-14  0.93827000000E+00  0.93827000000E+00 0.  1.
        -11    1    1    0    0    0  0.57236285266E-02  0.83755909058E-04 -0.37422438677E-02  0.68580207588E-02  0.51100000000E-03 0. -1.
        -14    1    1    0    0    0 -0.11236018871E-02  0.38609097706E-02  0.24898959663E-02  0.47295546704E-02  0.00000000000E+00 0. -1.
         12    1    1    0    0    0 -0.15326340300E-02 -0.62295944809E-03 -0.54491101045E-03  0.17418305179E-02  0.00000000000E+00 0.  1.
         14    1    1    0    0    0 -0.87135541061E-03 -0.21396759815E-02  0.38874761351E-04  0.23106243322E-02  0.00000000000E+00 0.  1.
     999901    1    1    0    0    0  0.73496045014E-02 -0.45161226097E-02 -0.10668981015E-02  0.90004197142E+00  0.90000000000E+00 0. -1.
     999903    1    1    0    0    0 -0.95456417003E-02  0.33340923596E-02  0.28252822520E-02  0.22587998299E-01  0.20000000000E-01 0.  0.
</event>
<event>
 7    1  0.5676831E-066  0.9118800E+02  0.7957747E-01            NaN
     999900   -1    0    0    0    0  0.00000000000E+00  0.00000000000E+00  0.99999998245E-14  0.93827000000E+00  0.93827000000E+00 0. -1.
        -11    1    1    0    0    0  0.14612038721E-03  0.32298148792E-03 -0.18597520811E-02  0.19609862346E-02  0.51100000000E-03 0. -1.
        -14    1    1    0    0    0  0.51807954949E-03 -0.40908345473E-02 -0.35631272015E-03  0.41388757493E-02  0.00000000000E+00 0. -1.
         12    1    1    0    0    0 -0.17034717396E-02 -0.45395772228E-02  0.15090037065E-02  0.50780576519E-02  0.00000000000E+00 0.  1.
         14    1    1    0    0    0  0.44502631411E-03  0.15938160876E-02  0.24547602677E-02  0.29604300555E-02  0.00000000000E+00 0.  1.
     999901    1    1    0    0    0 -0.70613329879E-02  0.11962200881E-01  0.77092500839E-02  0.90014020531E+00  0.90000000000E+00 0. -1.
     999903    1    1    0    0    0  0.76555784767E-02 -0.52485866867E-02 -0.94569492570E-02  0.23991445002E-01  0.20000000000E-01 0.  0.
</event>
<event>
 7    1  0.5676831E-066  0.9118800E+02  0.7957747E-01            NaN
     999900   -1    0    0    0    0  0.00000000000E+00  0.00000000000E+00  0.99999998245E-14  0.93827000000E+00  0.93827000000E+00 0.  1.
        -11    1    1    0    0    0 -0.16865846903E-02 -0.20430741503E-02  0.10354479871E-02  0.28899815631E-02  0.51100000000E-03 0. -1.
        -14    1    1    0    0    0  0.18992079691E-02  0.10105174888E-02 -0.29404778236E-02  0.36434250831E-02  0.00000000000E+00 0. -1.
         12    1    1    0    0    0 -0.19359477084E-02 -0.14397764505E-02  0.13592335158E-02  0.27691813786E-02  0.00000000000E+00 0.  1.
         14    1    1    0    0    0  0.35852806903E-02 -0.32940743437E-02  0.23336401187E-02  0.53991702709E-02  0.00000000000E+00 0.  1.
     999901    1    1    0    0    0  0.17993446485E-02  0.17076454337E-01  0.74823031657E-03  0.90016409770E+00  0.90000000000E+00 0.  1.
     999903    1    1    0    0    0 -0.36613009092E-02 -0.11310046881E-01 -0.25360741145E-02  0.23404144007E-01  0.20000000000E-01 0.  0.
</event>
<event>
 7    1  0.5676831E-066  0.9118800E+02  0.7957747E-01            NaN
     999900   -1    0    0    0    0  0.00000000000E+00  0.00000000000E+00  0.99999998245E-14  0.93827000000E+00  0.93827000000E+00 0. -1.
        -11    1    1    0    0    0 -0.30903293577E-02 -0.22618421107E-03  0.15565764495E-02  0.35050458028E-02  0.51100000000E-03 0. -1.
        -14    1    1    0    0    0  0.18089526893E-02  0.41642127605E-02  0.12651566359E-02  0.47131304947E-02  0.00000000000E+00 0. -1.
         12    1    1    0    0    0 -0.92443415150E-03 -0.14769498844E-03 -0.12792786305E-02  0.15852274677E-02  0.00000000000E+00 0.  1.
         14    1    1    0    0    0  0.41879677827E-02 -0.54145739946E-02 -0.34204046641E-02  0.76521796737E-02  0.00000000000E+00 0.  1.
     999901    1    1    0    0    0  0.27996928128E-03 -0.35018545418E-02  0.63245758614E-03  0.90000707851E+00  0.90000000000E+00 0. -1.
     999903    1    1    0    0    0 -0.22621262441E-02  0.51260949754E-02  0.12454926230E-02  0.20807338050E-01  0.20000000000E-01 0.  0.
</event>
<event>
 7    1  0.5676831E-066  0.9118800E+02  0.7957747E-01            NaN
     999900   -1    0    0    0    0  0.00000000000E+00  0.00000000000E+00  0.99999998245E-14  0.93827000000E+00  0.93827000000E+00 0. -1.
        -11    1    1    0    0    0 -0.20097197080E-02  0.11218869910E-02  0.24751479221E-03  0.23706514500E-02  0.51100000000E-03 0. -1.
        -14    1    1    0    0    0 -0.37453377298E-02  0.26682851111E-02 -0.46855039424E-02  0.65651540225E-02  0.00000000000E+00 0. -1.
         12    1    1    0    0    0 -0.13103018470E-02 -0.24045807459E-02 -0.31013626665E-02  0.41373119151E-02  0.00000000000E+00 0.  1.
         14    1    1    0    0    0  0.22352765578E-02  0.84688388857E-03  0.26910405738E-02  0.35993573011E-02  0.00000000000E+00 0.  1.
     999901    1    1    0    0    0  0.44110184076E-02 -0.10118939916E-01  0.39614760241E-02  0.90007640971E+00  0.90000000000E+00 0. -1.
     999903    1    1    0    0    0  0.41906431931E-03  0.78864646715E-02  0.88683521878E-03  0.21521115599E-01  0.20000000000E-01 0.  0.
</event>
<event>
 7    1  0.5676831E-066  0.9118800E+02  0.7957747E-01            NaN
     999900   -1    0    0    0    0  0.00000000000E+00  0.00000000000E+00  0.99999998245E-14  0.93827000000E+00  0.93827000000E+00 0.  1.
        -11    1    1    0    0    0 -0.36167673006E-02  0.26824189049E-02  0.79095886117E-03  0.46003384450E-02  0.51100000000E-03 0. -1.
        -14    1    1    0    0    0  0.20360592174E-02 -0.75333145833E-03  0.29795019434E-02  0.36865264483E-02  0.00000000000E+00 0. -1.
         12    1    1    0    0    0  0.58327994465E-04  0.20489699364E-02  0.34007802551E-03  0.20778192940E-02  0.00000000000E+00 0.  1.
         14    1    1    0    0    0  0.22109975861E-02 -0.25424568246E-02  0.98253166837E-03  0.35096959284E-02  0.00000000000E+00 0.  1.
     999901    1    1    0    0    0 -0.12260263930E-01 -0.87631951729E-02 -0.58020457962E-02  0.90014486134E+00  0.90000000000E+00 0. -1.
     999903    1    1    0    0    0  0.11571646433E-01  0.73275946144E-02  0.70897529776E-03  0.24250758544E-01  0.20000000000E-01 0.  0.
</event>
<event>
 7    1  0.5676831E-066  0.9118800E+02  0.7957747E-01            NaN
     999900   -1    0    0    0    0  0.00000000000E+00  0.00000000000E+00  0.99999998245E-14  0.93827000000E+00  0.93827000000E+00 0.  1.
        -11    1    1    0    0    0 -0.16093549532E-02  0.18573248813E-02  0.23795786757E-02  0.34587851558E-02  0.51100000000E-03 0. -1.
        -14    1    1    0    0    0  0.32689935738E-03  0.11776315950E-02 -0.52200633260E-03  0.13289732784E-02  0.00000000000E+00 0. -1.
         12    1    1    0    0    0 -0.11862295603E-02  0.17197933425E-02  0.20527468178E-04  0.20893183308E-02  0.00000000000E+00 0.  1.
         14    1    1    0    0    0 -0.73419196271E-02 -0.39987358149E-02 -0.34764531178E-02  0.90542475230E-02  0.00000000000E+00 0.  1.
     999901    1    1    0    0    0  0.37075997056E-02  0.56798732637E-02  0.58820972557E-02  0.90004478018E+00  0.90000000000E+00 0.  1.
     999903    1    1    0    0    0  0.61030050776E-02 -0.64358872675E-02 -0.42837439493E-02  0.22293895535E-01  0.20000000000E-01 0.  0.
</event>
<event>
 7    1  0.5676831E-066  0.9118800E+02  0.7957747E-01            NaN
     999900   -1    0    0    0    0  0.00000000000E+00  0.00000000000E+00  0.99999998245E-14  0.93827000000E+00  0.93827000000E+00 0. -1.
        -11    1    1    0    0    0 -0.57781604461E-03 -0.33826356709E-02  0.36617610547E-02  0.50443741421E-02  0.51100000000E-03 0. -1.
        -14    1    1    0    0    0 -0.46894222723E-03  0.11802522262E-02  0.22903163321E-03  0.12904873572E-02  0.00000000000E+00 0. -1.
         12    1    1    0    0    0 -0.24082294656E-02 -0.70409975752E-03 -0.27169126291E-02  0.36982346953E-02  0.00000000000E+00 0.  1.
         14    1    1    0    0    0  0.18680429877E-02  0.52947727134E-02  0.10871934798E-02  0.57189327985E-02  0.00000000000E+00 0.  1.
     999901    1    1    0    0    0 -0.10957727720E-02  0.14882043111E-02  0.68803580868E-02  0.90002819667E+00  0.90000000000E+00 0. -1.
     999903    1    1    0    0    0  0.26827175217E-02 -0.38764938223E-02 -0.91414316255E-02  0.22489774339E-01  0.20000000000E-01 0.  0.
</event>
<event>
 7    1  0.5676831E-066  0.9118800E+02  0.7957747E-01            NaN
     999900   -1    0    0    0    0  0.00000000000E+00  0.00000000000E+00  0.99999998245E-14  0.93827000000E+00  0.93827000000E+00 0.  1.
        -11    1    1    0    0    0  0.37622974602E-02  0.11575645146E-03 -0.16066789476E-02  0.41244175317E-02  0.51100000000E-03 0. -1.
        -14    1    1    0    0    0 -0.13606371918E-02 -0.64347726288E-03  0.17568222528E-03  0.15153418096E-02  0.00000000000E+00 0. -1.
         12    1    1    0    0    0 -0.25089471781E-02  0.75326969622E-03  0.12208424285E-02  0.28901016267E-02  0.00000000000E+00 0.  1.
         14    1    1    0    0    0  0.21457133108E-02  0.17990460943E-02  0.20742435596E-02  0.34847006767E-02  0.00000000000E+00 0.  1.
     999901    1    1    0    0    0  0.11589850276E-01 -0.11733591069E-01 -0.29544434273E-02  0.90015594789E+00  0.90000000000E+00 0.  1.
     999903    1    1    0    0    0 -0.13628276677E-01  0.97089960903E-02  0.10903541615E-02  0.26099490464E-01  0.20000000000E-01 0.  0.
</event>
<event>
 7    1  0.5676831E-066  0.9118800E+02  0.7957747E-01            NaN
     999900   -1    0    0    0    0  0.00000000000E+00  0.00000000000E+00  0.99999998245E-14  0.93827000000E+00  0.93827000000E+00 0. -1.
        -11    1    1    0    0    0  0.26458820305E-03  0.13483640896E-02 -0.48075520339E-02  0.50261088522E-02  0.51100000000E-03 0. -1.
        -14    1    1    0    0    0  0.75894460489E-03  0.28521003828E-03  0.70965006176E-03  0.10774715260E-02  0.00000000000E+00 0. -1.
         12    1    1    0    0    0 -0.14894539054E-03  0.28659956401E-02 -0.48636917707E-03  0.29107852403E-02  0.00000000000E+00 0.  1.
         14    1    1    0    0    0  0.60922875061E-03 -0.11559709828E-02  0.41012044068E-02  0.43043357409E-02  0.00000000000E+00 0.  1.
     999901    1    1    0    0    0 -0.14369077809E-01 -0.41753484892E-02  0.74210755321E-02  0.90015497349E+00  0.90000000000E+00 0. -1.
     999903    1    1    0    0    0  0.12885261641E-01  0.83174970402E-03 -0.69380087897E-02  0.24796325153E-01  0.20000000000E-01 0.  0.
</event>
<event>
 7    1  0.1814493E-065  0.9118800E+02  0.7957747E-01            NaN
     999900   -1    0    0    0    0  0.00000000000E+00  0.00000000000E+00  0.99999998245E-14  0.93827000000E+00  0.93827000000E+00 0.  1.
        -11    1    1    0    0    0  0.14183044789E-02 -0.39088837026E-03 -0.21667395478E-02  0.26683820156E-02  0.51100000000E-03 0. -1.
        -14    1    1    0    0    0  0.20244751994E-02  0.19128042434E-02  0.20530624187E-02  0.34601134666E-02  0.00000000000E+00 0. -1.
         12    1    1    0    0    0  0.40396808534E-02  0.10657337481E-03  0.89136336811E-02  0.97868914719E-02  0.00000000000E+00 0.  1.
         14    1    1    0    0    0 -0.95111223989E-03 -0.92187864942E-03 -0.48302723149E-03  0.14098900821E-02  0.00000000000E+00 0.  1.
     999901    1    1    0    0    0 -0.31525259811E-02  0.27913725085E-02 -0.45574641890E-02  0.90002138900E+00  0.90000000000E+00 0. -1.
     999903    1    1    0    0    0 -0.33788223107E-02 -0.34979831070E-02 -0.37594651315E-02  0.20923333962E-01  0.20000000000E-01 0.  0.
</event>
<event>
 7    1  0.5676831E-066  0.9118800E+02  0.7957747E-01            NaN
     999900   -1    0    0    0    0  0.00000000000E+00  0.00000000000E+00  0.99999998245E-14  0.93827000000E+00  0.93827000000E+00 0. -1.
        -11    1    1    0    0    0 -0.12895356383E-02  0.92606462579E-05  0.11993368681E-02  0.18337169480E-02  0.51100000000E-03 0. -1.
        -14    1    1    0    0    0  0.27532808947E-02  0.12532634164E-02 -0.19594421793E-03  0.30314384395E-02  0.00000000000E+00 0. -1.
         12    1    1    0    0    0 -0.41384892172E-03 -0.29752692436E-02 -0.13724436053E-02  0.33025898098E-02  0.00000000000E+00 0.  1.
         14    1    1    0    0    0 -0.43849252705E-02  0.21844503441E-02  0.10481968969E-02  0.50098013601E-02  0.00000000000E+00 0.  1.
     999901    1    1    0    0    0  0.11299002492E-01  0.33082848596E-02  0.11341253064E-01  0.90014845233E+00  0.90000000000E+00 0. -1.
     999903    1    1    0    0    0 -0.79639735565E-02 -0.37799900226E-02 -0.12020399006E-01  0.24944001115E-01  0.20000000000E-01 0.  0.
</event>
<event>
 7    1  0.5676831E-066  0.9118800E+02  0.7957747E-01            NaN
     999900   -1    0    0    0    0  0.00000000000E+00  0.00000000000E+00  0.99999998245E-14  0.93827000000E+00  0.93827000000E+00 0. -1.
        -11    1    1    0    0    0  0.17227493203E-02  0.35649873418E-02 -0.24863240345E-02  0.47031827704E-02  0.51100000000E-03 0. -1.
        -14    1    1    0    0    0 -0.15371480167E-02  0.19480889675E-02  0.39926435820E-02  0.47009655842E-02  0.00000000000E+00 0. -1.
         12    1    1    0    0    0 -0.11132522398E-03 -0.10939976040E-02  0.72760851245E-03  0.13185743098E-02  0.00000000000E+00 0.  1.
         14    1    1    0    0    0  0.21342215428E-02 -0.61258789321E-04 -0.14928097142E-03  0.21403128373E-02  0.00000000000E+00 0.  1.
     999901    1    1    0    0    0  0.13105286921E-01 -0.41060469516E-02  0.28664696838E-03  0.90010482186E+00  0.90000000000E+00 0.  1.
     999903    1    1    0    0    0 -0.15313784543E-01 -0.25177296441E-03 -0.23712940569E-02  0.25302142640E-01  0.20000000000E-01 0.  0.
</event>
<event>
 7    1  0.5676831E-066  0.9118800E+02  0.7957747E-01            NaN
     999900   -1    0    0    0    0  0.00000000000E+00  0.00000000000E+00  0.99999998245E-14  0.93827000000E+00  0.93827000000E+00 0. -1.
        -11    1    1    0    0    0  0.44358264205E-04 -0.31505533080E-02 -0.46426840109E-02  0.56341449775E-02  0.51100000000E-03 0. -1.
        -14    1    1    0    0    0 -0.58341364110E-03 -0.10200887672E-02 -0.12764642017E-03  0.11820516817E-02  0.00000000000E+00 0. -1.
         12    1    1    0    0    0 -0.32477455868E-02 -0.32514691730E-03 -0.47575684855E-02  0.57695779576E-02  0.00000000000E+00 0.  1.
         14    1    1    0    0    0  0.87130877045E-03 -0.20953628746E-02  0.15157323621E-02  0.27289501907E-02  0.00000000000E+00 0.  1.
     999901    1    1    0    0    0  0.39397701925E-02 -0.29845229250E-02  0.13398556557E-01  0.90011329869E+00  0.90000000000E+00 0. -1.
     999903    1    1    0    0    0 -0.10242779993E-02  0.95756747921E-02 -0.53863900025E-02  0.22841976499E-01  0.20000000000E-01 0.  0.
</event>
<event>
 7    1  0.5676831E-066  0.9118800E+02  0.7957747E-01            NaN
     999900   -1    0    0    0    0  0.00000000000E+00  0.00000000000E+00  0.99999998245E-14  0.93827000000E+00  0.93827000000E+00 0.  1.
        -11    1    1    0    0    0 -0.36525291335E-02 -0.78152887032E-03 -0.13006486389E-03  0.37722399599E-02  0.51100000000E-03 0. -1.
        -14    1    1    0    0    0  0.17485067872E-02  0.57931283296E-02  0.47114248421E-02  0.76691026770E-02  0.00000000000E+00 0. -1.
         12    1    1    0    0    0 -0.16138846914E-02 -0.49617208462E-05  0.74155219313E-03  0.17761047466E-02  0.00000000000E+00 0.  1.
         14    1    1    0    0    0  0.37284920374E-03  0.25662673854E-02 -0.15146675124E-02  0.30031587529E-02  0.00000000000E+00 0.  1.
     999901    1    1    0    0    0  0.18338541636E-02 -0.15993399648E-01 -0.63093880980E-02  0.90016607370E+00  0.90000000000E+00 0. -1.
     999903    1    1    0    0    0  0.13112036704E-02  0.84204945241E-02  0.25011434391E-02  0.21883320169E-01  0.20000000000E-01 0.  0.
</event>
<event>
 7    1  0.5676831E-066  0.9118800E+02  0.7957747E-01            NaN
     999900   -1    0    0    0    0  0.00000000000E+00  0.00000000000E+00  0.99999998245E-14  0.93827000000E+00  0.93827000000E+00 0.  1.
        -11    1    1    0    0    0 -0.13909995329E-02  0.17744047229E-02  0.10601654357E-02  0.25433174344E-02  0.51100000000E-03 0. -1.
        -14    1    1    0    0    0  0.50321025428E-02 -0.58845560420E-02  0.11857588096E-02  0.78330121772E-02  0.00000000000E+00 0. -1.
         12    1    1    0    0    0  0.95046871665E-03  0.13985100471E-02  0.26571532214E-03  0.17116733817E-02  0.00000000000E+00 0.  1.
         14    1    1    0    0    0 -0.11803859008E-02 -0.12730924632E-02  0.26159128357E-02  0.31395979454E-02  0.00000000000E+00 0.  1.
     999901    1    1    0    0    0 -0.14336769777E-01  0.38284695184E-02 -0.72704254853E-02  0.90015168679E+00  0.90000000000E+00 0. -1.
     999903    1    1    0    0    0  0.10925583951E-01  0.15626421687E-03  0.21428730821E-02  0.22890712270E-01  0.20000000000E-01 0.  0.
</event>
<event>
 7    1  0.5676831E-066  0.9118800E+02  0.7957747E-01            NaN
     999900   -1    0    0    0    0  0.00000000000E+00  0.00000000000E+00  0.99999998245E-14  0.93827000000E+00  0.93827000000E+00 0.  1.
        -11    1    1    0    0    0 -0.11874915751E-02 -0.14229622294E-02 -0.35857163087E-03  0.19556718441E-02  0.51100000000E-03 0. -1.
        -14    1    1    0    0    0  0.11364610448E-02 -0.48991936806E-03 -0.36453994150E-02  0.38497404573E-02  0.00000000000E+00 0. -1.
         12    1    1    0    0    0  0.18876964554E-02  0.23527873514E-02 -0.93464499723E-03  0.31579372222E-02  0.00000000000E+00 0.  1.
         14    1    1    0    0    0  0.21285576905E-02  0.17997108829E-02 -0.44207735250E-02  0.52261798346E-02  0.00000000000E+00 0.  1.
     999901    1    1    0    0    0  0.85598500586E-03 -0.13994320038E-01  0.12380948553E-01  0.90019434657E+00  0.90000000000E+00 0.  1.
     999903    1    1    0    0    0 -0.48212086215E-02  0.11754703402E-01 -0.30215589846E-02  0.23886124075E-01  0.20000000000E-01 0.  0.
</event>
<event>
 7    1  0.5676831E-066  0.9118800E+02  0.7957747E-01            NaN
     999900   -1    0    0    0    0  0.00000000000E+00  0.00000000000E+00  0.99999998245E-14  0.93827000000E+00  0.93827000000E+00 0.  1.
        -11    1    1    0    0    0  0.10468946621E-02  0.18397183891E-02  0.55335268792E-03  0.22467470668E-02  0.51100000000E-03 0. -1.
        -14    1    1    0    0    0 -0.37672575147E-02 -0.14643551985E-03  0.27657574596E-03  0.37802336815E-02  0.00000000000E+00 0. -1.
         12    1    1    0    0    0  0.53596495830E-02  0.17730723537E-02  0.21163885191E-02  0.60289907603E-02  0.00000000000E+00 0.  1.
         14    1    1    0    0    0 -0.21440581855E-02  0.60322412417E-03  0.26807280131E-03  0.22433742161E-02  0.00000000000E+00 0.  1.
     999901    1    1    0    0    0 -0.13178738855E-01 -0.44376915834E-02 -0.59543418568E-02  0.90012711683E+00  0.90000000000E+00 0. -1.
     999903    1    1    0    0    0  0.12683510311E-01  0.36811223624E-03  0.27399521025E-02  0.23843537446E-01  0.20000000000E-01 0.  0.
</event>
<event>
 7    1  0.5676831E-066  0.9118800E+02  0.7957747E-01            NaN
     999900   -1    0    0    0    0  0.00000000000E+00  0.00000000000E+00  0.99999998245E-14  0.93827000000E+00  0.93827000000E+00 0.  1.
        -11    1    1    0    0    0  0.76319857010E-03  0.77347685590E-03  0.97360347833E-03  0.15458859069E-02  0.51100000000E-03 0. -1.
        -14    1    1    0    0    0  0.34517042195E-02  0.35281373798E-02 -0.24970667411E-02  0.55314878378E-02  0.00000000000E+00 0. -1.
         12    1    1    0    0    0 -0.65305633022E-04  0.65266034664E-03 -0.19866584306E-02  0.20921381583E-02  0.00000000000E+00 0.  1.
         14    1    1    0    0    0  0.55031436708E-02  0.33173337359E-03 -0.36644424245E-03  0.55252980621E-02  0.00000000000E+00 0.  1.
     999901    1    1    0    0    0  0.17528254942E-02 -0.99933589717E-02  0.31027030478E-02  0.90006253471E+00  0.90000000000E+00 0.  1.
     999903    1    1    0    0    0 -0.11405566322E-01  0.47073510157E-02  0.77386288801E-03  0.23512655326E-01  0.20000000000E-01 0.  0.
</event>
<event>
 7    1  0.5676831E-066  0.9118800E+02  0.7957747E-01            NaN
     999900   -1    0    0    0    0  0.00000000000E+00  0.00000000000E+00  0.99999998245E-14  0.93827000000E+00  0.93827000000E+00 0. -1.
        -11    1    1    0    0    0  0.37243758299E-03 -0.50971908489E-03 -0.14712505256E-02  0.16805422958E-02  0.51100000000E-03 0. -1.
        -14    1    1    0    0    0  0.20435670430E-02  0.19714497175E-02 -0.24665500107E-03  0.28501962981E-02  0.00000000000E+00 0. -1.
         12    1    1    0    0    0  0.45176517108E-02 -0.25827804004E-02 -0.34302613686E-02  0.62327060442E-02  0.00000000000E+00 0.  1.
         14    1    1    0    0    0 -0.58687168403E-03  0.40729934938E-02 -0.17726876748E-02  0.44806378973E-02  0.00000000000E+00 0.  1.
     999901    1    1    0    0    0 -0.15240101990E-01 -0.30457816416E-02  0.21782142057E-03  0.90013420385E+00  0.90000000000E+00 0.  1.
     999903    1    1    0    0    0  0.88933173369E-02  0.93837915570E-04  0.67030331496E-02  0.22891713615E-01  0.20000000000E-01 0.  0.
</event>
<event>
 7    1  0.5676831E-066  0.9118800E+02  0.7957747E-01            NaN
     999900   -1    0    0    0    0  0.00000000000E+00  0.00000000000E+00  0.99999998245E-14  0.93827000000E+00  0.93827000000E+00 0. -1.
        -11    1    1    0    0    0  0.27446663730E-02  0.10291005067E-02  0.89364358022E-03  0.31067605637E-02  0.51100000000E-03 0. -1.
        -14    1    1    0    0    0 -0.92245008086E-03  0.30652260366E-02 -0.15181884520E-02  0.35427984677E-02  0.00000000000E+00 0. -1.
         12    1    1    0    0    0 -0.17567433975E-02  0.12336399472E-02  0.45250015543E-02  0.50083584087E-02  0.00000000000E+00 0.  1.
         14    1    1    0    0    0  0.18896151713E-02 -0.32797810987E-02 -0.23732850107E-02  0.44676717978E-02  0.00000000000E+00 0.  1.
     999901    1    1    0    0    0 -0.94865930717E-02 -0.58560809526E-03 -0.68325234927E-02  0.90007611998E+00  0.90000000000E+00 0.  1.
     999903    1    1    0    0    0  0.75315050057E-02 -0.14625772966E-02  0.53053518209E-02  0.22068290780E-01  0.20000000000E-01 0.  0.
</event>
<event>
 7    1  0.5676831E-066  0.9118800E+02  0.7957747E-01            NaN
     999900   -1    0    0    0    0  0.00000000000E+00  0.00000000000E+00  0.99999998245E-14  0.93827000000E+00  0.93827000000E+00 0. -1.
        -11    1    1    0    0    0  0.37276012509E-03 -0.28946925559E-02  0.37715570798E-02  0.47962442505E-02  0.51100000000E-03 0. -1.
        -14    1    1    0    0    0 -0.41303378621E-02  0.27881566232E-02  0.41073924097E-02  0.64578774081E-02  0.00000000000E+00 0. -1.
         12    1    1    0    0    0  0.37656049981E-02  0.13758053012E-02  0.16782626401E-02  0.43461692003E-02  0.00000000000E+00 0.  1.
         14    1    1    0    0    0 -0.15522143528E-03 -0.89845124522E-06  0.29998234651E-03  0.33776309656E-03  0.00000000000E+00 0.  1.
     999901    1    1    0    0    0  0.45683868665E-02 -0.42191121523E-03 -0.18208402558E-01  0.90019586429E+00  0.90000000000E+00 0.  1.
     999903    1    1    0    0    0 -0.44211926923E-02 -0.84645970194E-03  0.83512080822E-02  0.22136081751E-01  0.20000000000E-01 0.  0.
</event>
<event>
 7    1  0.5676831E-066  0.9118800E+02  0.7957747E-01            NaN
     999900   -1    0    0    0    0  0.00000000000E+00  0.00000000000E+00  0.99999998245E-14  0.93827000000E+00  0.93827000000E+00 0. -1.
        -11    1    1    0    0    0  0.10033163912E-02 -0.23652451429E-03 -0.96968936908E-03  0.15046614567E-02  0.51100000000E-03 0. -1.
        -14    1    1    0    0    0  0.84319634894E-03 -0.60716726666E-02  0.38470352427E-03  0.61420017792E-02  0.00000000000E+00 0. -1.
         12    1    1    0    0    0 -0.43368951271E-02  0.34916935328E-04  0.42938589695E-03  0.43582394134E-02  0.00000000000E+00 0.  1.
         14    1    1    0    0    0  0.36232696224E-02 -0.68027781059E-03 -0.38602921432E-02  0.53378568815E-02  0.00000000000E+00 0.  1.
     999901    1    1    0    0    0 -0.16125011861E-02  0.12718937347E-01  0.33822702695E-02  0.90009766763E+00  0.90000000000E+00 0. -1.
     999903    1    1    0    0    0  0.47961395062E-03 -0.57653792905E-02  0.63362182156E-03  0.20829572836E-01  0.20000000000E-01 0.  0.
</event>
<event>
 7    1  0.5676831E-066  0.9118800E+02  0.7957747E-01            NaN
     999900   -1    0    0    0    0  0.00000000000E+00  0.00000000000E+00  0.99999998245E-14  0.93827000000E+00  0.93827000000E+00 0. -1.
        -11    1    1    0    0    0 -0.53228955561E-02  0.35167279540E-03  0.13527539235E-02  0.55270204481E-02  0.51100000000E-03 0. -1.
        -14    1    1    0    0    0  0.12302653135E-02 -0.14276373662E-03 -0.84664939841E-04  0.12414114460E-02  0.00000000000E+00 0. -1.
         12    1    1    0    0    0  0.75877652427E-03  0.24697643115E-02 -0.45520457608E-03  0.26234879024E-02  0.00000000000E+00 0.  1.
         14    1    1    0    0    0  0.26154186838E-02 -0.43201140063E-02 -0.20271137534E-03  0.50541954672E-02  0.00000000000E+00 0.  1.
     999901    1    1    0    0    0 -0.27608386625E-02  0.52945028909E-02 -0.12322356763E-01  0.90010415757E+00  0.90000000000E+00 0.  1.
     999903    1    1    0    0    0  0.34792736970E-02 -0.36530622549E-02  0.11712183731E-01  0.23719727171E-01  0.20000000000E-01 0.  0.
</event>
<event>
 7    1  0.5676831E-066  0.9118800E+02  0.7957747E-01            NaN
     999900   -1    0    0    0    0  0.00000000000E+00  0.00000000000E+00  0.99999998245E-14  0.93827000000E+00  0.93827000000E+00 0.  1.
        -11    1    1    0    0    0  0.18593905965E-03  0.10708083280E-02 -0.10411912292E-03  0.12054731855E-02  0.51100000000E-03 0. -1.
        -14    1    1    0    0    0  0.40969798926E-03  0.21299966507E-03  0.29492269807E-02  0.29851567937E-02  0.00000000000E+00 0. -1.
         12    1    1    0    0    0 -0.25539991169E-02  0.13347958398E-02 -0.22759302538E-02  0.36721179097E-02  0.00000000000E+00 0.  1.
         14    1    1    0    0    0  0.25146177828E-03 -0.10357773571E-02  0.51629227354E-02  0.52717965563E-02  0.00000000000E+00 0.  1.
     999901    1    1    0    0    0  0.93205916404E-02 -0.66060712583E-02  0.62620153827E-02  0.90009428753E+00  0.90000000000E+00 0.  1.
     999903    1    1    0    0    0 -0.76136913507E-02  0.50232447825E-02 -0.11994115722E-01  0.25041168026E-01  0.20000000000E-01 0.  0.
</event>
<event>
 7    1  0.5676831E-066  0.9118800E+02  0.7957747E-01            NaN
     999900   -1    0    0    0    0  0.00000000000E+00  0.00000000000E+00  0.99999998245E-14  0.93827000000E+00  0.93827000000E+00 0.  1.
        -11    1    1    0    0    0 -0.44553518190E-02 -0.34095151600E-03  0.75324709561E-03  0.45601436331E-02  0.51100000000E-03 0. -1.
        -14    1    1    0    0    0 -0.48200381539E-03  0.13464249880E-02  0.15800997380E-02  0.21311741150E-02  0.00000000000E+00 0. -1.
         12    1    1    0    0    0 -0.10495507616E-02  0.34772290772E-02 -0.14428906752E-03  0.36350375777E-02  0.00000000000E+00 0.  1.
         14    1    1    0    0    0  0.10810958633E-02  0.33141378764E-03 -0.13244923316E-02  0.17415175281E-02  0.00000000000E+00 0.  1.
     999901    1    1    0    0    0 -0.27434408207E-02  0.10178719894E-01 -0.78944714856E-03  0.90006208454E+00  0.90000000000E+00 0.  1.
     999903    1    1    0    0    0  0.76492513535E-02 -0.14992836230E-01 -0.75118285926E-04  0.26140042602E-01  0.20000000000E-01 0.  0.
</event>
<event>
 7    1  0.5676831E-066  0.9118800E+02  0.7957747E-01            NaN
     999900   -1    0    0    0    0  0.00000000000E+00  0.00000000000E+00  0.99999998245E-14  0.93827000000E+00  0.93827000000E+00 0.  1.
        -11    1    1    0    0    0 -0.49585255237E-02  0.25770034384E-02  0.31302978034E-02  0.64255589195E-02  0.51100000000E-03 0. -1.
        -14    1    1    0    0    0  0.66978248994E-02  0.22221820821E-02 -0.71474890698E-03  0.70929413920E-02  0.00000000000E+00 0. -1.
         12    1    1    0    0    0 -0.57473998823E-04  0.50921564078E-03 -0.25784320638E-03  0.57366100480E-03  0.00000000000E+00 0.  1.
         14    1    1    0    0    0 -0.11751881903E-02  0.19111170103E-03  0.12642382137E-02  0.17366315746E-02  0.00000000000E+00 0.  1.
     999901    1    1    0    0    0 -0.39738108274E-02 -0.98092003266E-02  0.49220299190E-02  0.90007568457E+00  0.90000000000E+00 0.  1.
     999903    1    1    0    0    0  0.34671736408E-02  0.43096874643E-02 -0.83439738227E-02  0.22365522535E-01  0.20000000000E-01 0.  0.
</event>
<event>
 7    1  0.5676831E-066  0.9118800E+02  0.7957747E-01            NaN
     999900   -1    0    0    0    0  0.00000000000E+00  0.00000000000E+00  0.99999998245E-14  0.93827000000E+00  0.93827000000E+00 0.  1.
        -11    1    1    0    0    0  0.28312291425E-03 -0.31056582863E-02 -0.24425074156E-02  0.39940249687E-02  0.51100000000E-03 0. -1.
        -14    1    1    0    0    0  0.12574364285E-02  0.19200160142E-02 -0.59533098631E-03  0.23710813672E-02  0.00000000000E+00 0. -1.
         12    1    1    0    0    0 -0.47866228045E-02 -0.15717099591E-02  0.36235090297E-02  0.62057914689E-02  0.00000000000E+00 0.  1.
         14    1    1    0    0    0  0.16840519364E-02  0.25149821891E-02  0.21612757521E-02  0.37191772225E-02  0.00000000000E+00 0.  1.
     999901    1    1    0    0    0 -0.41316013371E-02 -0.90075236615E-05 -0.96707892066E-02  0.90006143922E+00  0.90000000000E+00 0. -1.
     999903    1    1    0    0    0  0.56936128623E-02  0.25137756569E-03  0.69238428267E-02  0.21918485751E-01  0.20000000000E-01 0.  0.
</event>
<event>
 7    1  0.5676831E-066  0.9118800E+02  0.7957747E-01            NaN
     999900   -1    0    0    0    0  0.00000000000E+00  0.00000000000E+00  0.99999998245E-14  0.93827000000E+00  0.93827000000E+00 0. -1.
        -11    1    1    0    0    0  0.49363108002E-03  0.18482736781E-02  0.50852515582E-02  0.54571688303E-02  0.51100000000E-03 0. -1.
        -14    1    1    0    0    0  0.31988492806E-02 -0.30056505554E-02 -0.40227842743E-03  0.44077658643E-02  0.00000000000E+00 0. -1.
         12    1    1    0    0    0  0.20542710430E-02 -0.30310553067E-02 -0.94667881636E-04  0.36628251117E-02  0.00000000000E+00 0.  1.
         14    1    1    0    0    0 -0.95051791020E-03 -0.53248471860E-03 -0.33563491164E-03  0.11400329237E-02  0.00000000000E+00 0.  1.
     999901    1    1    0    0    0 -0.45033425125E-03  0.21413499205E-02  0.71515979058E-02  0.90003107365E+00  0.90000000000E+00 0. -1.
     999903    1    1    0    0    0 -0.43458992422E-02  0.25795669822E-02 -0.11404268243E-01  0.23571133622E-01  0.20000000000E-01 0.  0.
</event>
<event>
 7    1  0.5676831E-066  0.9118800E+02  0.7957747E-01            NaN
     999900   -1    0    0    0    0  0.00000000000E+00  0.00000000000E+00  0.99999998245E-14  0.93827000000E+00  0.93827000000E+00 0.  1.
        -11    1    1    0    0    0 -0.44764225812E-03 -0.13192542236E-02  0.18875322388E-02  0.24009819346E-02  0.51100000000E-03 0. -1.
        -14    1    1    0    0    0  0.60936672440E-02  0.57724818120E-02  0.24339238357E-02  0.87394686331E-02  0.00000000000E+00 0. -1.
         12    1    1    0    0    0 -0.20191884394E-02 -0.18880126214E-02 -0.26001604774E-02  0.37950689217E-02  0.00000000000E+00 0.  1.
         14    1    1    0    0    0  0.80728273597E-03 -0.35027307453E-03  0.70402748791E-05  0.88002625416E-03  0.00000000000E+00 0.  1.
     999901    1    1    0    0    0 -0.11878550949E-01 -0.83132825887E-02 -0.41639780820E-02  0.90012640743E+00  0.90000000000E+00 0.  1.
     999903    1    1    0    0    0  0.74444316670E-02  0.60983406962E-02  0.24356422099E-02  0.22328046826E-01  0.20000000000E-01 0.  0.
</event>
<event>
 7    1  0.5676831E-066  0.9118800E+02  0.7957747E-01            NaN
     999900   -1    0    0    0    0  0.00000000000E+00  0.00000000000E+00  0.99999998245E-14  0.93827000000E+00  0.93827000000E+00 0.  1.
        -11    1    1    0    0    0  0.33453307687E-02  0.22672908303E-02  0.19086835941E-02  0.44984485908E-02  0.51100000000E-03 0. -1.
        -14    1    1    0    0    0 -0.10701815689E-03 -0.32051034617E-03 -0.54170528436E-03  0.63845468360E-03  0.00000000000E+00 0. -1.
         12    1    1    0    0    0 -0.42946408007E-03 -0.64277253335E-03  0.89685852643E-03  0.11840401776E-02  0.00000000000E+00 0.  1.
         14    1    1    0    0    0  0.19856176970E-02  0.19595563346E-02 -0.37362508895E-02  0.46628434861E-02  0.00000000000E+00 0.  1.
     999901    1    1    0    0    0  0.69225213261E-02  0.85978697470E-02  0.92369983065E-02  0.90011508531E+00  0.90000000000E+00 0.  1.
     999903    1    1    0    0    0 -0.11716987555E-01 -0.11861434032E-01 -0.77645842532E-02  0.27171127752E-01  0.20000000000E-01 0.  0.
</event>
<event>
 7    1  0.5676831E-066  0.9118800E+02  0.7957747E-01            NaN
     999900   -1    0    0    0    0  0.00000000000E+00  0.00000000000E+00  0.99999998245E-14  0.93827000000E+00  0.93827000000E+00 0.  1.
        -11    1    1    0    0    0  0.48258427302E-02  0.14091221589E-02  0.95667727552E-03  0.51430278752E-02  0.51100000000E-03 0. -1.
        -14    1    1    0    0    0 -0.91136646439E-03 -0.11484121140E-02 -0.14443570853E-03  0.14731941114E-02  0.00000000000E+00 0. -1.
         12    1    1    0    0    0  0.97407668952E-04 -0.31272278460E-02  0.57060148457E-03  0.31803503438E-02  0.00000000000E+00 0.  1.
         14    1    1    0    0    0  0.65163111983E-03 -0.52897471482E-03  0.18234201675E-02  0.20073112545E-02  0.00000000000E+00 0.  1.
     999901    1    1    0    0    0  0.18572024003E-02  0.14690798589E-03  0.12375277509E-01  0.90008700595E+00  0.90000000000E+00 0.  1.
     999903    1    1    0    0    0 -0.65207174549E-02  0.32485845300E-02 -0.15581540728E-01  0.26379110467E-01  0.20000000000E-01 0.  0.
</event>
<event>
 7    1  0.5676831E-066  0.9118800E+02  0.7957747E-01            NaN
     999900   -1    0    0    0    0  0.00000000000E+00  0.00000000000E+00  0.99999998245E-14  0.93827000000E+00  0.93827000000E+00 0. -1.
        -11    1    1    0    0    0 -0.89120034517E-03 -0.93758656613E-03 -0.29913470333E-02  0.32988762781E-02  0.51100000000E-03 0. -1.
        -14    1    1    0    0    0 -0.22386575575E-02 -0.99510393376E-03  0.22664529536E-02  0.33374583878E-02  0.00000000000E+00 0. -1.
         12    1    1    0    0    0  0.35986119682E-02 -0.60931665758E-03 -0.51554444176E-03  0.36860630703E-02  0.00000000000E+00 0.  1.
         14    1    1    0    0    0 -0.18250622732E-02 -0.16551480279E-02  0.38279505989E-03  0.24933710822E-02  0.00000000000E+00 0.  1.
     999901    1    1    0    0    0 -0.90182645814E-04 -0.10957694518E-01  0.43547470490E-02  0.90007724281E+00  0.90000000000E+00 0.  1.
     999903    1    1    0    0    0  0.14464908535E-02  0.15154849704E-01 -0.34971035874E-02  0.25376988372E-01  0.20000000000E-01 0.  0.
</event>
<event>
 7    1  0.5676831E-066  0.9118800E+02  0.7957747E-01            NaN
     999900   -1    0    0    0    0  0.00000000000E+00  0.00000000000E+00  0.99999998245E-14  0.93827000000E+00  0.93827000000E+00 0. -1.
        -11    1    1    0    0    0 -0.15518179023E-02  0.35343912410E-02 -0.18864769757E-02  0.43266588294E-02  0.51100000000E-03 0. -1.
        -14    1    1    0    0    0 -0.19680786547E-02 -0.13662981498E-02 -0.31729779964E-03  0.24167710108E-02  0.00000000000E+00 0. -1.
         12    1    1    0    0    0 -0.28606623666E-02  0.19841855153E-03  0.11458000104E-02  0.30879793978E-02  0.00000000000E+00 0.  1.
         14    1    1    0    0    0 -0.44801603160E-02  0.37757000354E-02 -0.35867968615E-02  0.68697058846E-02  0.00000000000E+00 0.  1.
     999901    1    1    0    0    0  0.79403834580E-02 -0.16452908687E-02 -0.12589306389E-02  0.90003741121E+00  0.90000000000E+00 0.  1.
     999903    1    1    0    0    0  0.29203357816E-02 -0.44969208096E-02  0.59037022653E-02  0.21531473667E-01  0.20000000000E-01 0.  0.
</event>
<event>
 7    1  0.5676831E-066  0.9118800E+02  0.7957747E-01            NaN
     999900   -1    0    0    0    0  0.00000000000E+00  0.00000000000E+00  0.99999998245E-14  0.93827000000E+00  0.93827000000E+00 0.  1.
        -11    1    1    0    0    0 -0.82538889734E-03 -0.73526296294E-03 -0.38616118801E-03  0.12775444883E-02  0.51100000000E-03 0. -1.
        -14    1    1    0    0    0  0.73523905310E-03  0.30196657902E-02 -0.37254167478E-02  0.48515655096E-02  0.00000000000E+00 0. -1.
         12    1    1    0    0    0  0.16905004057E-02 -0.17248885283E-02 -0.10126697652E-02  0.26188799343E-02  0.00000000000E+00 0.  1.
         14    1    1    0    0    0  0.14136251135E-02  0.11610710953E-02  0.48377133801E-02  0.51720298528E-02  0.00000000000E+00 0.  1.
     999901    1    1    0    0    0  0.13706459787E-02 -0.57295279693E-02  0.12630828272E-01  0.90010790686E+00  0.90000000000E+00 0.  1.
     999903    1    1    0    0    0 -0.43846216537E-02  0.40089425751E-02 -0.12344293951E-01  0.24242073359E-01  0.20000000000E-01 0.  0.
</event>
<event>
 7    1  0.5676831E-066  0.9118800E+02  0.7957747E-01            NaN
     999900   -1    0    0    0    0  0.00000000000E+00  0.00000000000E+00  0.99999998245E-14  0.93827000000E+00  0.93827000000E+00 0. -1.
        -11    1    1    0    0    0  0.10078477566E-02  0.87421525186E-03  0.21000997448E-02  0.25399900286E-02  0.51100000000E-03 0. -1.
        -14    1    1    0    0    0 -0.20405896252E-02  0.14964158863E-02  0.26953776932E-02  0.36970701146E-02  0.00000000000E+00 0. -1.
         12    1    1    0    0    0  0.54179718906E-02  0.13358454884E-02  0.26435950240E-03  0.55864826611E-02  0.00000000000E+00 0.  1.
         14    1    1    0    0    0 -0.14347303327E-02  0.37079389331E-03 -0.16979540733E-02  0.22536608605E-02  0.00000000000E+00 0.  1.
     999901    1    1    0    0    0 -0.15288418708E-01 -0.76514671812E-02 -0.67172759031E-02  0.90018742631E+00  0.90000000000E+00 0.  1.
     999903    1    1    0    0    0  0.12337919018E-01  0.35741966614E-02  0.33553930360E-02  0.24005370022E-01  0.20000000000E-01 0.  0.
</event>
<event>
 7    1  0.5676831E-066  0.9118800E+02  0.7957747E-01            NaN
     999900   -1    0    0    0    0  0.00000000000E+00  0.00000000000E+00  0.99999998245E-14  0.93827000000E+00  0.93827000000E+00 0.  1.
        -11    1    1    0    0    0  0.45505360523E-02  0.59619528572E-02 -0.14074659949E-02  0.76481593708E-02  0.51100000000E-03 0. -1.
        -14    1    1    0    0    0 -0.14285310477E-02  0.16385207001E-03  0.29952120197E-02  0.33224755075E-02  0.00000000000E+00 0. -1.
         12    1    1    0    0    0 -0.31734722357E-02  0.54721596777E-04 -0.17589577131E-02  0.36287536043E-02  0.00000000000E+00 0.  1.
         14    1    1    0    0    0  0.15346560867E-02  0.13991797757E-02 -0.32923730745E-03  0.21026817528E-02  0.00000000000E+00 0.  1.
     999901    1    1    0    0    0  0.22070354936E-02 -0.11132413648E-01 -0.54283962115E-02  0.90008792300E+00  0.90000000000E+00 0. -1.
     999903    1    1    0    0    0 -0.36902243490E-02  0.35527073486E-02  0.59288452073E-02  0.21480006768E-01  0.20000000000E-01 0.  0.
</event>
<event>
 7    1  0.5676831E-066  0.9118800E+02  0.7957747E-01            NaN
     999900   -1    0    0    0    0  0.00000000000E+00  0.00000000000E+00  0.99999998245E-14  0.93827000000E+00  0.93827000000E+00 0. -1.
        -11    1    1    0    0    0  0.14861781661E-03  0.13128788756E-02  0.32380426796E-02  0.35343711735E-02  0.51100000000E-03 0. -1.
        -14    1    1    0    0    0 -0.20057569298E-02 -0.46057669076E-03 -0.97438714149E-03  0.22769765152E-02  0.00000000000E+00 0. -1.
         12    1    1    0    0    0  0.16505400638E-02 -0.24700923902E-02 -0.17832813409E-02  0.34649287524E-02  0.00000000000E+00 0.  1.
         14    1    1    0    0    0 -0.26463040823E-02  0.82807667344E-03  0.33969926573E-02  0.43849966234E-02  0.00000000000E+00 0.  1.
     999901    1    1    0    0    0 -0.77965397196E-02 -0.60984115598E-03  0.54888846361E-02  0.90005071290E+00  0.90000000000E+00 0. -1.
     999903    1    1    0    0    0  0.10649442851E-01  0.13995546879E-02 -0.93662514906E-02  0.24558014035E-01  0.20000000000E-01 0.  0.
</event>
<event>
 7    1  0.5676831E-066  0.9118800E+02  0.7957747E-01            NaN
     999900   -1    0    0    0    0  0.00000000000E+00  0.00000000000E+00  0.99999998245E-14  0.93827000000E+00  0.93827000000E+00 0. -1.
        -11    1    1    0    0    0 -0.34324536223E-02 -0.51240980334E-02 -0.88828297855E-03  0.62520625537E-02  0.51100000000E-03 0. -1.
        -14    1    1    0    0    0 -0.35599925727E-03  0.86524455234E-03  0.71879119486E-03  0.11798493075E-02  0.00000000000E+00 0. -1.
         12    1    1    0    0    0 -0.20965981185E-02 -0.25949615502E-02 -0.16503695429E-02  0.37219979508E-02  0.00000000000E+00 0.  1.
         14    1    1    0    0    0  0.41897044370E-02 -0.34627733301E-02 -0.84952747616E-03  0.55014651992E-02  0.00000000000E+00 0.  1.
     999901    1    1    0    0    0  0.14989421932E-02  0.90031189611E-02 -0.52532826276E-02  0.90006160898E+00  0.90000000000E+00 0. -1.
     999903    1    1    0    0    0  0.19640436792E-03  0.13134694003E-02  0.79226714304E-02  0.21553016010E-01  0.20000000000E-01 0.  0.
</event>
<event>
 7    1  0.5676831E-066  0.9118800E+02  0.7957747E-01            NaN
     999900   -1    0    0    0    0  0.00000000000E+00  0.00000000000E+00  0.99999998245E-14  0.93827000000E+00  0.93827000000E+00 0.  1.
        -11    1    1    0    0    0  0.31214717908E-02 -0.70238371192E-03  0.17442229094E-03  0.32447608780E-02  0.51100000000E-03 0. -1.
        -14    1    1    0    0    0 -0.11658016169E-02 -0.13651178490E-02  0.43074012777E-03  0.18461249171E-02  0.00000000000E+00 0. -1.
         12    1    1    0    0    0 -0.25239650047E-02  0.18902136469E-02 -0.13434054657E-02  0.34275421545E-02  0.00000000000E+00 0.  1.
         14    1    1    0    0    0 -0.54641251859E-02 -0.37093551314E-02  0.26570313713E-02  0.71186933665E-02  0.00000000000E+00 0.  1.
     999901    1    1    0    0    0 -0.11109782026E-02  0.12347083112E-02  0.53878682626E-02  0.90001765977E+00  0.90000000000E+00 0.  1.
     999903    1    1    0    0    0  0.71433982193E-02  0.26519347343E-02 -0.73066565869E-02  0.22615218912E-01  0.20000000000E-01 0.  0.
</event>
<event>
 7    1  0.5676831E-066  0.9118800E+02  0.7957747E-01            NaN
     999900   -1    0    0    0    0  0.00000000000E+00  0.00000000000E+00  0.99999998245E-14  0.93827000000E+00  0.93827000000E+00 0.  1.
        -11    1    1    0    0    0 -0.28703799281E-02  0.49603604415E-03  0.12796144899E-04  0.29574342647E-02  0.51100000000E-03 0. -1.
        -14    1    1    0    0    0  0.42340744809E-02 -0.37318855671E-02 -0.13630703788E-02  0.58062309163E-02  0.00000000000E+00 0. -1.
         12    1    1    0    0    0  0.93333204795E-03  0.17228621357E-02 -0.19206977194E-02  0.27438007179E-02  0.00000000000E+00 0.  1.
         14    1    1    0    0    0  0.25756310760E-02 -0.27377246062E-02  0.28710246901E-02  0.47298831095E-02  0.00000000000E+00 0.  1.
     999901    1    1    0    0    0 -0.71801510238E-02 -0.40507661996E-02 -0.26600225841E-02  0.90004168737E+00  0.90000000000E+00 0. -1.
     999903    1    1    0    0    0  0.23074933471E-02  0.83014781931E-02  0.30599698473E-02  0.21990963626E-01  0.20000000000E-01 0.  0.
</event>
<event>
 7    1  0.5676831E-066  0.9118800E+02  0.7957747E-01            NaN
     999900   -1    0    0    0    0  0.00000000000E+00  0.00000000000E+00  0.99999998245E-14  0.93827000000E+00  0.93827000000E+00 0.  1.
        -11    1    1    0    0    0 -0.12626683659E-02 -0.15113785339E-02 -0.24061707282E-03  0.20488079584E-02  0.51100000000E-03 0. -1.
        -14    1    1    0    0    0  0.13257428884E-02  0.58054112233E-02  0.18231380694E-02  0.62276982986E-02  0.00000000000E+00 0. -1.
         12    1    1    0    0    0 -0.22964892229E-02  0.28333115642E-02  0.18386847361E-02  0.40843945364E-02  0.00000000000E+00 0.  1.
         14    1    1    0    0    0  0.23834697736E-02  0.17605890566E-02 -0.34410544885E-02  0.45410855509E-02  0.00000000000E+00 0.  1.
     999901    1    1    0    0    0 -0.54968412739E-02 -0.51393292252E-02 -0.34900908032E-02  0.90003822625E+00  0.90000000000E+00 0. -1.
     999903    1    1    0    0    0  0.53467862007E-02 -0.37486040851E-02  0.35099395591E-02  0.21329787410E-01  0.20000000000E-01 0.  0.
</event>
<event>
 7    1  0.5676831E-066  0.9118800E+02  0.7957747E-01            NaN
     999900   -1    0    0    0    0  0.00000000000E+00  0.00000000000E+00  0.99999998245E-14  0.93827000000E+00  0.93827000000E+00 0.  1.
        -11    1    1    0    0    0  0.17615371709E-04  0.22371907445E-02 -0.85877724620E-03  0.24502963264E-02  0.51100000000E-03 0. -1.
        -14    1    1    0    0    0 -0.28269470785E-02 -0.59814472864E-02  0.25881535471E-02  0.71040749016E-02  0.00000000000E+00 0. -1.
         12    1    1    0    0    0  0.73179705777E-03  0.68653916784E-03  0.24552317047E-03  0.10330269067E-02  0.00000000000E+00 0.  1.
         14    1    1    0    0    0 -0.35544345769E-02 -0.35314103246E-03 -0.21479746883E-04  0.35719987583E-02  0.00000000000E+00 0.  1.
     999901    1    1    0    0    0 -0.76708944226E-02  0.46389978934E-02 -0.11403621786E-02  0.90004536738E+00  0.90000000000E+00 0. -1.
     999903    1    1    0    0    0  0.13302863648E-01 -0.12281394869E-02 -0.81305754593E-03  0.24065235723E-01  0.20000000000E-01 0.  0.
</event>
<event>
 7    1  0.5676831E-066  0.9118800E+02  0.7957747E-01            NaN
     999900   -1    0    0    0    0  0.00000000000E+00  0.00000000000E+00  0.99999998245E-14  0.93827000000E+00  0.93827000000E+00 0.  1.
        -11    1    1    0    0    0 -0.77867809722E-03  0.13830728155E-02 -0.23125275813E-02  0.28509883912E-02  0.51100000000E-03 0. -1.
        -14    1    1    0    0    0 -0.75141649310E-03 -0.24520344091E-03  0.25858353622E-02  0.27039408266E-02  0.00000000000E+00 0. -1.
         12    1    1    0    0    0  0.28074330720E-02 -0.47468104371E-02  0.47361502709E-02  0.72694572815E-02  0.00000000000E+00 0.  1.
         14    1    1    0    0    0 -0.19511657547E-02  0.20473049331E-02  0.50171512206E-03  0.28723202041E-02  0.00000000000E+00 0.  1.
     999901    1    1    0    0    0 -0.68364808567E-02  0.82610524373E-02 -0.75059083706E-02  0.90009517337E+00  0.90000000000E+00 0.  1.
     999903    1    1    0    0    0  0.75103081297E-02 -0.66994163078E-02  0.19947351968E-02  0.22478119930E-01  0.20000000000E-01 0.  0.
</event>
<event>
 7    1  0.5676831E-066  0.9118800E+02  0.7957747E-01            NaN
     999900   -1    0    0    0    0  0.00000000000E+00  0.00000000000E+00  0.99999998245E-14  0.93827000000E+00  0.93827000000E+00 0. -1.
        -11    1    1    0    0    0  0.33729707665E-02 -0.36397693690E-03 -0.18566115325E-03  0.34358408092E-02  0.51100000000E-03 0. -1.
        -14    1    1    0    0    0 -0.57705098331E-03 -0.21585838353E-02 -0.65670313241E-03  0.23288905117E-02  0.00000000000E+00 0. -1.
         12    1    1    0    0    0 -0.25011961804E-02  0.24010654619E-02  0.14392072169E-02  0.37539865607E-02  0.00000000000E+00 0.  1.
         14    1    1    0    0    0  0.31255839292E-02 -0.40556124705E-02  0.53042059511E-02  0.73723719508E-02  0.00000000000E+00 0.  1.
     999901    1    1    0    0    0 -0.73964828772E-02 -0.13190000234E-02 -0.87121504933E-02  0.90007352438E+00  0.90000000000E+00 0.  1.
     999903    1    1    0    0    0  0.39761753452E-02  0.54961078043E-02  0.28111016110E-02  0.21305385790E-01  0.20000000000E-01 0.  0.
</event>
<event>
 7    1  0.5676831E-066  0.9118800E+02  0.7957747E-01            NaN
     999900   -1    0    0    0    0  0.00000000000E+00  0.00000000000E+00  0.99999998245E-14  0.93827000000E+00  0.93827000000E+00 0. -1.
        -11    1    1    0    0    0  0.86050466718E-03 -0.20236935935E-02  0.13698595017E-02  0.26407271910E-02  0.51100000000E-03 0. -1.
        -14    1    1    0    0    0 -0.38046930521E-02  0.26040693451E-03 -0.87048198097E-03  0.39116799296E-02  0.00000000000E+00 0. -1.
         12    1    1    0    0    0 -0.33387185027E-03 -0.43156222397E-03 -0.19298097390E-03  0.57875558041E-03  0.00000000000E+00 0.  1.
         14    1    1    0    0    0 -0.53441562092E-02 -0.54233399481E-03  0.13082864729E-02  0.55286295992E-02  0.00000000000E+00 0.  1.
     999901    1    1    0    0    0  0.99770060068E-02  0.11930437938E-01  0.11004524633E-01  0.90020163050E+00  0.90000000000E+00 0.  1.
     999903    1    1    0    0    0 -0.13547895624E-02 -0.91932550606E-02 -0.12619207653E-01  0.25408577197E-01  0.20000000000E-01 0.  0.
</event>
<event>
 7    1  0.5676831E-066  0.9118800E+02  0.7957747E-01            NaN
     999900   -1    0    0    0    0  0.00000000000E+00  0.00000000000E+00  0.99999998245E-14  0.93827000000E+00  0.93827000000E+00 0. -1.
        -11    1    1    0    0    0 -0.25047816707E-03  0.99598129463E-04 -0.44141914512E-02  0.44518385267E-02  0.51100000000E-03 0. -1.
        -14    1    1    0    0    0 -0.61718045172E-03  0.76315493726E-03  0.27605681335E-02  0.29298555575E-02  0.00000000000E+00 0. -1.
         12    1    1    0    0    0  0.21677589264E-02  0.12769013863E-02 -0.10458385363E-02  0.27245979808E-02  0.00000000000E+00 0.  1.
         14    1    1    0    0    0 -0.76813107318E-03 -0.34514367403E-03 -0.49508738278E-02  0.50219817961E-02  0.00000000000E+00 0.  1.
     999901    1    1    0    0    0 -0.30946367111E-02 -0.12428053567E-01  0.43011480297E-02  0.90010140160E+00  0.90000000000E+00 0. -1.
     999903    1    1    0    0    0  0.25626674767E-02  0.10633542788E-01  0.33491876521E-02  0.23040324537E-01  0.20000000000E-01 0.  0.
</event>
<event>
 7    1  0.5676831E-066  0.9118800E+02  0.7957747E-01            NaN
     999900   -1    0    0    0    0  0.00000000000E+00  0.00000000000E+00  0.99999998245E-14  0.93827000000E+00  0.93827000000E+00 0.  1.
        -11    1    1    0    0    0  0.61303260396E-03 -0.78768815494E-04 -0.19765197052E-02  0.21330177320E-02  0.51100000000E-03 0. -1.
        -14    1    1    0    0    0  0.29062442086E-02  0.24662351212E-02  0.11361626416E-02  0.39773655378E-02  0.00000000000E+00 0. -1.
         12    1    1    0    0    0 -0.38679869996E-02  0.23979959241E-03 -0.13503703881E-02  0.41039404794E-02  0.00000000000E+00 0.  1.
         14    1    1    0    0    0  0.83503915941E-03 -0.27672154955E-02  0.18137956354E-02  0.34124223952E-02  0.00000000000E+00 0.  1.
     999901    1    1    0    0    0 -0.13729439955E-01 -0.36448834980E-02  0.37946022982E-02  0.90012009293E+00  0.90000000000E+00 0.  1.
     999903    1    1    0    0    0  0.13243110983E-01  0.37848330954E-02 -0.34176704819E-02  0.24523160921E-01  0.20000000000E-01 0.  0.
</event>
<event>
 7    1  0.5676831E-066  0.9118800E+02  0.7957747E-01            NaN
     999900   -1    0    0    0    0  0.00000000000E+00  0.00000000000E+00  0.99999998245E-14  0.93827000000E+00  0.93827000000E+00 0. -1.
        -11    1    1    0    0    0 -0.16540384589E-02  0.19226835531E-02 -0.40588432633E-02  0.48133029101E-02  0.51100000000E-03 0. -1.
        -14    1    1    0    0    0  0.46388360484E-02 -0.90156560859E-03  0.21205520068E-03  0.47303898189E-02  0.00000000000E+00 0. -1.
         12    1    1    0    0    0 -0.25435417932E-02  0.65254554898E-03  0.16189088874E-03  0.26308989352E-02  0.00000000000E+00 0.  1.
         14    1    1    0    0    0 -0.11701824474E-02 -0.20005507201E-02  0.26591653469E-02  0.35274198058E-02  0.00000000000E+00 0.  1.
     999901    1    1    0    0    0  0.36635146091E-02  0.64859505970E-02  0.87372849338E-02  0.90007323538E+00  0.90000000000E+00 0. -1.
     999903    1    1    0    0    0 -0.29345879580E-02 -0.61590633704E-02 -0.77115531069E-02  0.22494753153E-01  0.20000000000E-01 0.  0.
</event>
<event>
 7    1  0.5676831E-066  0.9118800E+02  0.7957747E-01            NaN
     999900   -1    0    0    0    0  0.00000000000E+00  0.00000000000E+00  0.99999998245E-14  0.93827000000E+00  0.93827000000E+00 0.  1.
        -11    1    1    0    0    0 -0.58063864522E-02 -0.14133144396E-02 -0.22427506559E-02  0.64033298246E-02  0.51100000000E-03 0. -1.
        -14    1    1    0    0    0 -0.62792402046E-04 -0.12042188635E-03  0.18529421156E-02  0.18579124845E-02  0.00000000000E+00 0. -1.
         12    1    1    0    0    0  0.37829776623E-03 -0.17122737670E-02 -0.25008539275E-02  0.30543839018E-02  0.00000000000E+00 0.  1.
         14    1    1    0    0    0 -0.20831099240E-03  0.30205757307E-02 -0.36489617932E-02  0.47415391365E-02  0.00000000000E+00 0.  1.
     999901    1    1    0    0    0  0.89981804157E-03  0.59204955376E-02  0.45254275429E-03  0.90002003685E+00  0.90000000000E+00 0. -1.
     999903    1    1    0    0    0  0.47993740389E-02 -0.56950611754E-02  0.60870815067E-02  0.22192797801E-01  0.20000000000E-01 0.  0.
</event>
<event>
 7    1  0.5676831E-066  0.9118800E+02  0.7957747E-01            NaN
     999900   -1    0    0    0    0  0.00000000000E+00  0.00000000000E+00  0.99999998245E-14  0.93827000000E+00  0.93827000000E+00 0. -1.
        -11    1    1    0    0    0  0.30366614943E-02 -0.65404559762E-03  0.12824999055E-02  0.33992669331E-02  0.51100000000E-03 0. -1.
        -14    1    1    0    0    0 -0.10954652042E-02 -0.55542843601E-04 -0.11687890051E-03  0.11030819092E-02  0.00000000000E+00 0. -1.
         12    1    1    0    0    0 -0.75693995985E-03  0.90341934860E-03 -0.96141116464E-04  0.11825259982E-02  0.00000000000E+00 0.  1.
         14    1    1    0    0    0 -0.78969662100E-03 -0.61385833827E-02 -0.83369847270E-03  0.62450684418E-02  0.00000000000E+00 0.  1.
     999901    1    1    0    0    0 -0.92054081544E-02  0.82040057814E-02  0.13940396188E-01  0.90019241271E+00  0.90000000000E+00 0. -1.
     999903    1    1    0    0    0  0.88108484451E-02 -0.22592533061E-02 -0.14176177604E-01  0.26147644010E-01  0.20000000000E-01 0.  0.
</event>
<event>
 7    1  0.5676831E-066  0.9118800E+02  0.7957747E-01            NaN
     999900   -1    0    0    0    0  0.00000000000E+00  0.00000000000E+00  0.99999998245E-14  0.93827000000E+00  0.93827000000E+00 0. -1.
        -11    1    1    0    0    0 -0.13352971548E-02  0.12213217656E-02 -0.14298621188E-02  0.23622599403E-02  0.51100000000E-03 0. -1.
        -14    1    1    0    0    0  0.14464196114E-03 -0.67357624463E-03  0.46734666632E-02  0.47239725768E-02  0.00000000000E+00 0. -1.
         12    1    1    0    0    0  0.45724845301E-03 -0.14361293121E-02  0.14719343453E-02  0.21066879849E-02  0.00000000000E+00 0.  1.
         14    1    1    0    0    0 -0.14676533927E-02  0.48439785751E-02 -0.34368971263E-03  0.50730915166E-02  0.00000000000E+00 0.  1.
     999901    1    1    0    0    0  0.14259609036E-01 -0.69159469218E-02 -0.45589006472E-03  0.90013964173E+00  0.90000000000E+00 0.  1.
     999903    1    1    0    0    0 -0.12058548902E-01  0.29603521378E-02 -0.39159591123E-02  0.23864346255E-01  0.20000000000E-01 0.  0.
</event>
<event>
 7    1  0.5676831E-066  0.9118800E+02  0.7957747E-01            NaN
     999900   -1    0    0    0    0  0.00000000000E+00  0.00000000000E+00  0.99999998245E-14  0.93827000000E+00  0.93827000000E+00 0.  1.
        -11    1    1    0    0    0  0.10719903314E-02 -0.75407285710E-03  0.94506907803E-03  0.16947169990E-02  0.51100000000E-03 0. -1.
        -14    1    1    0    0    0  0.32767983505E-03  0.47379271791E-02 -0.40505623410E-02  0.62419855260E-02  0.00000000000E+00 0. -1.
         12    1    1    0    0    0 -0.41969965964E-03  0.13682211476E-02 -0.57774406472E-03  0.15433616288E-02  0.00000000000E+00 0.  1.
         14    1    1    0    0    0  0.41299013523E-02 -0.74316402717E-03 -0.17837792364E-04  0.41962716949E-02  0.00000000000E+00 0.  1.
     999901    1    1    0    0    0 -0.13277585082E-01  0.66890914799E-02  0.56022122477E-02  0.90014022407E+00  0.90000000000E+00 0.  1.
     999903    1    1    0    0    0  0.81677132232E-02 -0.11298002922E-01 -0.19011371276E-02  0.24453440079E-01  0.20000000000E-01 0.  0.
</event>
<event>
 7    1  0.5676831E-066  0.9118800E+02  0.7957747E-01            NaN
     999900   -1    0    0    0    0  0.00000000000E+00  0.00000000000E+00  0.99999998245E-14  0.93827000000E+00  0.93827000000E+00 0.  1.
        -11    1    1    0    0    0 -0.35598940966E-02 -0.57768860077E-03  0.10992986180E-02  0.38047534152E-02  0.51100000000E-03 0. -1.
        -14    1    1    0    0    0  0.52951645493E-03  0.55540055880E-03 -0.10722507405E-02  0.13185518978E-02  0.00000000000E+00 0. -1.
         12    1    1    0    0    0  0.18021872371E-02 -0.59638837843E-03  0.18888544502E-02  0.26779337314E-02  0.00000000000E+00 0.  1.
         14    1    1    0    0    0  0.60108974860E-03  0.28761374880E-02 -0.76021894067E-02  0.81502613155E-02  0.00000000000E+00 0.  1.
     999901    1    1    0    0    0 -0.43273895330E-02 -0.59916073380E-02 -0.19411382685E-02  0.90003244035E+00  0.90000000000E+00 0. -1.
     999903    1    1    0    0    0  0.49544901890E-02  0.37341462705E-02  0.76274253475E-02  0.22286059293E-01  0.20000000000E-01 0.  0.
</event>
<event>
 7    1  0.5676831E-066  0.9118800E+02  0.7957747E-01            NaN
     999900   -1    0    0    0    0  0.00000000000E+00  0.00000000000E+00  0.99999998245E-14  0.93827000000E+00  0.93827000000E+00 0. -1.
        -11    1    1    0    0    0  0.32249846132E-02  0.15764980063E-02 -0.44185174776E-02  0.57157929825E-02  0.51100000000E-03 0. -1.
        -14    1    1    0    0    0 -0.61346510927E-03  0.15984882092E-02  0.13238224697E-02  0.21642573614E-02  0.00000000000E+00 0. -1.
         12    1    1    0    0    0  0.13742662119E-03  0.97419539775E-03  0.10301307820E-03  0.98921910792E-03  0.00000000000E+00 0.  1.
         14    1    1    0    0    0 -0.16610010511E-02 -0.33651703424E-03 -0.43500116858E-02  0.46684868933E-02  0.00000000000E+00 0.  1.
     999901    1    1    0    0    0 -0.15332287049E-01 -0.30080015695E-02  0.72568673352E-02  0.90016486780E+00  0.90000000000E+00 0. -1.
     999903    1    1    0    0    0  0.14244341975E-01 -0.80466300953E-03  0.84826280313E-04  0.24567375854E-01  0.20000000000E-01 0.  0.
</event>
<event>
 7    1  0.5676831E-066  0.9118800E+02  0.7957747E-01            NaN
     999900   -1    0    0    0    0  0.00000000000E+00  0.00000000000E+00  0.99999998245E-14  0.93827000000E+00  0.93827000000E+00 0. -1.
        -11    1    1    0    0    0  0.82139102063E-02  0.14473620826E-02 -0.61008749274E-02  0.10346254093E-01  0.51100000000E-03 0. -1.
        -14    1    1    0    0    0 -0.24084458233E-03  0.41319517433E-03  0.12000820296E-02  0.12918719916E-02  0.00000000000E+00 0. -1.
         12    1    1    0    0    0  0.68169475841E-03  0.13823335157E-03  0.14898218730E-02  0.16441974992E-02  0.00000000000E+00 0.  1.
         14    1    1    0    0    0  0.28131040620E-03  0.10077690653E-02 -0.92687046521E-03  0.13977921494E-02  0.00000000000E+00 0.  1.
     999901    1    1    0    0    0  0.91991718468E-03 -0.15324352904E-03 -0.28016416983E-02  0.90000484384E+00  0.90000000000E+00 0.  1.
     999903    1    1    0    0    0 -0.98559879733E-02 -0.28533161447E-02  0.71394831882E-02  0.23585040431E-01  0.20000000000E-01 0.  0.
</event>
<event>
 7    1  0.5676831E-066  0.9118800E+02  0.7957747E-01            NaN
     999900   -1    0    0    0    0  0.00000000000E+00  0.00000000000E+00  0.99999998245E-14  0.93827000000E+00  0.93827000000E+00 0. -1.
        -11    1    1    0    0    0 -0.30462380340E-02  0.32200720616E-02  0.18324725887E-02  0.48236404333E-02  0.51100000000E-03 0. -1.
        -14    1    1    0    0    0 -0.14108493468E-02  0.45967938395E-03 -0.42101892921E-02  0.44640222771E-02  0.00000000000E+00 0. -1.
         12    1    1    0    0    0 -0.12275413453E-02 -0.33642644012E-02 -0.24719982656E-03  0.35897410032E-02  0.00000000000E+00 0.  1.
         14    1    1    0    0    0 -0.10490578746E-02  0.31418324985E-02  0.24293630227E-02  0.41077291256E-02  0.00000000000E+00 0.  1.
     999901    1    1    0    0    0  0.66441798929E-02  0.31492824676E-02 -0.26240412059E-02  0.90003385975E+00  0.90000000000E+00 0.  1.
     999903    1    1    0    0    0  0.89506707755E-04 -0.66066020104E-02  0.28195947131E-02  0.21251007410E-01  0.20000000000E-01 0.  0.
</event>
<event>
 7    1  0.5676831E-066  0.9118800E+02  0.7957747E-01            NaN
     999900   -1    0    0    0    0  0.00000000000E+00  0.00000000000E+00  0.99999998245E-14  0.93827000000E+00  0.93827000000E+00 0. -1.
        -11    1    1    0    0    0 -0.11565402134E-02  0.14700085297E-02  0.75602818474E-03  0.20811559188E-02  0.51100000000E-03 0. -1.
        -14    1    1    0    0    0  0.59176313361E-02 -0.20895153654E-02 -0.25070666499E-02  0.67579448266E-02  0.00000000000E+00 0. -1.
         12    1    1    0    0    0 -0.24444648267E-02 -0.25547720444E-02  0.11107669115E-02  0.37062206652E-02  0.00000000000E+00 0.  1.
         14    1    1    0    0    0  0.23754450364E-02 -0.10860849777E-03 -0.66552605012E-03  0.24693035152E-02  0.00000000000E+00 0.  1.
     999901    1    1    0    0    0 -0.13491343303E-02  0.13570597277E-02 -0.98007312396E-02  0.90005539613E+00  0.90000000000E+00 0.  1.
     999903    1    1    0    0    0 -0.33429370021E-02  0.19258276501E-02  0.11106528843E-01  0.23199978942E-01  0.20000000000E-01 0.  0.
</event>
<event>
 7    1  0.5676831E-066  0.9118800E+02  0.7957747E-01            NaN
     999900   -1    0    0    0    0  0.00000000000E+00  0.00000000000E+00  0.99999998245E-14  0.93827000000E+00  0.93827000000E+00 0.  1.
        -11    1    1    0    0    0 -0.30900575076E-03 -0.12396794356E-02 -0.45968932991E-02  0.47984204339E-02  0.51100000000E-03 0. -1.
        -14    1    1    0    0    0  0.13073890408E-02 -0.20825858766E-02  0.41159480089E-02  0.47945237563E-02  0.00000000000E+00 0. -1.
         12    1    1    0    0    0  0.18810006803E-03  0.24417005571E-02  0.29851418178E-03  0.24670618076E-02  0.00000000000E+00 0.  1.
         14    1    1    0    0    0 -0.98222320539E-03 -0.31370136148E-02 -0.68008758800E-03  0.33568044286E-02  0.00000000000E+00 0.  1.
     999901    1    1    0    0    0 -0.24909059845E-02  0.11668343983E-01  0.81573597562E-02  0.90011604662E+00  0.90000000000E+00 0.  1.
     999903    1    1    0    0    0  0.22866458318E-02 -0.76507656127E-02 -0.72948410598E-02  0.22737142954E-01  0.20000000000E-01 0.  0.
</event>
<event>
 7    1  0.5676831E-066  0.9118800E+02  0.7957747E-01            NaN
     999900   -1    0    0    0    0  0.00000000000E+00  0.00000000000E+00  0.99999998245E-14  0.93827000000E+00  0.93827000000E+00 0.  1.
        -11    1    1    0    0    0  0.36078076365E-03 -0.58138892342E-02  0.43758396729E-03  0.58637932701E-02  0.51100000000E-03 0. -1.
        -14    1    1    0    0    0  0.64783388781E-03  0.16592769562E-02 -0.70459149631E-03  0.19155516021E-02  0.00000000000E+00 0. -1.
         12    1    1    0    0    0 -0.10984062095E-02  0.21928298632E-02  0.13931412620E-02  0.28206101442E-02  0.00000000000E+00 0.  1.
         14    1    1    0    0    0 -0.24963522684E-02 -0.93867948874E-03  0.40906604549E-02  0.48832772589E-02  0.00000000000E+00 0.  1.
     999901    1    1    0    0    0  0.81609304390E-02  0.69199006134E-02 -0.13259153480E-01  0.90016125831E+00  0.90000000000E+00 0.  1.
     999903    1    1    0    0    0 -0.55747866126E-02 -0.40194387098E-02  0.80423592921E-02  0.22625509415E-01  0.20000000000E-01 0.  0.
</event>
<event>
 7    1  0.5676831E-066  0.9118800E+02  0.7957747E-01            NaN
     999900   -1    0    0    0    0  0.00000000000E+00  0.00000000000E+00  0.99999998245E-14  0.93827000000E+00  0.93827000000E+00 0. -1.
        -11    1    1    0    0    0  0.16053673816E-02  0.25443238891E-02  0.39815143801E-02  0.50164096964E-02  0.51100000000E-03 0. -1.
        -14    1    1    0    0    0 -0.33513355957E-03 -0.36117203679E-02  0.42127441850E-03  0.36516175394E-02  0.00000000000E+00 0. -1.
         12    1    1    0    0    0  0.20001178151E-02  0.88936251407E-03 -0.16576147043E-02  0.27457464311E-02  0.00000000000E+00 0.  1.
         14    1    1    0    0    0 -0.19722872599E-02  0.20003314985E-02  0.94389424692E-03  0.29634742261E-02  0.00000000000E+00 0.  1.
     999901    1    1    0    0    0 -0.11646801245E-01  0.20172130389E-02  0.30251212296E-02  0.90008270091E+00  0.90000000000E+00 0.  1.
     999903    1    1    0    0    0  0.10348736867E-01 -0.38395105727E-02 -0.67141895708E-02  0.23810051192E-01  0.20000000000E-01 0.  0.
</event>
<event>
 7    1  0.5676831E-066  0.9118800E+02  0.7957747E-01            NaN
     999900   -1    0    0    0    0  0.00000000000E+00  0.00000000000E+00  0.99999998245E-14  0.93827000000E+00  0.93827000000E+00 0. -1.
        -11    1    1    0    0    0 -0.52447982869E-03  0.29603442347E-03 -0.19852116894E-02  0.21365631099E-02  0.51100000000E-03 0. -1.
        -14    1    1    0    0    0  0.11737786397E-02  0.19644586586E-02 -0.18743619049E-02  0.29580545409E-02  0.00000000000E+00 0. -1.
         12    1    1    0    0    0 -0.90155301678E-03 -0.81254349830E-03  0.29808539493E-02  0.32184647032E-02  0.00000000000E+00 0.  1.
         14    1    1    0    0    0  0.63072745241E-03 -0.13372742791E-02 -0.18982533203E-02  0.24061349266E-02  0.00000000000E+00 0.  1.
     999901    1    1    0    0    0 -0.14877957182E-01 -0.36214992346E-02 -0.84980596155E-02  0.90017036492E+00  0.90000000000E+00 0. -1.
     999903    1    1    0    0    0  0.14499483935E-01  0.35108239300E-02  0.11275032581E-01  0.27380417797E-01  0.20000000000E-01 0.  0.
</event>
<event>
 7    1  0.5676831E-066  0.9118800E+02  0.7957747E-01            NaN
     999900   -1    0    0    0    0  0.00000000000E+00  0.00000000000E+00  0.99999998245E-14  0.93827000000E+00  0.93827000000E+00 0.  1.
        -11    1    1    0    0    0 -0.24369739132E-02 -0.46318517699E-02 -0.56460122543E-03  0.52889307252E-02  0.51100000000E-03 0. -1.
        -14    1    1    0    0    0  0.18066040617E-02 -0.27024891394E-02 -0.30217166640E-02  0.44382471069E-02  0.00000000000E+00 0. -1.
         12    1    1    0    0    0  0.27911281973E-02 -0.10882059024E-02 -0.52706787431E-03  0.30417740291E-02  0.00000000000E+00 0.  1.
         14    1    1    0    0    0 -0.37938806890E-02 -0.30057150645E-02  0.84453863166E-03  0.49133592614E-02  0.00000000000E+00 0.  1.
     999901    1    1    0    0    0 -0.20768316766E-02  0.13410554299E-01  0.44929725633E-02  0.90011351673E+00  0.90000000000E+00 0.  1.
     999903    1    1    0    0    0  0.37099540198E-02 -0.19822924227E-02 -0.12241254313E-02  0.20474172148E-01  0.20000000000E-01 0.  0.
</event>
<event>
 7    1  0.5676831E-066  0.9118800E+02  0.7957747E-01            NaN
     999900   -1    0    0    0    0  0.00000000000E+00  0.00000000000E+00  0.99999998245E-14  0.93827000000E+00  0.93827000000E+00 0.  1.
        -11    1    1    0    0    0 -0.12237304529E-02 -0.90848668006E-03 -0.22084148292E-03  0.16225770336E-02  0.51100000000E-03 0. -1.
        -14    1    1    0    0    0  0.24424775863E-02  0.45100790343E-02  0.30838943630E-02  0.59847233935E-02  0.00000000000E+00 0. -1.
         12    1    1    0    0    0 -0.57968065589E-03  0.95192122909E-03  0.27248822860E-02  0.29440052924E-02  0.00000000000E+00 0.  1.
         14    1    1    0    0    0  0.34371393990E-02 -0.98955704549E-03 -0.19282374517E-02  0.40634037536E-02  0.00000000000E+00 0.  1.
     999901    1    1    0    0    0 -0.23363046708E-02 -0.13270757981E-01 -0.11033996782E-01  0.90016849557E+00  0.90000000000E+00 0. -1.
     999903    1    1    0    0    0 -0.17399012058E-02  0.97068014434E-02  0.73742990681E-02  0.23486794954E-01  0.20000000000E-01 0.  0.
</event>
<event>
 7    1  0.5676831E-066  0.9118800E+02  0.7957747E-01            NaN
     999900   -1    0    0    0    0  0.00000000000E+00  0.00000000000E+00  0.99999998245E-14  0.93827000000E+00  0.93827000000E+00 0. -1.
        -11    1    1    0    0    0  0.20222473747E-02  0.69832510686E-03 -0.69241935688E-02  0.72651717101E-02  0.51100000000E-03 0. -1.
        -14    1    1    0    0    0 -0.83871050577E-03 -0.65425799402E-03  0.31432049961E-02  0.33183168147E-02  0.00000000000E+00 0. -1.
         12    1    1    0    0    0 -0.14914210789E-02 -0.13611626069E-02  0.35774635509E-03  0.20506298865E-02  0.00000000000E+00 0.  1.
         14    1    1    0    0    0  0.12557996301E-02 -0.16937648075E-02 -0.31820306194E-02  0.38172229168E-02  0.00000000000E+00 0.  1.
     999901    1    1    0    0    0 -0.13358592568E-03  0.10757426455E-01  0.98080298780E-02  0.90011773537E+00  0.90000000000E+00 0. -1.
     999903    1    1    0    0    0 -0.81432949448E-03 -0.77465661532E-02 -0.32027570410E-02  0.21700923307E-01  0.20000000000E-01 0.  0.
</event>
<event>
 7    1  0.5676831E-066  0.9118800E+02  0.7957747E-01            NaN
     999900   -1    0    0    0    0  0.00000000000E+00  0.00000000000E+00  0.99999998245E-14  0.93827000000E+00  0.93827000000E+00 0.  1.
        -11    1    1    0    0    0 -0.22619464130E-02 -0.12741728523E-02  0.23039499603E-02  0.35084504346E-02  0.51100000000E-03 0. -1.
        -14    1    1    0    0    0  0.30895266570E-02 -0.54394174142E-03 -0.32652823337E-02  0.45280366939E-02  0.00000000000E+00 0. -1.
         12    1    1    0    0    0  0.30616645068E-02 -0.67140032139E-03  0.13982357020E-04  0.31344478701E-02  0.00000000000E+00 0.  1.
         14    1    1    0    0    0  0.77049272901E-03  0.15611673013E-02 -0.92603555850E-03  0.19719138530E-02  0.00000000000E+00 0.  1.
     999901    1    1    0    0    0 -0.60408867047E-02  0.15726114372E-01  0.26330336453E-03  0.90015769303E+00  0.90000000000E+00 0.  1.
     999903    1    1    0    0    0  0.13811492248E-02 -0.14797766758E-01  0.16100822104E-02  0.24969458122E-01  0.20000000000E-01 0.  0.
</event>
<event>
 7    1  0.5676831E-066  0.9118800E+02  0.7957747E-01            NaN
     999900   -1    0    0    0    0  0.00000000000E+00  0.00000000000E+00  0.99999998245E-14  0.93827000000E+00  0.93827000000E+00 0.  1.
        -11    1    1    0    0    0 -0.16296966246E-03  0.13592255879E-02 -0.51432940072E-02  0.53468352840E-02  0.51100000000E-03 0. -1.
        -14    1    1    0    0    0 -0.38809571923E-02  0.83073830062E-03  0.39507171077E-02  0.56000107605E-02  0.00000000000E+00 0. -1.
         12    1    1    0    0    0  0.13661861162E-02 -0.25068758199E-02 -0.22419167630E-02  0.36300250209E-02  0.00000000000E+00 0.  1.
         14    1    1    0    0    0 -0.15836751659E-02 -0.44789368471E-03  0.68776295282E-03  0.17837190539E-02  0.00000000000E+00 0.  1.
     999901    1    1    0    0    0  0.85294652425E-02  0.51959338817E-02 -0.35336221073E-02  0.90006235117E+00  0.90000000000E+00 0. -1.
     999903    1    1    0    0    0 -0.42680493380E-02 -0.44311282656E-02  0.62803528169E-02  0.21847058712E-01  0.20000000000E-01 0.  0.
</event>
<event>
 7    1  0.5676831E-066  0.9118800E+02  0.7957747E-01            NaN
     999900   -1    0    0    0    0  0.00000000000E+00  0.00000000000E+00  0.99999998245E-14  0.93827000000E+00  0.93827000000E+00 0. -1.
        -11    1    1    0    0    0  0.70393398241E-03 -0.10676593852E-03  0.59454755075E-04  0.87839506210E-03  0.51100000000E-03 0. -1.
        -14    1    1    0    0    0 -0.18482150182E-02  0.19707979028E-02 -0.10823895781E-02  0.29105859077E-02  0.00000000000E+00 0. -1.
         12    1    1    0    0    0  0.23517961799E-02 -0.16285321073E-02  0.49542713555E-02  0.57208274541E-02  0.00000000000E+00 0.  1.
         14    1    1    0    0    0 -0.55316960452E-03  0.88669315511E-03  0.24123451617E-03  0.10725742186E-02  0.00000000000E+00 0.  1.
     999901    1    1    0    0    0  0.13854247662E-01  0.87360267554E-02 -0.11026449158E-01  0.90021655224E+00  0.90000000000E+00 0.  1.
     999903    1    1    0    0    0 -0.14508593202E-01 -0.98582197675E-02  0.68538781093E-02  0.27471065120E-01  0.20000000000E-01 0.  0.
</event>
<event>
 7    1  0.5676831E-066  0.9118800E+02  0.7957747E-01            NaN
     999900   -1    0    0    0    0  0.00000000000E+00  0.00000000000E+00  0.99999998245E-14  0.93827000000E+00  0.93827000000E+00 0. -1.
        -11    1    1    0    0    0  0.12162450160E-02 -0.22493594377E-02  0.75785440483E-03  0.27155725212E-02  0.51100000000E-03 0. -1.
        -14    1    1    0    0    0 -0.20081664262E-02  0.58541262055E-02 -0.50350742864E-02  0.79784396404E-02  0.00000000000E+00 0. -1.
         12    1    1    0    0    0 -0.19032127536E-03  0.19223165675E-03 -0.32415930618E-04  0.27244447190E-03  0.00000000000E+00 0.  1.
         14    1    1    0    0    0  0.14609280189E-02  0.55539633486E-02 -0.29797922973E-02  0.64699290327E-02  0.00000000000E+00 0.  1.
     999901    1    1    0    0    0 -0.53978536958E-02 -0.69941000880E-02  0.82448337878E-02  0.90008112498E+00  0.90000000000E+00 0. -1.
     999903    1    1    0    0    0  0.49191683624E-02 -0.23568616852E-02 -0.95540567836E-03  0.20752489354E-01  0.20000000000E-01 0.  0.
</event>
<event>
 7    1  0.5676831E-066  0.9118800E+02  0.7957747E-01            NaN
     999900   -1    0    0    0    0  0.00000000000E+00  0.00000000000E+00  0.99999998245E-14  0.93827000000E+00  0.93827000000E+00 0. -1.
        -11    1    1    0    0    0  0.20703725012E-02 -0.58955480350E-03 -0.69416606382E-02  0.72857251235E-02  0.51100000000E-03 0. -1.
        -14    1    1    0    0    0  0.20893504767E-03 -0.54221309068E-02  0.10909161952E-02  0.55347317523E-02  0.00000000000E+00 0. -1.
         12    1    1    0    0    0  0.10883448486E-02 -0.12193879725E-03 -0.18572086257E-02  0.21560583154E-02  0.00000000000E+00 0.  1.
         14    1    1    0    0    0  0.70521214042E-03 -0.11403318451E-02  0.20616695875E-02  0.24593011950E-02  0.00000000000E+00 0.  1.
     999901    1    1    0    0    0  0.14104387634E-02  0.85049865692E-02  0.57233805827E-02  0.90005948760E+00  0.90000000000E+00 0. -1.
     999903    1    1    0    0    0 -0.54833033014E-02 -0.12310302165E-02 -0.77097101420E-04  0.20774696013E-01  0.20000000000E-01 0.  0.
</event>
<event>
 7    1  0.5676831E-066  0.9118800E+02  0.7957747E-01            NaN
     999900   -1    0    0    0    0  0.00000000000E+00  0.00000000000E+00  0.99999998245E-14  0.93827000000E+00  0.93827000000E+00 0. -1.
        -11    1    1    0    0    0 -0.11953780247E-02 -0.26837772930E-02 -0.22290757867E-02  0.37231020726E-02  0.51100000000E-03 0. -1.
        -14    1    1    0    0    0  0.90648545581E-03  0.43814502857E-02  0.27645250773E-02  0.52594126469E-02  0.00000000000E+00 0. -1.
         12    1    1    0    0    0 -0.43938789382E-02 -0.12838795544E-02  0.66065369335E-03  0.46250386092E-02  0.00000000000E+00 0.  1.
         14    1    1    0    0    0 -0.12222363945E-02  0.87285669011E-03 -0.11409781628E-03  0.15062399933E-02  0.00000000000E+00 0.  1.
     999901    1    1    0    0    0  0.16148498657E-01  0.35921117138E-02 -0.40635689140E-03  0.90015212181E+00  0.90000000000E+00 0.  1.
     999903    1    1    0    0    0 -0.10243490755E-01 -0.48787618422E-02 -0.67564827630E-03  0.23004084867E-01  0.20000000000E-01 0.  0.
</event>
<event>
 7    1  0.5676831E-066  0.9118800E+02  0.7957747E-01            NaN
     999900   -1    0    0    0    0  0.00000000000E+00  0.00000000000E+00  0.99999998245E-14  0.93827000000E+00  0.93827000000E+00 0.  1.
        -11    1    1    0    0    0 -0.69680206343E-03  0.18648973606E-02  0.32618050883E-03  0.20810790484E-02  0.51100000000E-03 0. -1.
        -14    1    1    0    0    0 -0.22304121038E-02 -0.29334738542E-02  0.25512240634E-02  0.44820476602E-02  0.00000000000E+00 0. -1.
         12    1    1    0    0    0 -0.20519724183E-02  0.82925959476E-03  0.25318728784E-02  0.33628325194E-02  0.00000000000E+00 0.  1.
         14    1    1    0    0    0  0.17498964796E-03 -0.47958023290E-02 -0.28180248204E-02  0.55652138543E-02  0.00000000000E+00 0.  1.
     999901    1    1    0    0    0 -0.29192534086E-02  0.11464526874E-01 -0.62472130184E-02  0.90009943067E+00  0.90000000000E+00 0. -1.
     999903    1    1    0    0    0  0.77234503461E-02 -0.64294076465E-02  0.36559603881E-02  0.22679396251E-01  0.20000000000E-01 0.  0.
</event>
<event>
 7    1  0.5676831E-066  0.9118800E+02  0.7957747E-01            NaN
     999900   -1    0    0    0    0  0.00000000000E+00  0.00000000000E+00  0.99999998245E-14  0.93827000000E+00  0.93827000000E+00 0. -1.
        -11    1    1    0    0    0  0.31623710950E-03 -0.21104266072E-02 -0.23247570635E-02  0.31967988329E-02  0.51100000000E-03 0. -1.
        -14    1    1    0    0    0 -0.24445051192E-02  0.16425752515E-02  0.31172672531E-02  0.42884745379E-02  0.00000000000E+00 0. -1.
         12    1    1    0    0    0 -0.21336891712E-02  0.96610294216E-03 -0.11071257563E-02  0.25906971677E-02  0.00000000000E+00 0.  1.
         14    1    1    0    0    0  0.11623695315E-02 -0.33564215645E-02  0.28861703179E-02  0.45767507853E-02  0.00000000000E+00 0.  1.
     999901    1    1    0    0    0 -0.28125959342E-02 -0.37014550673E-02 -0.11283177295E-01  0.90008273040E+00  0.90000000000E+00 0.  1.
     999903    1    1    0    0    0  0.59121835836E-02  0.65596250454E-02  0.87116225436E-02  0.23534548281E-01  0.20000000000E-01 0.  0.
</event>
<event>
 7    1  0.5676831E-066  0.9118800E+02  0.7957747E-01            NaN
     999900   -1    0    0    0    0  0.00000000000E+00  0.00000000000E+00  0.99999998245E-14  0.93827000000E+00  0.93827000000E+00 0.  1.
        -11    1    1    0    0    0  0.65850167043E-03 -0.35095440456E-03  0.18507221645E-03  0.92312846850E-03  0.51100000000E-03 0. -1.
        -14    1    1    0    0    0 -0.38113368690E-02 -0.33185401707E-02  0.49116043239E-02  0.70471877106E-02  0.00000000000E+00 0. -1.
         12    1    1    0    0    0  0.32622660510E-02  0.54769866734E-02 -0.20250147249E-04  0.63749645393E-02  0.00000000000E+00 0.  1.
         14    1    1    0    0    0  0.30262800233E-03  0.61744703049E-03  0.99581710503E-03  0.12101554652E-02  0.00000000000E+00 0.  1.
     999901    1    1    0    0    0 -0.23263052355E-02  0.69528143030E-02 -0.10564460223E-01  0.90009186261E+00  0.90000000000E+00 0. -1.
     999903    1    1    0    0    0  0.19142463807E-02 -0.93777534316E-02  0.44922167245E-02  0.22622701203E-01  0.20000000000E-01 0.  0.
</event>
<event>
 7    1  0.5676831E-066  0.9118800E+02  0.7957747E-01            NaN
     999900   -1    0    0    0    0  0.00000000000E+00  0.00000000000E+00  0.99999998245E-14  0.93827000000E+00  0.93827000000E+00 0.  1.
        -11    1    1    0    0    0  0.30654881046E-02  0.66359073281E-04  0.36940221495E-02  0.48278920335E-02  0.51100000000E-03 0. -1.
        -14    1    1    0    0    0 -0.27445950396E-04 -0.16552534045E-02  0.37539918148E-02  0.41028126522E-02  0.00000000000E+00 0. -1.
         12    1    1    0    0    0  0.39019026790E-02  0.11073529346E-02  0.18346883522E-03  0.40601398808E-02  0.00000000000E+00 0.  1.
         14    1    1    0    0    0 -0.63108413876E-03  0.54864041702E-04 -0.32346479143E-03  0.71127120324E-03  0.00000000000E+00 0.  1.
     999901    1    1    0    0    0  0.71862397611E-03 -0.15738502090E-02  0.49170310414E-02  0.90001509466E+00  0.90000000000E+00 0.  1.
     999903    1    1    0    0    0 -0.70274846705E-02  0.20005275639E-02 -0.12225049050E-01  0.24552789568E-01  0.20000000000E-01 0.  0.
</event>
<event>
 7    1  0.5676831E-066  0.9118800E+02  0.7957747E-01            NaN
     999900   -1    0    0    0    0  0.00000000000E+00  0.00000000000E+00  0.99999998245E-14  0.93827000000E+00  0.93827000000E+00 0. -1.
        -11    1    1    0    0    0  0.11816631840E-02 -0.36712854837E-03 -0.12272065505E-02  0.18161134791E-02  0.51100000000E-03 0. -1.
        -14    1    1    0    0    0  0.42519041586E-02  0.90704697800E-03  0.17162550583E-02  0.46740725946E-02  0.00000000000E+00 0. -1.
         12    1    1    0    0    0 -0.61833667626E-02  0.73532090128E-03  0.13766005204E-02  0.63772839314E-02  0.00000000000E+00 0.  1.
         14    1    1    0    0    0  0.28755219747E-02  0.17276264309E-02  0.12954642760E-02  0.35960460790E-02  0.00000000000E+00 0.  1.
     999901    1    1    0    0    0 -0.77433495788E-02  0.12384646344E-02 -0.79526390128E-02  0.90006929607E+00  0.90000000000E+00 0.  1.
     999903    1    1    0    0    0  0.56176270240E-02 -0.42413303963E-02  0.47915257087E-02  0.21737187848E-01  0.20000000000E-01 0.  0.
</event>
<event>
 7    1  0.5676831E-066  0.9118800E+02  0.7957747E-01            NaN
     999900   -1    0    0    0    0  0.00000000000E+00  0.00000000000E+00  0.99999998245E-14  0.93827000000E+00  0.93827000000E+00 0. -1.
        -11    1    1    0    0    0  0.85492010826E-03 -0.14255452976E-02 -0.59661660338E-03  0.18385157488E-02  0.51100000000E-03 0. -1.
        -14    1    1    0    0    0  0.48371966802E-03  0.34352220089E-02 -0.45532866431E-04  0.34694103547E-02  0.00000000000E+00 0. -1.
         12    1    1    0    0    0  0.98828231308E-03 -0.18125329856E-02  0.15701914879E-03  0.20704185005E-02  0.00000000000E+00 0.  1.
         14    1    1    0    0    0  0.28618437024E-02 -0.39863155871E-02  0.57714211206E-02  0.75756295507E-02  0.00000000000E+00 0.  1.
     999901    1    1    0    0    0  0.22643128933E-02  0.18837787904E-02  0.38704273058E-02  0.90001314209E+00  0.90000000000E+00 0. -1.
     999903    1    1    0    0    0 -0.74530786850E-02  0.19053930710E-02 -0.91567181054E-02  0.23302883751E-01  0.20000000000E-01 0.  0.
</event>
<event>
 7    1  0.5676831E-066  0.9118800E+02  0.7957747E-01            NaN
     999900   -1    0    0    0    0  0.00000000000E+00  0.00000000000E+00  0.99999998245E-14  0.93827000000E+00  0.93827000000E+00 0.  1.
        -11    1    1    0    0    0  0.12036737676E-02  0.36623416269E-03  0.16589004106E-02  0.21438352486E-02  0.51100000000E-03 0. -1.
        -14    1    1    0    0    0 -0.51782898948E-03 -0.59486389998E-03 -0.87858483194E-03  0.11806444125E-02  0.00000000000E+00 0. -1.
         12    1    1    0    0    0 -0.41910761815E-02 -0.70523128078E-02  0.89977677141E-03  0.82528682127E-02  0.00000000000E+00 0.  1.
         14    1    1    0    0    0  0.16048261271E-02  0.54147237862E-03 -0.17274812068E-02  0.24192665324E-02  0.00000000000E+00 0.  1.
     999901    1    1    0    0    0  0.28918649488E-02 -0.10844421178E-02  0.11155613995E-01  0.90007443393E+00  0.90000000000E+00 0.  1.
     999903    1    1    0    0    0 -0.99145967254E-03  0.78239122843E-02 -0.11108225139E-01  0.24198951660E-01  0.20000000000E-01 0.  0.
</event>
<event>
 7    1  0.5676831E-066  0.9118800E+02  0.7957747E-01            NaN
     999900   -1    0    0    0    0  0.00000000000E+00  0.00000000000E+00  0.99999998245E-14  0.93827000000E+00  0.93827000000E+00 0. -1.
        -11    1    1    0    0    0  0.26057589286E-03  0.30153821467E-02  0.17904468970E-02  0.35534842588E-02  0.51100000000E-03 0. -1.
        -14    1    1    0    0    0 -0.21665524468E-02  0.10234436887E-02 -0.18588397827E-03  0.24033184021E-02  0.00000000000E+00 0. -1.
         12    1    1    0    0    0  0.18726125074E-02  0.14557782008E-02 -0.20183819593E-02  0.31144555714E-02  0.00000000000E+00 0.  1.
         14    1    1    0    0    0  0.20167265030E-03 -0.34208804591E-02  0.39140817916E-02  0.52022236827E-02  0.00000000000E+00 0.  1.
     999901    1    1    0    0    0 -0.12322961308E-01 -0.59347001405E-02 -0.61833312086E-02  0.90012516331E+00  0.90000000000E+00 0.  1.
     999903    1    1    0    0    0  0.12154652705E-01  0.38609765634E-02  0.26830684575E-02  0.23871354774E-01  0.20000000000E-01 0.  0.
</event>
<event>
 7    1  0.5676831E-066  0.9118800E+02  0.7957747E-01            NaN
     999900   -1    0    0    0    0  0.00000000000E+00  0.00000000000E+00  0.99999998245E-14  0.93827000000E+00  0.93827000000E+00 0.  1.
        -11    1    1    0    0    0 -0.21881965537E-03  0.32636019986E-03  0.13674663067E-02  0.15117797860E-02  0.51100000000E-03 0. -1.
        -14    1    1    0    0    0 -0.19049473395E-02 -0.30192627958E-03  0.13907864114E-02  0.23778710408E-02  0.00000000000E+00 0. -1.
         12    1    1    0    0    0 -0.82785474964E-03 -0.36247372984E-02  0.78912918595E-02  0.87233337194E-02  0.00000000000E+00 0.  1.
         14    1    1    0    0    0 -0.81109935085E-03  0.12505950932E-03 -0.34155811387E-02  0.35127932693E-02  0.00000000000E+00 0.  1.
     999901    1    1    0    0    0  0.12730127957E-01  0.16126833244E-02 -0.59835590723E-02  0.90011135971E+00  0.90000000000E+00 0.  1.
     999903    1    1    0    0    0 -0.89674068616E-02  0.18625605444E-02 -0.12504043665E-02  0.22032862471E-01  0.20000000000E-01 0.  0.
</event>
<event>
 7    1  0.5676831E-066  0.9118800E+02  0.7957747E-01            NaN
     999900   -1    0    0    0    0  0.00000000000E+00  0.00000000000E+00  0.99999998245E-14  0.93827000000E+00  0.93827000000E+00 0.  1.
        -11    1    1    0    0    0  0.36612022095E-03 -0.11275926493E-02  0.61391085890E-03  0.14295162614E-02  0.51100000000E-03 0. -1.
        -14    1    1    0    0    0 -0.13189774927E-02  0.22097149185E-02  0.51999222337E-03  0.26254396888E-02  0.00000000000E+00 0. -1.
         12    1    1    0    0    0 -0.98504301534E-03  0.19458696529E-02 -0.27660749658E-02  0.35224833803E-02  0.00000000000E+00 0.  1.
         14    1    1    0    0    0 -0.56582856351E-02 -0.59514218585E-02  0.25078514272E-02  0.85863226848E-02  0.00000000000E+00 0.  1.
     999901    1    1    0    0    0  0.69468236699E-02  0.72628782353E-02 -0.89379616375E-02  0.90010049157E+00  0.90000000000E+00 0. -1.
     999903    1    1    0    0    0  0.64936225235E-03 -0.43394482989E-02  0.80622820938E-02  0.22005746418E-01  0.20000000000E-01 0.  0.
</event>
<event>
 7    1  0.5676831E-066  0.9118800E+02  0.7957747E-01            NaN
     999900   -1    0    0    0    0  0.00000000000E+00  0.00000000000E+00  0.99999998245E-14  0.93827000000E+00  0.93827000000E+00 0.  1.
        -11    1    1    0    0    0 -0.42007748087E-02  0.96127765020E-03 -0.19446540449E-02  0.47553510983E-02  0.51100000000E-03 0. -1.
        -14    1    1    0    0    0  0.53310848574E-02 -0.53134179960E-03 -0.11725067983E-02  0.54843014192E-02  0.00000000000E+00 0. -1.
         12    1    1    0    0    0  0.99491741589E-03  0.14990137292E-02  0.11768192831E-02  0.21498387032E-02  0.00000000000E+00 0.  1.
         14    1    1    0    0    0  0.12451706042E-02 -0.49956745721E-03 -0.12506306806E-03  0.13474636355E-02  0.00000000000E+00 0.  1.
     999901    1    1    0    0    0 -0.31031315863E-02 -0.15390836416E-01  0.22602237616E-02  0.90013977575E+00  0.90000000000E+00 0.  1.
     999903    1    1    0    0    0 -0.26726648255E-03  0.13961454293E-01 -0.19481913347E-03  0.24393269396E-01  0.20000000000E-01 0.  0.
</event>
<event>
 7    1  0.5676831E-066  0.9118800E+02  0.7957747E-01            NaN
     999900   -1    0    0    0    0  0.00000000000E+00  0.00000000000E+00  0.99999998245E-14  0.93827000000E+00  0.93827000000E+00 0. -1.
        -11    1    1    0    0    0 -0.41578657531E-02 -0.20226122781E-02  0.23611289354E-02  0.52167862614E-02  0.51100000000E-03 0. -1.
        -14    1    1    0    0    0  0.21803033161E-02 -0.39873125340E-02  0.65835779293E-04  0.45449662423E-02  0.00000000000E+00 0. -1.
         12    1    1    0    0    0  0.33590767483E-02 -0.18293688006E-02 -0.19013850139E-02  0.42714460995E-02  0.00000000000E+00 0.  1.
         14    1    1    0    0    0 -0.12193016804E-02 -0.66134645262E-03 -0.30930255832E-03  0.14211769034E-02  0.00000000000E+00 0.  1.
     999901    1    1    0    0    0  0.22752160297E-02  0.14423097669E-01 -0.87152339564E-02  0.90016062881E+00  0.90000000000E+00 0.  1.
     999903    1    1    0    0    0 -0.24374286606E-02 -0.59224576041E-02  0.84989568140E-02  0.22654995685E-01  0.20000000000E-01 0.  0.
</event>
<event>
 7    1  0.5676831E-066  0.9118800E+02  0.7957747E-01            NaN
     999900   -1    0    0    0    0  0.00000000000E+00  0.00000000000E+00  0.99999998245E-14  0.93827000000E+00  0.93827000000E+00 0. -1.
        -11    1    1    0    0    0 -0.35102619918E-03  0.28402102329E-02 -0.58405859740E-02  0.65240768756E-02  0.51100000000E-03 0. -1.
        -14    1    1    0    0    0  0.33448047338E-03 -0.26900865430E-02  0.50823438149E-04  0.27112775250E-02  0.00000000000E+00 0. -1.
         12    1    1    0    0    0  0.62454220541E-03  0.71620714511E-03 -0.30740758422E-02  0.32175997148E-02  0.00000000000E+00 0.  1.
         14    1    1    0    0    0  0.31355954192E-02 -0.27385576136E-02  0.13912938580E-02  0.43894595379E-02  0.00000000000E+00 0.  1.
     999901    1    1    0    0    0 -0.64481509913E-02  0.80365541963E-02  0.41724534450E-02  0.90006864973E+00  0.90000000000E+00 0.  1.
     999903    1    1    0    0    0  0.27045590925E-02 -0.61643274177E-02  0.33000910750E-02  0.21358936619E-01  0.20000000000E-01 0.  0.
</event>
<event>
 7    1  0.5676831E-066  0.9118800E+02  0.7957747E-01            NaN
     999900   -1    0    0    0    0  0.00000000000E+00  0.00000000000E+00  0.99999998245E-14  0.93827000000E+00  0.93827000000E+00 0.  1.
        -11    1    1    0    0    0  0.16253283006E-02 -0.23627916872E-02 -0.19570710190E-02  0.35093766705E-02  0.51100000000E-03 0. -1.
        -14    1    1    0    0    0 -0.36904651156E-02  0.32935207596E-03  0.22986533633E-02  0.43602537592E-02  0.00000000000E+00 0. -1.
         12    1    1    0    0    0  0.26171550756E-02 -0.13836228448E-02  0.32275237178E-02  0.43795915580E-02  0.00000000000E+00 0.  1.
         14    1    1    0    0    0 -0.12777190109E-02  0.83926772005E-03  0.68411649408E-03  0.16747989593E-02  0.00000000000E+00 0.  1.
     999901    1    1    0    0    0  0.38844286565E-02  0.11819596177E-01 -0.13642221719E-01  0.90018937000E+00  0.90000000000E+00 0. -1.
     999903    1    1    0    0    0 -0.31587279062E-02 -0.92418014415E-02  0.93889991627E-02  0.24156609057E-01  0.20000000000E-01 0.  0.
</event>
<event>
 7    1  0.5676831E-066  0.9118800E+02  0.7957747E-01            NaN
     999900   -1    0    0    0    0  0.00000000000E+00  0.00000000000E+00  0.99999998245E-14  0.93827000000E+00  0.93827000000E+00 0. -1.
        -11    1    1    0    0    0 -0.19826284104E-02 -0.60703142404E-04  0.32580800904E-02  0.38484681577E-02  0.51100000000E-03 0. -1.
        -14    1    1    0    0    0 -0.21075529051E-02 -0.38595597348E-02  0.20545527100E-02  0.48537786756E-02  0.00000000000E+00 0. -1.
         12    1    1    0    0    0  0.84944786591E-03  0.14288975808E-02  0.50378319457E-03  0.17369822913E-02  0.00000000000E+00 0.  1.
         14    1    1    0    0    0 -0.13829335068E-02  0.37094740058E-02 -0.23817520825E-02  0.46201131443E-02  0.00000000000E+00 0.  1.
     999901    1    1    0    0    0  0.12615734928E-01  0.70141532595E-02 -0.21652532560E-02  0.90011834968E+00  0.90000000000E+00 0.  1.
     999903    1    1    0    0    0 -0.79920679716E-02 -0.82322619689E-02 -0.12694106565E-02  0.23092308048E-01  0.20000000000E-01 0.  0.
</event>
<event>
 7    1  0.5676831E-066  0.9118800E+02  0.7957747E-01            NaN
     999900   -1    0    0    0    0  0.00000000000E+00  0.00000000000E+00  0.99999998245E-14  0.93827000000E+00  0.93827000000E+00 0. -1.
        -11    1    1    0    0    0  0.83157203241E-03  0.46340426113E-02  0.48882467706E-02  0.68060223669E-02  0.51100000000E-03 0. -1.
        -14    1    1    0    0    0 -0.22569488223E-02  0.14753185667E-02 -0.30989095772E-02  0.41077516268E-02  0.00000000000E+00 0. -1.
         12    1    1    0    0    0 -0.58665659706E-03 -0.36224283439E-02 -0.14354724973E-03  0.36724322843E-02  0.00000000000E+00 0.  1.
         14    1    1    0    0    0 -0.12795455752E-02 -0.77986722686E-04 -0.36664147732E-03  0.13333209594E-02  0.00000000000E+00 0.  1.
     999901    1    1    0    0    0  0.11738797783E-01  0.20825353756E-03 -0.54255974176E-02  0.90009292845E+00  0.90000000000E+00 0.  1.
     999903    1    1    0    0    0 -0.84472188210E-02 -0.26171996490E-02  0.41464489512E-02  0.22257544310E-01  0.20000000000E-01 0.  0.
</event>
<event>
 7    1  0.5676831E-066  0.9118800E+02  0.7957747E-01            NaN
     999900   -1    0    0    0    0  0.00000000000E+00  0.00000000000E+00  0.99999998245E-14  0.93827000000E+00  0.93827000000E+00 0. -1.
        -11    1    1    0    0    0 -0.35662384405E-03 -0.14677574836E-02  0.95683414803E-03  0.18596088792E-02  0.51100000000E-03 0. -1.
        -14    1    1    0    0    0  0.16272172119E-02  0.20988391542E-03 -0.65497101185E-02  0.67520804015E-02  0.00000000000E+00 0. -1.
         12    1    1    0    0    0 -0.33128833177E-02  0.26188244062E-02  0.16358284151E-02  0.45287273876E-02  0.00000000000E+00 0.  1.
         14    1    1    0    0    0  0.39965331924E-03  0.45685608788E-03 -0.21638835500E-02  0.22474056774E-02  0.00000000000E+00 0.  1.
     999901    1    1    0    0    0  0.95687636904E-02  0.44639975426E-02  0.10107409632E-01  0.90011868564E+00  0.90000000000E+00 0. -1.
     999903    1    1    0    0    0 -0.79261270598E-02 -0.62818044684E-02 -0.39864785264E-02  0.22763492012E-01  0.20000000000E-01 0.  0.
</event>
<event>
 7    1  0.5676831E-066  0.9118800E+02  0.7957747E-01            NaN
     999900   -1    0    0    0    0  0.00000000000E+00  0.00000000000E+00  0.99999998245E-14  0.93827000000E+00  0.93827000000E+00 0.  1.
        -11    1    1    0    0    0  0.14396735384E-02 -0.24484828200E-02 -0.49363727774E-02  0.57180962929E-02  0.51100000000E-03 0. -1.
        -14    1    1    0    0    0 -0.14585276393E-02  0.14815944188E-03  0.35014873374E-02  0.37960068057E-02  0.00000000000E+00 0. -1.
         12    1    1    0    0    0 -0.40350650945E-02 -0.28339450780E-03  0.13697494944E-02  0.42706295135E-02  0.00000000000E+00 0.  1.
         14    1    1    0    0    0  0.22167164520E-03  0.95913477756E-03 -0.63367447096E-03  0.11707353138E-02  0.00000000000E+00 0.  1.
     999901    1    1    0    0    0  0.15067532696E-01  0.87066630774E-03 -0.25741477356E-02  0.90013022104E+00  0.90000000000E+00 0.  1.
     999903    1    1    0    0    0 -0.11235285146E-01  0.75391680062E-03  0.32729581522E-02  0.23184311030E-01  0.20000000000E-01 0.  0.
</event>
<event>
 7    1  0.5676831E-066  0.9118800E+02  0.7957747E-01            NaN
     999900   -1    0    0    0    0  0.00000000000E+00  0.00000000000E+00  0.99999998245E-14  0.93827000000E+00  0.93827000000E+00 0. -1.
        -11    1    1    0    0    0 -0.84173182357E-03  0.14834905088E-02 -0.36774563885E-02  0.40858368839E-02  0.51100000000E-03 0. -1.
        -14    1    1    0    0    0  0.14744247209E-02 -0.47137872906E-02 -0.10712769694E-02  0.50538453898E-02  0.00000000000E+00 0. -1.
         12    1    1    0    0    0  0.71105424086E-03  0.15813902139E-02 -0.25657630425E-02  0.30966971329E-02  0.00000000000E+00 0.  1.
         14    1    1    0    0    0 -0.26758799501E-02 -0.83730350451E-03  0.68409609915E-03  0.28860696698E-02  0.00000000000E+00 0.  1.
     999901    1    1    0    0    0  0.70458199500E-02 -0.55071095119E-02  0.12398955062E-01  0.90012982726E+00  0.90000000000E+00 0. -1.
     999903    1    1    0    0    0 -0.57136871381E-02  0.79933195843E-02 -0.57685547610E-02  0.23017723665E-01  0.20000000000E-01 0.  0.
</event>
<event>
 7    1  0.5676831E-066  0.9118800E+02  0.7957747E-01            NaN
     999900   -1    0    0    0    0  0.00000000000E+00  0.00000000000E+00  0.99999998245E-14  0.93827000000E+00  0.93827000000E+00 0.  1.
        -11    1    1    0    0    0 -0.58368593053E-02 -0.16818469912E-02  0.29615078440E-02  0.67771074627E-02  0.51100000000E-03 0. -1.
        -14    1    1    0    0    0  0.11354174372E-02  0.32500054522E-02  0.31110732018E-02  0.46400953291E-02  0.00000000000E+00 0. -1.
         12    1    1    0    0    0 -0.12326745371E-02 -0.52375566098E-03  0.16826917493E-02  0.21506413067E-02  0.00000000000E+00 0.  1.
         14    1    1    0    0    0 -0.10668572826E-02 -0.16941016218E-03 -0.31509905852E-02  0.33310097467E-02  0.00000000000E+00 0.  1.
     999901    1    1    0    0    0  0.45395674709E-02 -0.77183318244E-02 -0.33102326522E-02  0.90005063078E+00  0.90000000000E+00 0. -1.
     999903    1    1    0    0    0  0.24614062168E-02  0.68433391866E-02 -0.12940495578E-02  0.21320515379E-01  0.20000000000E-01 0.  0.
</event>
<event>
 7    1  0.5676831E-066  0.9118800E+02  0.7957747E-01            NaN
     999900   -1    0    0    0    0  0.00000000000E+00  0.00000000000E+00  0.99999998245E-14  0.93827000000E+00  0.93827000000E+00 0.  1.
        -11    1    1    0    0    0  0.63861387455E-02 -0.12475510446E-03 -0.23867669365E-02  0.68378439088E-02  0.51100000000E-03 0. -1.
        -14    1    1    0    0    0 -0.49998400676E-02 -0.41393185443E-02  0.43167509280E-04  0.64910879016E-02  0.00000000000E+00 0. -1.
         12    1    1    0    0    0 -0.29239994537E-03  0.11644357621E-02 -0.65416296868E-03  0.13672372003E-02  0.00000000000E+00 0.  1.
         14    1    1    0    0    0  0.91068506254E-03 -0.38774897911E-03 -0.11096934839E-02  0.14869822400E-02  0.00000000000E+00 0.  1.
     999901    1    1    0    0    0 -0.76406359552E-02  0.88159593604E-02  0.88430160203E-02  0.90011904734E+00  0.90000000000E+00 0.  1.
     999903    1    1    0    0    0  0.56360521601E-02 -0.53285724948E-02 -0.47355601406E-02  0.21967801406E-01  0.20000000000E-01 0.  0.
</event>
<event>
 7    1  0.5676831E-066  0.9118800E+02  0.7957747E-01            NaN
     999900   -1    0    0    0    0  0.00000000000E+00  0.00000000000E+00  0.99999998245E-14  0.93827000000E+00  0.93827000000E+00 0. -1.
        -11    1    1    0    0    0  0.13049924459E-02 -0.20596182923E-02 -0.13917287952E-02  0.28536052343E-02  0.51100000000E-03 0.  1.
        -14    1    1    0    0    0  0.36310877003E-02  0.14723849650E-02 -0.67208114141E-03  0.39754758751E-02  0.00000000000E+00 0. -1.
         12    1    1    0    0    0 -0.39315519838E-03  0.25652346323E-02 -0.22021696443E-02  0.34036085073E-02  0.00000000000E+00 0.  1.
         14    1    1    0    0    0 -0.20961428737E-02  0.18436497295E-02  0.51220959900E-02  0.58334146606E-02  0.00000000000E+00 0.  1.
     999901    1    1    0    0    0 -0.10520103439E-02 -0.11440974863E-01  0.45524816380E-02  0.90008484473E+00  0.90000000000E+00 0. -1.
     999903    1    1    0    0    0 -0.13947717303E-02  0.76193238286E-02 -0.54085980470E-02  0.22119050988E-01  0.20000000000E-01 0.  0.
</event>
<event>
 7    1  0.5676831E-066  0.9118800E+02  0.7957747E-01            NaN
     999900   -1    0    0    0    0  0.00000000000E+00  0.00000000000E+00  0.99999998245E-14  0.93827000000E+00  0.93827000000E+00 0. -1.
        -11    1    1    0    0    0 -0.80206672382E-02 -0.40872679814E-02 -0.28715910948E-02  0.94627701501E-02  0.51100000000E-03 0. -1.
        -14    1    1    0    0    0 -0.16703501623E-02  0.73789817086E-03 -0.53807799268E-03  0.19037046256E-02  0.00000000000E+00 0. -1.
         12    1    1    0    0    0  0.27829046012E-03  0.53212949812E-03  0.59405335969E-03  0.84469330359E-03  0.00000000000E+00 0.  1.
         14    1    1    0    0    0 -0.14190979010E-04 -0.27771967034E-02 -0.14852321116E-03  0.27812015492E-02  0.00000000000E+00 0.  1.
     999901    1    1    0    0    0  0.61656066880E-03 -0.23896800925E-02  0.25763176924E-02  0.90000707116E+00  0.90000000000E+00 0. -1.
     999903    1    1    0    0    0  0.88103572506E-02  0.79841171083E-02  0.38782124650E-03  0.23270559215E-01  0.20000000000E-01 0.  0.
</event>
<event>
 7    1  0.5676831E-066  0.9118800E+02  0.7957747E-01            NaN
     999900   -1    0    0    0    0  0.00000000000E+00  0.00000000000E+00  0.99999998245E-14  0.93827000000E+00  0.93827000000E+00 0.  1.
        -11    1    1    0    0    0  0.22706952770E-02 -0.18246783576E-02 -0.56251645561E-03  0.30104906431E-02  0.51100000000E-03 0. -1.
        -14    1    1    0    0    0  0.60798459858E-03  0.32408209672E-02  0.98100681525E-03  0.34401947888E-02  0.00000000000E+00 0. -1.
         12    1    1    0    0    0  0.27614153330E-02 -0.30183435687E-02  0.26379099796E-02  0.48676875003E-02  0.00000000000E+00 0.  1.
         14    1    1    0    0    0 -0.63391979647E-03 -0.54228954557E-03 -0.55533793526E-02  0.56156882475E-02  0.00000000000E+00 0.  1.
     999901    1    1    0    0    0 -0.38613259950E-02 -0.47811539246E-02  0.24961421363E-03  0.90002101730E+00  0.90000000000E+00 0. -1.
     999903    1    1    0    0    0 -0.11448494170E-02  0.69256444292E-02  0.22473647997E-02  0.21314921522E-01  0.20000000000E-01 0.  0.
</event>
<event>
 7    1  0.5676831E-066  0.9118800E+02  0.7957747E-01            NaN
     999900   -1    0    0    0    0  0.00000000000E+00  0.00000000000E+00  0.99999998245E-14  0.93827000000E+00  0.93827000000E+00 0.  1.
        -11    1    1    0    0    0 -0.83412030571E-02 -0.11037512069E-02  0.13938094897E-02  0.85438727203E-02  0.51100000000E-03 0. -1.
        -14    1    1    0    0    0  0.63087170745E-03  0.48249271339E-05 -0.98977091965E-03  0.11737413959E-02  0.00000000000E+00 0. -1.
         12    1    1    0    0    0  0.12135131215E-03 -0.12434158997E-02 -0.39488465103E-02  0.41417626686E-02  0.00000000000E+00 0.  1.
         14    1    1    0    0    0 -0.14414384685E-02 -0.61981967732E-03  0.57402410890E-03  0.16707558075E-02  0.00000000000E+00 0.  1.
     999901    1    1    0    0    0  0.33267431012E-02 -0.56683748738E-02  0.58233435763E-02  0.90004283733E+00  0.90000000000E+00 0.  1.
     999903    1    1    0    0    0  0.57036754048E-02  0.86305367306E-02 -0.28525597449E-02  0.22697030081E-01  0.20000000000E-01 0.  0.
</event>
<event>
 7    1  0.5676831E-066  0.9118800E+02  0.7957747E-01            NaN
     999900   -1    0    0    0    0  0.00000000000E+00  0.00000000000E+00  0.99999998245E-14  0.93827000000E+00  0.93827000000E+00 0.  1.
        -11    1    1    0    0    0  0.36644200945E-03 -0.90172925929E-03 -0.10192097291E-02  0.14991013559E-02  0.51100000000E-03 0. -1.
        -14    1    1    0    0    0  0.52386360487E-02  0.34916382164E-02  0.24875290351E-02  0.67692426301E-02  0.00000000000E+00 0. -1.
         12    1    1    0    0    0  0.24230936573E-03 -0.42650210185E-02 -0.39204693595E-02  0.57982064569E-02  0.00000000000E+00 0.  1.
         14    1    1    0    0    0 -0.21395437327E-02 -0.41668682482E-03  0.90507013905E-03  0.23601752585E-02  0.00000000000E+00 0.  1.
     999901    1    1    0    0    0 -0.25372008332E-02 -0.23314162504E-03 -0.67646919037E-02  0.90002902886E+00  0.90000000000E+00 0. -1.
     999903    1    1    0    0    0 -0.11706428579E-02  0.23249405113E-02  0.83117718182E-02  0.21814245434E-01  0.20000000000E-01 0.  0.
</event>
<event>
 7    1  0.5979121E-066  0.9118800E+02  0.7957747E-01            NaN
     999900   -1    0    0    0    0  0.00000000000E+00  0.00000000000E+00  0.99999998245E-14  0.93827000000E+00  0.93827000000E+00 0.  1.
        -11    1    1    0    0    0  0.84133537444E-03  0.25999953197E-02 -0.26198367027E-03  0.27924142455E-02  0.51100000000E-03 0. -1.
        -14    1    1    0    0    0 -0.39093002807E-02 -0.41510976892E-02 -0.10044573642E-03  0.57030106133E-02  0.00000000000E+00 0. -1.
         12    1    1    0    0    0 -0.40627590251E-02 -0.22891763398E-02  0.83638261924E-03  0.47377077893E-02  0.00000000000E+00 0.  1.
         14    1    1    0    0    0 -0.48907581785E-03  0.28155074361E-02 -0.12048810220E-02  0.31012925620E-02  0.00000000000E+00 0.  1.
     999901    1    1    0    0    0  0.13745196417E-02  0.14910879109E-02 -0.56771231017E-02  0.90002018998E+00  0.90000000000E+00 0. -1.
     999903    1    1    0    0    0  0.62452801075E-02 -0.46631663770E-03  0.64080509111E-02  0.21915384809E-01  0.20000000000E-01 0.  0.
</event>
<event>
 7    1  0.5676831E-066  0.9118800E+02  0.7957747E-01            NaN
     999900   -1    0    0    0    0  0.00000000000E+00  0.00000000000E+00  0.99999998245E-14  0.93827000000E+00  0.93827000000E+00 0.  1.
        -11    1    1    0    0    0 -0.39853805946E-02  0.14331618889E-02 -0.50363657229E-02  0.66002509178E-02  0.51100000000E-03 0. -1.
        -14    1    1    0    0    0  0.16656897692E-04 -0.10064059713E-02 -0.31275628692E-03  0.10540146708E-02  0.00000000000E+00 0. -1.
         12    1    1    0    0    0 -0.13013056667E-02 -0.13595523207E-02  0.15238090051E-02  0.24215228339E-02  0.00000000000E+00 0.  1.
         14    1    1    0    0    0  0.97197925483E-03  0.46564080988E-02 -0.84632165911E-03  0.48314739371E-02  0.00000000000E+00 0.  1.
     999901    1    1    0    0    0  0.91326295493E-02 -0.14190631842E-01  0.23529395038E-02  0.90016127182E+00  0.90000000000E+00 0.  1.
     999903    1    1    0    0    0 -0.48345794406E-02  0.10467020147E-01  0.23186951600E-02  0.23201465824E-01  0.20000000000E-01 0.  0.
</event>
<event>
 7    1  0.5676831E-066  0.9118800E+02  0.7957747E-01            NaN
     999900   -1    0    0    0    0  0.00000000000E+00  0.00000000000E+00  0.99999998245E-14  0.93827000000E+00  0.93827000000E+00 0.  1.
        -11    1    1    0    0    0  0.18615764726E-02 -0.10264084817E-02 -0.15755857907E-03  0.21920143796E-02  0.51100000000E-03 0. -1.
        -14    1    1    0    0    0 -0.28260958388E-02  0.19272824632E-02 -0.38688711043E-02  0.51642423457E-02  0.00000000000E+00 0. -1.
         12    1    1    0    0    0  0.16450477142E-02 -0.54286849062E-02 -0.23701280543E-02  0.61477076042E-02  0.00000000000E+00 0.  1.
         14    1    1    0    0    0  0.36970383084E-03  0.15845748746E-02 -0.50639564212E-04  0.16279197834E-02  0.00000000000E+00 0.  1.
     999901    1    1    0    0    0  0.35425220705E-02  0.10125618855E-01 -0.12791283268E-02  0.90006483866E+00  0.90000000000E+00 0.  1.
     999903    1    1    0    0    0 -0.45927542493E-02 -0.71823828049E-02  0.77263256288E-02  0.23073277229E-01  0.20000000000E-01 0.  0.
</event>
<event>
 7    1  0.5676831E-066  0.9118800E+02  0.7957747E-01            NaN
     999900   -1    0    0    0    0  0.00000000000E+00  0.00000000000E+00  0.99999998245E-14  0.93827000000E+00  0.93827000000E+00 0. -1.
        -11    1    1    0    0    0 -0.27976809845E-02 -0.11384188192E-02 -0.15862024314E-02  0.34496630926E-02  0.51100000000E-03 0. -1.
        -14    1    1    0    0    0  0.53082408316E-02  0.29078126533E-02 -0.34275578862E-02  0.69556414669E-02  0.00000000000E+00 0. -1.
         12    1    1    0    0    0  0.79411397176E-03  0.72621868795E-03  0.18372831823E-03  0.10916806666E-02  0.00000000000E+00 0.  1.
         14    1    1    0    0    0 -0.69671876976E-03  0.44595333855E-02 -0.19042811764E-02  0.48988919012E-02  0.00000000000E+00 0.  1.
     999901    1    1    0    0    0 -0.47210275957E-02  0.95619352951E-03  0.34840310737E-02  0.90001963361E+00  0.90000000000E+00 0. -1.
     999903    1    1    0    0    0  0.21130725467E-02 -0.79113394370E-02  0.32502821020E-02  0.21854489265E-01  0.20000000000E-01 0.  0.
</event>
<event>
 7    1  0.5676831E-066  0.9118800E+02  0.7957747E-01            NaN
     999900   -1    0    0    0    0  0.00000000000E+00  0.00000000000E+00  0.99999998245E-14  0.93827000000E+00  0.93827000000E+00 0. -1.
        -11    1    1    0    0    0 -0.46198771688E-03 -0.10577060157E-02 -0.92398890097E-03  0.15643053268E-02  0.51100000000E-03 0. -1.
        -14    1    1    0    0    0 -0.14242875032E-02  0.31787499052E-02  0.61961656518E-02  0.71081301786E-02  0.00000000000E+00 0. -1.
         12    1    1    0    0    0 -0.11850406301E-02 -0.14187504203E-03  0.16695128318E-02  0.20522482593E-02  0.00000000000E+00 0.  1.
         14    1    1    0    0    0  0.38955768973E-02 -0.23563747511E-03  0.22438461343E-02  0.45017651934E-02  0.00000000000E+00 0.  1.
     999901    1    1    0    0    0  0.70603796842E-02 -0.74643509711E-02 -0.14483418348E-01  0.90017516901E+00  0.90000000000E+00 0.  1.
     999903    1    1    0    0    0 -0.78846407312E-02  0.57208195987E-02  0.52978826312E-02  0.22868382031E-01  0.20000000000E-01 0.  0.
</event>
<event>
 7    1  0.5676831E-066  0.9118800E+02  0.7957747E-01            NaN
     999900   -1    0    0    0    0  0.00000000000E+00  0.00000000000E+00  0.99999998245E-14  0.93827000000E+00  0.93827000000E+00 0.  1.
        -11    1    1    0    0    0 -0.18783423506E-02 -0.48258777296E-03 -0.73062815029E-03  0.21344787276E-02  0.51100000000E-03 0. -1.
        -14    1    1    0    0    0 -0.15729038308E-03  0.68946011154E-02  0.47027668655E-02  0.83472319362E-02  0.00000000000E+00 0. -1.
         12    1    1    0    0    0 -0.82410296022E-03  0.64830006768E-03  0.48251603473E-03  0.11542358470E-02  0.00000000000E+00 0.  1.
         14    1    1    0    0    0 -0.19284896271E-02 -0.17771236636E-02 -0.16666057916E-02  0.31072199185E-02  0.00000000000E+00 0.  1.
     999901    1    1    0    0    0  0.38430666840E-02  0.64270681797E-02  0.95358198977E-03  0.90003165816E+00  0.90000000000E+00 0. -1.
     999903    1    1    0    0    0  0.94515863695E-03 -0.11710257926E-01 -0.37416309481E-02  0.23495175413E-01  0.20000000000E-01 0.  0.
</event>
<event>
 7    1  0.5676831E-066  0.9118800E+02  0.7957747E-01            NaN
     999900   -1    0    0    0    0  0.00000000000E+00  0.00000000000E+00  0.99999998245E-14  0.93827000000E+00  0.93827000000E+00 0. -1.
        -11    1    1    0    0    0 -0.40040953612E-02 -0.14118993654E-02 -0.17219143117E-03  0.42798376568E-02  0.51100000000E-03 0. -1.
        -14    1    1    0    0    0  0.90475411829E-03 -0.39270633557E-02 -0.12844990728E-03  0.40319853662E-02  0.00000000000E+00 0. -1.
         12    1    1    0    0    0  0.20252802686E-03 -0.20090594591E-02 -0.59209871990E-03  0.21042619623E-02  0.00000000000E+00 0.  1.
         14    1    1    0    0    0  0.39703215004E-04 -0.24866388942E-03  0.15686110339E-02  0.15886946374E-02  0.00000000000E+00 0.  1.
     999901    1    1    0    0    0 -0.21404097024E-02  0.23081370807E-01  0.23831773069E-02  0.90030162199E+00  0.90000000000E+00 0. -1.
     999903    1    1    0    0    0  0.49975197034E-02 -0.15484684737E-01 -0.30590482825E-02  0.25963598383E-01  0.20000000000E-01 0.  0.
</event>
<event>
 7    1  0.5676831E-066  0.9118800E+02  0.7957747E-01            NaN
     999900   -1    0    0    0    0  0.00000000000E+00  0.00000000000E+00  0.99999998245E-14  0.93827000000E+00  0.93827000000E+00 0.  1.
        -11    1    1    0    0    0  0.47695318535E-03  0.14077269149E-02 -0.30060373577E-04  0.15720063721E-02  0.51100000000E-03 0. -1.
        -14    1    1    0    0    0 -0.66032387987E-02  0.13308088284E-02 -0.17758911025E-04  0.67360322260E-02  0.00000000000E+00 0. -1.
         12    1    1    0    0    0  0.75939499002E-03 -0.48601584806E-03 -0.26117505355E-02  0.27629934881E-02  0.00000000000E+00 0.  1.
         14    1    1    0    0    0 -0.94654402472E-03 -0.34299467188E-02  0.27389668221E-02  0.44902582707E-02  0.00000000000E+00 0.  1.
     999901    1    1    0    0    0  0.73946786128E-03  0.20496444442E-02  0.89600949359E-02  0.90004723829E+00  0.90000000000E+00 0.  1.
     999903    1    1    0    0    0  0.55739667868E-02 -0.87221762066E-03 -0.90394919379E-02  0.22661471351E-01  0.20000000000E-01 0.  0.
</event>
<event>
 7    1  0.5676831E-066  0.9118800E+02  0.7957747E-01            NaN
     999900   -1    0    0    0    0  0.00000000000E+00  0.00000000000E+00  0.99999998245E-14  0.93827000000E+00  0.93827000000E+00 0. -1.
        -11    1    1    0    0    0  0.11377633619E-02  0.33377874165E-03 -0.26099630638E-03  0.13172523631E-02  0.51100000000E-03 0. -1.
        -14    1    1    0    0    0 -0.65977777367E-02  0.31059987090E-02  0.81276346515E-03  0.73374711920E-02  0.00000000000E+00 0. -1.
         12    1    1    0    0    0 -0.15160110578E-02  0.62047349767E-03  0.19274340859E-02  0.25294819715E-02  0.00000000000E+00 0.  1.
         14    1    1    0    0    0  0.24829979295E-02  0.19584382664E-02 -0.35432674875E-02  0.47492634849E-02  0.00000000000E+00 0.  1.
     999901    1    1    0    0    0  0.40192929272E-02 -0.11493233497E-01  0.90045062141E-02  0.90012739669E+00  0.90000000000E+00 0. -1.
     999903    1    1    0    0    0  0.47373457593E-03  0.54745442819E-02 -0.79404399712E-02  0.22209134303E-01  0.20000000000E-01 0.  0.
</event>
<event>
 7    1  0.5676831E-066  0.9118800E+02  0.7957747E-01            NaN
     999900   -1    0    0    0    0  0.00000000000E+00  0.00000000000E+00  0.99999998245E-14  0.93827000000E+00  0.93827000000E+00 0.  1.
        -11    1    1    0    0    0 -0.19495851630E-02 -0.50173933516E-03 -0.60600154722E-03  0.21635580749E-02  0.51100000000E-03 0. -1.
        -14    1    1    0    0    0 -0.19713216969E-02  0.19450877396E-02 -0.10187927054E-02  0.29508327848E-02  0.00000000000E+00 0. -1.
         12    1    1    0    0    0 -0.42094089592E-02  0.27111249573E-02 -0.72122373481E-02  0.87798456641E-02  0.00000000000E+00 0.  1.
         14    1    1    0    0    0 -0.21684880460E-02 -0.16911778195E-02 -0.11500241356E-02  0.29807680781E-02  0.00000000000E+00 0.  1.
     999901    1    1    0    0    0  0.94370459428E-02 -0.93591171405E-02  0.11457077453E-01  0.90017104793E+00  0.90000000000E+00 0.  1.
     999903    1    1    0    0    0  0.86175792228E-03  0.68958215982E-02 -0.14700217169E-02  0.21223947467E-01  0.20000000000E-01 0.  0.
</event>
<event>
 7    1  0.5676831E-066  0.9118800E+02  0.7957747E-01            NaN
     999900   -1    0    0    0    0  0.00000000000E+00  0.00000000000E+00  0.99999998245E-14  0.93827000000E+00  0.93827000000E+00 0. -1.
        -11    1    1    0    0    0 -0.33831654542E-03  0.24158834968E-03  0.10167799476E-02  0.12115219674E-02  0.51100000000E-03 0. -1.
        -14    1    1    0    0    0  0.86674550763E-04  0.25402450880E-02 -0.17358929946E-02  0.30779347091E-02  0.00000000000E+00 0. -1.
         12    1    1    0    0    0  0.80277560300E-03  0.11946451163E-02 -0.55612977239E-02  0.57445328788E-02  0.00000000000E+00 0.  1.
         14    1    1    0    0    0 -0.30718787585E-02 -0.28335644768E-02  0.10641705790E-02  0.43125382053E-02  0.00000000000E+00 0.  1.
     999901    1    1    0    0    0  0.40538117271E-02  0.72857999145E-02 -0.46086858235E-02  0.90005041873E+00  0.90000000000E+00 0.  1.
     999903    1    1    0    0    0 -0.15330665769E-02 -0.84287139916E-02  0.98249260154E-02  0.23873053510E-01  0.20000000000E-01 0.  0.
</event>
<event>
 7    1  0.5676831E-066  0.9118800E+02  0.7957747E-01            NaN
     999900   -1    0    0    0    0  0.00000000000E+00  0.00000000000E+00  0.99999998245E-14  0.93827000000E+00  0.93827000000E+00 0.  1.
        -11    1    1    0    0    0 -0.33867912819E-04 -0.48057172006E-03 -0.58957437893E-04  0.70476463668E-03  0.51100000000E-03 0.  1.
        -14    1    1    0    0    0  0.29015865076E-02  0.32967965864E-02 -0.67542303219E-03  0.44434522913E-02  0.00000000000E+00 0. -1.
         12    1    1    0    0    0 -0.59178598880E-02  0.16323270905E-02  0.17631528335E-02  0.63870388521E-02  0.00000000000E+00 0.  1.
         14    1    1    0    0    0  0.33360278399E-02 -0.17872038659E-02 -0.26485821468E-02  0.46193253615E-02  0.00000000000E+00 0.  1.
     999901    1    1    0    0    0  0.67288302309E-02 -0.61282497106E-02  0.65964050425E-02  0.90007018902E+00  0.90000000000E+00 0.  1.
     999903    1    1    0    0    0 -0.70147167776E-02  0.34669016197E-02 -0.49765952590E-02  0.22045229840E-01  0.20000000000E-01 0.  0.
</event>
<event>
 7    1  0.5676831E-066  0.9118800E+02  0.7957747E-01            NaN
     999900   -1    0    0    0    0  0.00000000000E+00  0.00000000000E+00  0.99999998245E-14  0.93827000000E+00  0.93827000000E+00 0. -1.
        -11    1    1    0    0    0  0.14788359454E-02 -0.24443079920E-02  0.87569620533E-03  0.30314290619E-02  0.51100000000E-03 0. -1.
        -14    1    1    0    0    0 -0.23641906305E-03  0.16624702005E-02  0.54735793796E-03  0.17661545383E-02  0.00000000000E+00 0. -1.
         12    1    1    0    0    0 -0.10448933625E-02  0.26369184480E-02 -0.12736542085E-02  0.31092340027E-02  0.00000000000E+00 0.  1.
         14    1    1    0    0    0  0.19449363139E-02 -0.17335466108E-02 -0.23007795113E-02  0.34758520504E-02  0.00000000000E+00 0.  1.
     999901    1    1    0    0    0 -0.10989124781E-01  0.57434620687E-02 -0.12039177780E-01  0.90016592361E+00  0.90000000000E+00 0.  1.
     999903    1    1    0    0    0  0.88466649470E-02 -0.58649961144E-02  0.14190557357E-01  0.26721406741E-01  0.20000000000E-01 0.  0.
</event>
<event>
 7    1  0.5676831E-066  0.9118800E+02  0.7957747E-01            NaN
     999900   -1    0    0    0    0  0.00000000000E+00  0.00000000000E+00  0.99999998245E-14  0.93827000000E+00  0.93827000000E+00 0.  1.
        -11    1    1    0    0    0 -0.62927413847E-02 -0.24460660659E-02  0.14277773329E-02  0.69196461214E-02  0.51100000000E-03 0. -1.
        -14    1    1    0    0    0  0.36120699234E-03  0.37149732897E-03 -0.32088779341E-02  0.32504427933E-02  0.00000000000E+00 0. -1.
         12    1    1    0    0    0 -0.18798201586E-02 -0.28610614040E-02  0.48395181628E-04  0.34237024227E-02  0.00000000000E+00 0.  1.
         14    1    1    0    0    0 -0.35741884620E-03 -0.78396492218E-04  0.19285516722E-02  0.19629584290E-02  0.00000000000E+00 0.  1.
     999901    1    1    0    0    0  0.57798537428E-02 -0.52023166130E-02 -0.22355189592E-02  0.90003637057E+00  0.90000000000E+00 0.  1.
     999903    1    1    0    0    0  0.23889196543E-02  0.10216343246E-01  0.20396727066E-02  0.22676879662E-01  0.20000000000E-01 0.  0.
</event>
<event>
 7    1  0.5676831E-066  0.9118800E+02  0.7957747E-01            NaN
     999900   -1    0    0    0    0  0.00000000000E+00  0.00000000000E+00  0.99999998245E-14  0.93827000000E+00  0.93827000000E+00 0.  1.
        -11    1    1    0    0    0  0.14850842302E-02 -0.11079293065E-02  0.18720212034E-02  0.26830145182E-02  0.51100000000E-03 0. -1.
        -14    1    1    0    0    0  0.16099879208E-04  0.60121128767E-04 -0.15004251344E-02  0.15017154658E-02  0.00000000000E+00 0. -1.
         12    1    1    0    0    0  0.67324622917E-04  0.32071749032E-02  0.11050663696E-02  0.33928859612E-02  0.00000000000E+00 0.  1.
         14    1    1    0    0    0 -0.78337442345E-03 -0.26468967226E-02 -0.12723012877E-02  0.30394881664E-02  0.00000000000E+00 0.  1.
     999901    1    1    0    0    0 -0.19489807706E-01  0.20899068723E-02  0.49168310365E-03  0.90021356470E+00  0.90000000000E+00 0. -1.
     999903    1    1    0    0    0  0.18704673397E-01 -0.16023768752E-02 -0.69604425463E-03  0.27439331190E-01  0.20000000000E-01 0.  0.
</event>
<event>
 7    1  0.7113871E-066  0.9118800E+02  0.7957747E-01            NaN
     999900   -1    0    0    0    0  0.00000000000E+00  0.00000000000E+00  0.99999998245E-14  0.93827000000E+00  0.93827000000E+00 0. -1.
        -11    1    1    0    0    0  0.58546399696E-02 -0.83138844507E-03 -0.51203056738E-02  0.78387924525E-02  0.51100000000E-03 0. -1.
        -14    1    1    0    0    0 -0.64374879744E-03  0.56969966775E-03  0.46564607340E-02  0.47351448544E-02  0.00000000000E+00 0. -1.
         12    1    1    0    0    0  0.22293245209E-03  0.97269644094E-03  0.12158326304E-02  0.15729228301E-02  0.00000000000E+00 0.  1.
         14    1    1    0    0    0  0.21931470803E-03 -0.33440697618E-02 -0.11891843292E-02  0.35559894378E-02  0.00000000000E+00 0.  1.
     999901    1    1    0    0    0 -0.46384431334E-02 -0.81592202749E-03 -0.26316299043E-02  0.90001617005E+00  0.90000000000E+00 0.  1.
     999903    1    1    0    0    0 -0.10146951989E-02  0.34489841257E-02  0.30688265430E-02  0.20550980371E-01  0.20000000000E-01 0.  0.
</event>
<event>
 7    1  0.5676831E-066  0.9118800E+02  0.7957747E-01            NaN
     999900   -1    0    0    0    0  0.00000000000E+00  0.00000000000E+00  0.99999998245E-14  0.93827000000E+00  0.93827000000E+00 0.  1.
        -11    1    1    0    0    0 -0.69537241100E-03  0.13886946857E-02 -0.90707169427E-03  0.18697368207E-02  0.51100000000E-03 0. -1.
        -14    1    1    0    0    0  0.12426481650E-02  0.66936849925E-03 -0.40078448854E-03  0.14672616862E-02  0.00000000000E+00 0. -1.
         12    1    1    0    0    0  0.18581372940E-02  0.56334852004E-02 -0.56585985146E-02  0.81980831208E-02  0.00000000000E+00 0.  1.
         14    1    1    0    0    0 -0.55187263857E-04 -0.66071386192E-03 -0.12331347739E-02  0.14000749309E-02  0.00000000000E+00 0.  1.
     999901    1    1    0    0    0 -0.11769661842E-01  0.44188768268E-02  0.11891642978E-01  0.90016635273E+00  0.90000000000E+00 0.  1.
     999903    1    1    0    0    0  0.94194360581E-02 -0.11449711350E-01 -0.36920535068E-02  0.25168490713E-01  0.20000000000E-01 0.  0.
</event>
<event>
 7    1  0.5676831E-066  0.9118800E+02  0.7957747E-01            NaN
     999900   -1    0    0    0    0  0.00000000000E+00  0.00000000000E+00  0.99999998245E-14  0.93827000000E+00  0.93827000000E+00 0.  1.
        -11    1    1    0    0    0 -0.37416336966E-02  0.15314116586E-03  0.20945375395E-02  0.43210511963E-02  0.51100000000E-03 0. -1.
        -14    1    1    0    0    0  0.11909137862E-02 -0.15451300391E-02  0.34317027554E-03  0.19807746772E-02  0.00000000000E+00 0. -1.
         12    1    1    0    0    0 -0.68027619269E-03  0.25176057326E-02  0.15299003669E-02  0.30235259973E-02  0.00000000000E+00 0.  1.
         14    1    1    0    0    0  0.29207380669E-02  0.37201911015E-02  0.63080280729E-02  0.78842723732E-02  0.00000000000E+00 0.  1.
     999901    1    1    0    0    0 -0.59845563305E-03  0.11990457616E-02 -0.81345069480E-02  0.90003775813E+00  0.90000000000E+00 0. -1.
     999903    1    1    0    0    0  0.90871366922E-03 -0.60448537225E-02 -0.21411293069E-02  0.21022617624E-01  0.20000000000E-01 0.  0.
</event>
<event>
 7    1  0.5676831E-066  0.9118800E+02  0.7957747E-01            NaN
     999900   -1    0    0    0    0  0.00000000000E+00  0.00000000000E+00  0.99999998245E-14  0.93827000000E+00  0.93827000000E+00 0. -1.
        -11    1    1    0    0    0  0.74446132844E-03  0.17001093366E-02  0.32135342961E-02  0.37460002801E-02  0.51100000000E-03 0. -1.
        -14    1    1    0    0    0 -0.22889677429E-02 -0.20395666335E-03  0.96650367926E-03  0.24930104313E-02  0.00000000000E+00 0. -1.
         12    1    1    0    0    0  0.32412184710E-02  0.20564934695E-02  0.55823797850E-03  0.38789550407E-02  0.00000000000E+00 0.  1.
         14    1    1    0    0    0 -0.42939376351E-02 -0.26055694898E-02 -0.33875774950E-02  0.60582649385E-02  0.00000000000E+00 0.  1.
     999901    1    1    0    0    0 -0.41252791795E-02 -0.72171049324E-02 -0.26769050795E-02  0.90004237142E+00  0.90000000000E+00 0.  1.
     999903    1    1    0    0    0  0.67225047580E-02  0.62700282794E-02  0.13262066206E-02  0.22051397889E-01  0.20000000000E-01 0.  0.
</event>
<event>
 7    1  0.5676831E-066  0.9118800E+02  0.7957747E-01            NaN
     999900   -1    0    0    0    0  0.00000000000E+00  0.00000000000E+00  0.99999998245E-14  0.93827000000E+00  0.93827000000E+00 0.  1.
        -11    1    1    0    0    0  0.14805301340E-03  0.20814372104E-02 -0.64517339383E-02  0.68000214975E-02  0.51100000000E-03 0. -1.
        -14    1    1    0    0    0 -0.55337993332E-03 -0.13722925041E-02  0.86800547722E-03  0.17154735719E-02  0.00000000000E+00 0. -1.
         12    1    1    0    0    0  0.25693150879E-02  0.11445113998E-02  0.11133759037E-02  0.30250441762E-02  0.00000000000E+00 0.  1.
         14    1    1    0    0    0  0.79694046271E-03  0.13194315798E-02 -0.16428080777E-02  0.22527388164E-02  0.00000000000E+00 0.  1.
     999901    1    1    0    0    0 -0.74141137757E-03  0.59392353404E-02  0.16262587089E-01  0.90016681562E+00  0.90000000000E+00 0.  1.
     999903    1    1    0    0    0 -0.22195172531E-02 -0.91123230263E-02 -0.10149426454E-01  0.24309906316E-01  0.20000000000E-01 0.  0.
</event>
<event>
 7    1  0.5676831E-066  0.9118800E+02  0.7957747E-01            NaN
     999900   -1    0    0    0    0  0.00000000000E+00  0.00000000000E+00  0.99999998245E-14  0.93827000000E+00  0.93827000000E+00 0. -1.
        -11    1    1    0    0    0 -0.30661224211E-02 -0.39637893987E-02 -0.11845166299E-02  0.51746433447E-02  0.51100000000E-03 0. -1.
        -14    1    1    0    0    0  0.21180186209E-02  0.50167718407E-02  0.28592046445E-02  0.61505328045E-02  0.00000000000E+00 0. -1.
         12    1    1    0    0    0 -0.23208877625E-02  0.22062536664E-02 -0.59174507201E-04  0.32027452083E-02  0.00000000000E+00 0.  1.
         14    1    1    0    0    0  0.10258333159E-02  0.40414981128E-03  0.21602439950E-02  0.24253505272E-02  0.00000000000E+00 0.  1.
     999901    1    1    0    0    0 -0.56208799436E-03  0.19566723469E-02 -0.74547688911E-02  0.90003317610E+00  0.90000000000E+00 0.  1.
     999903    1    1    0    0    0  0.28052462411E-02 -0.56200582666E-02  0.36790113887E-02  0.21283552011E-01  0.20000000000E-01 0.  0.
</event>
<event>
 7    1  0.5676831E-066  0.9118800E+02  0.7957747E-01            NaN
     999900   -1    0    0    0    0  0.00000000000E+00  0.00000000000E+00  0.99999998245E-14  0.93827000000E+00  0.93827000000E+00 0.  1.
        -11    1    1    0    0    0  0.55367037656E-02 -0.24255604845E-02  0.16742009224E-02  0.62930518812E-02  0.51100000000E-03 0. -1.
        -14    1    1    0    0    0 -0.32077334516E-04  0.14834821692E-02 -0.45669561816E-05  0.14838359609E-02  0.00000000000E+00 0. -1.
         12    1    1    0    0    0 -0.52074571979E-02  0.85665307848E-03  0.27192152489E-02  0.59368001933E-02  0.00000000000E+00 0.  1.
         14    1    1    0    0    0 -0.99242169084E-03 -0.13886338986E-02 -0.12688440531E-02  0.21267745879E-02  0.00000000000E+00 0.  1.
     999901    1    1    0    0    0  0.42737919942E-05  0.80522270937E-02 -0.10533709043E-01  0.90009765993E+00  0.90000000000E+00 0. -1.
     999903    1    1    0    0    0  0.69097866575E-03 -0.65781679584E-02  0.74137038809E-02  0.22331877450E-01  0.20000000000E-01 0.  0.
</event>
<event>
 7    1  0.5676831E-066  0.9118800E+02  0.7957747E-01            NaN
     999900   -1    0    0    0    0  0.00000000000E+00  0.00000000000E+00  0.99999998245E-14  0.93827000000E+00  0.93827000000E+00 0. -1.
        -11    1    1    0    0    0  0.21794442482E-02  0.31465049817E-02  0.14940939197E-02  0.41405203141E-02  0.51100000000E-03 0. -1.
        -14    1    1    0    0    0 -0.34472623508E-02 -0.77845027742E-03 -0.31896042025E-02  0.47605858377E-02  0.00000000000E+00 0. -1.
         12    1    1    0    0    0  0.26954127953E-02 -0.42558959452E-03 -0.24338218149E-02  0.36564826359E-02  0.00000000000E+00 0.  1.
         14    1    1    0    0    0 -0.73357993022E-03  0.20292042028E-02  0.21499475263E-02  0.30459946777E-02  0.00000000000E+00 0.  1.
     999901    1    1    0    0    0 -0.67526487154E-02 -0.12318577288E-01  0.34402608973E-02  0.90011620417E+00  0.90000000000E+00 0.  1.
     999903    1    1    0    0    0  0.60586339529E-02  0.83469079757E-02 -0.14608763260E-02  0.22550212366E-01  0.20000000000E-01 0.  0.
</event>
<event>
 7    1  0.5676831E-066  0.9118800E+02  0.7957747E-01            NaN
     999900   -1    0    0    0    0  0.00000000000E+00  0.00000000000E+00  0.99999998245E-14  0.93827000000E+00  0.93827000000E+00 0.  1.
        -11    1    1    0    0    0  0.14905814191E-02  0.13855846628E-02  0.22855898522E-03  0.21106961018E-02  0.51100000000E-03 0. -1.
        -14    1    1    0    0    0  0.20278437707E-02 -0.15017670778E-02 -0.75138894929E-02  0.79262847555E-02  0.00000000000E+00 0. -1.
         12    1    1    0    0    0 -0.22013539605E-03 -0.14557913898E-02  0.78450573741E-03  0.16683037539E-02  0.00000000000E+00 0.  1.
         14    1    1    0    0    0  0.88934852643E-03  0.21388572374E-02  0.32584865008E-03  0.23391939693E-02  0.00000000000E+00 0.  1.
     999901    1    1    0    0    0 -0.16157274424E-01 -0.52550112129E-02  0.95575550413E-02  0.90021109720E+00  0.90000000000E+00 0.  1.
     999903    1    1    0    0    0  0.11969636104E-01  0.46881277804E-02 -0.33825789211E-02  0.24014424222E-01  0.20000000000E-01 0.  0.
</event>
<event>
 7    1  0.5676831E-066  0.9118800E+02  0.7957747E-01            NaN
     999900   -1    0    0    0    0  0.00000000000E+00  0.00000000000E+00  0.99999998245E-14  0.93827000000E+00  0.93827000000E+00 0.  1.
        -11    1    1    0    0    0  0.84636894340E-05  0.61606469950E-03 -0.18487714258E-02  0.20146176145E-02  0.51100000000E-03 0. -1.
        -14    1    1    0    0    0  0.17528876280E-02 -0.47825536656E-02  0.43866951997E-02  0.67222413952E-02  0.00000000000E+00 0. -1.
         12    1    1    0    0    0 -0.15135819867E-02 -0.14461938547E-03 -0.31449771271E-02  0.34932400901E-02  0.00000000000E+00 0.  1.
         14    1    1    0    0    0 -0.18669522450E-02 -0.23686465666E-02 -0.57363575600E-03  0.30700252805E-02  0.00000000000E+00 0.  1.
     999901    1    1    0    0    0 -0.56909463023E-03  0.12397461330E-01 -0.80159766153E-02  0.90012125672E+00  0.90000000000E+00 0. -1.
     999903    1    1    0    0    0  0.21882775445E-02 -0.57177064116E-02  0.91966657245E-02  0.22848618901E-01  0.20000000000E-01 0.  0.
</event>
<event>
 7    1  0.5676831E-066  0.9118800E+02  0.7957747E-01            NaN
     999900   -1    0    0    0    0  0.00000000000E+00  0.00000000000E+00  0.99999998245E-14  0.93827000000E+00  0.93827000000E+00 0.  1.
        -11    1    1    0    0    0  0.41719372513E-02  0.17251167766E-02  0.26347789921E-02  0.52520728917E-02  0.51100000000E-03 0. -1.
        -14    1    1    0    0    0  0.70928689865E-03 -0.24769801466E-02 -0.42262334135E-03  0.26109632398E-02  0.00000000000E+00 0. -1.
         12    1    1    0    0    0 -0.13842081956E-02 -0.11309854104E-02  0.16012689995E-02  0.23998380645E-02  0.00000000000E+00 0.  1.
         14    1    1    0    0    0 -0.15416649956E-02  0.17670017932E-03 -0.50205312281E-02  0.52548727601E-02  0.00000000000E+00 0.  1.
     999901    1    1    0    0    0 -0.87348536258E-04  0.94895435539E-02  0.82501761357E-02  0.90008784264E+00  0.90000000000E+00 0.  1.
     999903    1    1    0    0    0 -0.18680024225E-02 -0.77833949529E-02 -0.70430695579E-02  0.22664410401E-01  0.20000000000E-01 0.  0.
</event>
<event>
 7    1  0.5676831E-066  0.9118800E+02  0.7957747E-01            NaN
     999900   -1    0    0    0    0  0.00000000000E+00  0.00000000000E+00  0.99999998245E-14  0.93827000000E+00  0.93827000000E+00 0. -1.
        -11    1    1    0    0    0  0.60358563346E-03 -0.32429935354E-03  0.24121448019E-02  0.25591110240E-02  0.51100000000E-03 0. -1.
        -14    1    1    0    0    0 -0.32898484934E-02  0.27307076806E-02  0.22195714333E-02  0.48172985058E-02  0.00000000000E+00 0. -1.
         12    1    1    0    0    0 -0.52923554478E-03  0.55292254612E-03 -0.22904297970E-03  0.79892070346E-03  0.00000000000E+00 0.  1.
         14    1    1    0    0    0 -0.92090772813E-03 -0.58914717965E-03  0.20659382053E-02  0.23373630679E-02  0.00000000000E+00 0.  1.
     999901    1    1    0    0    0 -0.34249756682E-02 -0.19684435704E-01 -0.63616298998E-02  0.90024423231E+00  0.90000000000E+00 0.  1.
     999903    1    1    0    0    0  0.75613818010E-02  0.17314252011E-01 -0.10698156105E-03  0.27513074392E-01  0.20000000000E-01 0.  0.
</event>
<event>
 7    1  0.5676831E-066  0.9118800E+02  0.7957747E-01            NaN
     999900   -1    0    0    0    0  0.00000000000E+00  0.00000000000E+00  0.99999998245E-14  0.93827000000E+00  0.93827000000E+00 0.  1.
        -11    1    1    0    0    0 -0.22287614560E-03 -0.59922227162E-03  0.71499132367E-03  0.10867726073E-02  0.51100000000E-03 0. -1.
        -14    1    1    0    0    0 -0.34695281975E-02  0.13739742743E-02 -0.20873464533E-02  0.42757977543E-02  0.00000000000E+00 0. -1.
         12    1    1    0    0    0  0.46961385029E-02 -0.23570350901E-02  0.17467243612E-03  0.52573607176E-02  0.00000000000E+00 0.  1.
         14    1    1    0    0    0 -0.17522291660E-02 -0.54614060192E-03  0.10410705975E-02  0.21100721780E-02  0.00000000000E+00 0.  1.
     999901    1    1    0    0    0  0.90819467494E-04  0.92301916869E-02  0.14064099035E-01  0.90015721047E+00  0.90000000000E+00 0.  1.
     999903    1    1    0    0    0  0.65767553866E-03 -0.71017679976E-02 -0.13907486939E-01  0.25382786269E-01  0.20000000000E-01 0.  0.
</event>
<event>
 7    1  0.5676831E-066  0.9118800E+02  0.7957747E-01            NaN
     999900   -1    0    0    0    0  0.00000000000E+00  0.00000000000E+00  0.99999998245E-14  0.93827000000E+00  0.93827000000E+00 0.  1.
        -11    1    1    0    0    0 -0.14063143685E-02  0.17611564357E-03  0.10334412962E-02  0.18269807705E-02  0.51100000000E-03 0. -1.
        -14    1    1    0    0    0 -0.18781883276E-02  0.50941236424E-03 -0.16630023993E-02  0.25598182222E-02  0.00000000000E+00 0. -1.
         12    1    1    0    0    0  0.18282880664E-02  0.26696061010E-02 -0.28933988439E-02  0.43406440603E-02  0.00000000000E+00 0.  1.
         14    1    1    0    0    0 -0.48897066652E-02  0.31440938178E-02  0.60179612479E-03  0.58443747127E-02  0.00000000000E+00 0.  1.
     999901    1    1    0    0    0  0.36611930320E-02  0.72160050048E-03 -0.71068195226E-02  0.90003579480E+00  0.90000000000E+00 0. -1.
     999903    1    1    0    0    0  0.26847282628E-02 -0.72208284271E-02  0.10027983345E-01  0.23662387432E-01  0.20000000000E-01 0.  0.
</event>
<event>
 7    1  0.5676831E-066  0.9118800E+02  0.7957747E-01            NaN
     999900   -1    0    0    0    0  0.00000000000E+00  0.00000000000E+00  0.99999998245E-14  0.93827000000E+00  0.93827000000E+00 0.  1.
        -11    1    1    0    0    0 -0.47471504178E-03  0.14377158643E-02  0.24612328335E-02  0.29344793981E-02  0.51100000000E-03 0. -1.
        -14    1    1    0    0    0 -0.48101841667E-03 -0.54135031047E-03  0.15398620685E-02  0.17016503947E-02  0.00000000000E+00 0. -1.
         12    1    1    0    0    0 -0.67506238192E-02  0.33371726191E-02  0.50241650878E-03  0.75471892374E-02  0.00000000000E+00 0.  1.
         14    1    1    0    0    0 -0.12500013135E-02 -0.36342815879E-02  0.70982365633E-03  0.39082420047E-02  0.00000000000E+00 0.  1.
     999901    1    1    0    0    0  0.14648048740E-01  0.59600863419E-03 -0.12222167628E-01  0.90020236722E+00  0.90000000000E+00 0. -1.
     999903    1    1    0    0    0 -0.56916901487E-02 -0.11952652192E-02  0.70088325608E-02  0.21976071750E-01  0.20000000000E-01 0.  0.
</event>
<event>
 7    1  0.5676831E-066  0.9118800E+02  0.7957747E-01            NaN
     999900   -1    0    0    0    0  0.00000000000E+00  0.00000000000E+00  0.99999998245E-14  0.93827000000E+00  0.93827000000E+00 0.  1.
        -11    1    1    0    0    0  0.14176029445E-02 -0.19231125642E-02 -0.14240338352E-02  0.28278885068E-02  0.51100000000E-03 0. -1.
        -14    1    1    0    0    0 -0.19976412558E-02  0.12380874639E-02  0.49646739029E-03  0.24020639094E-02  0.00000000000E+00 0. -1.
         12    1    1    0    0    0 -0.18357664307E-03 -0.79347102856E-03  0.16027132368E-02  0.17977726153E-02  0.00000000000E+00 0.  1.
         14    1    1    0    0    0 -0.78964029056E-02  0.19755402996E-02  0.32285257379E-02  0.87566726993E-02  0.00000000000E+00 0.  1.
     999901    1    1    0    0    0  0.11984755739E-01 -0.41174506229E-02 -0.12480897430E-01  0.90017573871E+00  0.90000000000E+00 0. -1.
     999903    1    1    0    0    0 -0.33247378785E-02  0.36204064522E-02  0.85772248998E-02  0.22309863555E-01  0.20000000000E-01 0.  0.
</event>
<event>
 7    1  0.5676831E-066  0.9118800E+02  0.7957747E-01            NaN
     999900   -1    0    0    0    0  0.00000000000E+00  0.00000000000E+00  0.99999998245E-14  0.93827000000E+00  0.93827000000E+00 0.  1.
        -11    1    1    0    0    0  0.22740857199E-02 -0.13794094629E-03 -0.96236124296E-03  0.25254214952E-02  0.51100000000E-03 0. -1.
        -14    1    1    0    0    0 -0.46815945659E-02 -0.32113237646E-02 -0.77857599471E-03  0.57302799740E-02  0.00000000000E+00 0. -1.
         12    1    1    0    0    0 -0.10663739763E-02  0.35671444178E-02  0.11332260597E-02  0.38917700417E-02  0.00000000000E+00 0.  1.
         14    1    1    0    0    0 -0.92808439748E-03 -0.13915289626E-02 -0.31858172663E-02  0.35982113831E-02  0.00000000000E+00 0.  1.
     999901    1    1    0    0    0  0.13156634945E-01 -0.24330551662E-02  0.15737650976E-03  0.90009946204E+00  0.90000000000E+00 0. -1.
     999903    1    1    0    0    0 -0.87546677254E-02  0.36067044218E-02  0.36361519346E-02  0.22424855064E-01  0.20000000000E-01 0.  0.
</event>
<event>
 7    1  0.5676831E-066  0.9118800E+02  0.7957747E-01            NaN
     999900   -1    0    0    0    0  0.00000000000E+00  0.00000000000E+00  0.99999998245E-14  0.93827000000E+00  0.93827000000E+00 0. -1.
        -11    1    1    0    0    0  0.59609094927E-03 -0.10071409623E-02 -0.34489471768E-03  0.13227738673E-02  0.51100000000E-03 0. -1.
        -14    1    1    0    0    0 -0.39665789031E-02  0.11419888432E-02 -0.10232307983E-02  0.42526330642E-02  0.00000000000E+00 0. -1.
         12    1    1    0    0    0  0.14037396033E-02  0.37926267709E-02 -0.50920264640E-03  0.40760017213E-02  0.00000000000E+00 0.  1.
         14    1    1    0    0    0 -0.10065699629E-02  0.37381035610E-02  0.29266211788E-02  0.48530106993E-02  0.00000000000E+00 0.  1.
     999901    1    1    0    0    0  0.54939444140E-02 -0.18396619189E-01  0.46975186242E-02  0.90021702145E+00  0.90000000000E+00 0. -1.
     999903    1    1    0    0    0 -0.25206261006E-02  0.10731040976E-01 -0.57468116407E-02  0.23548559200E-01  0.20000000000E-01 0.  0.
</event>
<event>
 7    1  0.5676831E-066  0.9118800E+02  0.7957747E-01            NaN
     999900   -1    0    0    0    0  0.00000000000E+00  0.00000000000E+00  0.99999998245E-14  0.93827000000E+00  0.93827000000E+00 0. -1.
        -11    1    1    0    0    0 -0.40472918761E-02 -0.18242627558E-02  0.47382497694E-03  0.44937887401E-02  0.51100000000E-03 0. -1.
        -14    1    1    0    0    0 -0.58645294951E-04 -0.24497806166E-02  0.15899028342E-02  0.29210709273E-02  0.00000000000E+00 0. -1.
         12    1    1    0    0    0 -0.11713392230E-02  0.52039426200E-03 -0.12001612130E-02  0.17559136370E-02  0.00000000000E+00 0.  1.
         14    1    1    0    0    0 -0.22754401237E-02  0.23350686202E-02 -0.65106423949E-03  0.33247643317E-02  0.00000000000E+00 0. -1.
     999901    1    1    0    0    0 -0.65638888445E-02  0.92493155742E-02 -0.41361699171E-03  0.90007155580E+00  0.90000000000E+00 0.  1.
     999903    1    1    0    0    0  0.14116605362E-01 -0.78307350841E-02  0.20111463312E-03  0.25702906567E-01  0.20000000000E-01 0.  0.
</event>
<event>
 7    1  0.5676831E-066  0.9118800E+02  0.7957747E-01            NaN
     999900   -1    0    0    0    0  0.00000000000E+00  0.00000000000E+00  0.99999998245E-14  0.93827000000E+00  0.93827000000E+00 0. -1.
        -11    1    1    0    0    0 -0.25841311103E-03 -0.13449709227E-02 -0.21946266610E-02  0.26368980450E-02  0.51100000000E-03 0. -1.
        -14    1    1    0    0    0  0.21160690500E-03 -0.60717307283E-04  0.35663862051E-02  0.35731743083E-02  0.00000000000E+00 0. -1.
         12    1    1    0    0    0 -0.74480066000E-03  0.36158733489E-02 -0.16497632349E-02  0.40436353483E-02  0.00000000000E+00 0.  1.
         14    1    1    0    0    0 -0.98763506612E-03 -0.40661059670E-02  0.31630334841E-02  0.52453237822E-02  0.00000000000E+00 0.  1.
     999901    1    1    0    0    0  0.12220585180E-01  0.12318037684E-04 -0.42522655396E-02  0.90009300887E+00  0.90000000000E+00 0.  1.
     999903    1    1    0    0    0 -0.10441343248E-01  0.18436028103E-02  0.13672357464E-02  0.22677959647E-01  0.20000000000E-01 0.  0.
</event>
<event>
 7    1  0.5676831E-066  0.9118800E+02  0.7957747E-01            NaN
     999900   -1    0    0    0    0  0.00000000000E+00  0.00000000000E+00  0.99999998245E-14  0.93827000000E+00  0.93827000000E+00 0. -1.
        -11    1    1    0    0    0 -0.55432410835E-03  0.54177267745E-03 -0.15967413910E-02  0.18470238008E-02  0.51100000000E-03 0. -1.
        -14    1    1    0    0    0  0.37437270873E-02  0.67299111734E-02  0.37305827569E-02  0.85571282924E-02  0.00000000000E+00 0. -1.
         12    1    1    0    0    0  0.13853895720E-02 -0.13042807139E-02 -0.15250247865E-02  0.24384735074E-02  0.00000000000E+00 0.  1.
         14    1    1    0    0    0 -0.83987835608E-03 -0.10442154100E-02  0.42464264090E-02  0.44528551203E-02  0.00000000000E+00 0.  1.
     999901    1    1    0    0    0 -0.26973019271E-02 -0.18465931155E-02 -0.10031909689E-01  0.90006184485E+00  0.90000000000E+00 0.  1.
     999903    1    1    0    0    0 -0.10376122678E-02 -0.30765946114E-02  0.51766667010E-02  0.20912674429E-01  0.20000000000E-01 0.  0.
</event>
<event>
 7    1  0.5676831E-066  0.9118800E+02  0.7957747E-01            NaN
     999900   -1    0    0    0    0  0.00000000000E+00  0.00000000000E+00  0.99999998245E-14  0.93827000000E+00  0.93827000000E+00 0.  1.
        -11    1    1    0    0    0  0.29883997404E-03 -0.33262229653E-03  0.92788955135E-03  0.11498012618E-02  0.51100000000E-03 0. -1.
        -14    1    1    0    0    0 -0.24325989089E-02 -0.13324282810E-02 -0.69315873947E-03  0.28589109139E-02  0.00000000000E+00 0. -1.
         12    1    1    0    0    0  0.89030511582E-04 -0.20445871414E-02  0.33289387413E-02  0.39076970397E-02  0.00000000000E+00 0.  1.
         14    1    1    0    0    0  0.63597914464E-03  0.34771368965E-02 -0.36781897107E-02  0.51013753064E-02  0.00000000000E+00 0.  1.
     999901    1    1    0    0    0  0.15479710920E-01  0.53276749761E-02 -0.23493766573E-02  0.90015194559E+00  0.90000000000E+00 0. -1.
     999903    1    1    0    0    0 -0.14070961641E-01 -0.50951741536E-02  0.24638968149E-02  0.25100269893E-01  0.20000000000E-01 0.  0.
</event>
<event>
 7    1  0.5676831E-066  0.9118800E+02  0.7957747E-01            NaN
     999900   -1    0    0    0    0  0.00000000000E+00  0.00000000000E+00  0.99999998245E-14  0.93827000000E+00  0.93827000000E+00 0. -1.
        -11    1    1    0    0    0  0.14849548498E-02 -0.32112619756E-02  0.13020168677E-03  0.35770613443E-02  0.51100000000E-03 0. -1.
        -14    1    1    0    0    0 -0.88783458153E-03  0.62897514560E-03  0.61782780953E-03  0.12512278690E-02  0.00000000000E+00 0. -1.
         12    1    1    0    0    0  0.30157756435E-02 -0.78917939365E-03 -0.89926691244E-03  0.32444395244E-02  0.00000000000E+00 0.  1.
         14    1    1    0    0    0  0.39111982386E-02  0.90284372521E-04 -0.78464783131E-02  0.87677160565E-02  0.00000000000E+00 0.  1.
     999901    1    1    0    0    0 -0.97979463146E-02  0.18194675520E-02  0.14665853012E-01  0.90017464831E+00  0.90000000000E+00 0. -1.
     999903    1    1    0    0    0  0.22738521641E-02  0.14617142991E-02 -0.66681372830E-02  0.21254906897E-01  0.20000000000E-01 0.  0.
</event>
<event>
 7    1  0.5676831E-066  0.9118800E+02  0.7957747E-01            NaN
     999900   -1    0    0    0    0  0.00000000000E+00  0.00000000000E+00  0.99999998245E-14  0.93827000000E+00  0.93827000000E+00 0. -1.
        -11    1    1    0    0    0 -0.63847476342E-03  0.44250011685E-02 -0.25117615938E-02  0.51534796661E-02  0.51100000000E-03 0. -1.
        -14    1    1    0    0    0 -0.35548030365E-02 -0.34028147821E-02  0.13062640179E-04  0.49209697928E-02  0.00000000000E+00 0. -1.
         12    1    1    0    0    0  0.19606686962E-02  0.21554018782E-02  0.29575648899E-02  0.41517669817E-02  0.00000000000E+00 0.  1.
         14    1    1    0    0    0  0.92311389562E-05 -0.72067364221E-03 -0.45257815357E-03  0.85104799958E-03  0.00000000000E+00 0.  1.
     999901    1    1    0    0    0 -0.49956665699E-02  0.16059402392E-02 -0.81824412569E-02  0.90005249184E+00  0.90000000000E+00 0. -1.
     999903    1    1    0    0    0  0.72190445346E-02 -0.40628548616E-02  0.81761534743E-02  0.23140243716E-01  0.20000000000E-01 0.  0.
</event>
<event>
 7    1  0.5676831E-066  0.9118800E+02  0.7957747E-01            NaN
     999900   -1    0    0    0    0  0.00000000000E+00  0.00000000000E+00  0.99999998245E-14  0.93827000000E+00  0.93827000000E+00 0. -1.
        -11    1    1    0    0    0  0.19663124559E-02 -0.12955070984E-02 -0.39057023291E-02  0.45891562405E-02  0.51100000000E-03 0. -1.
        -14    1    1    0    0    0 -0.88557271996E-03  0.11515403295E-02  0.92421831497E-03  0.17217617915E-02  0.00000000000E+00 0. -1.
         12    1    1    0    0    0  0.21885641914E-03  0.16062589615E-02 -0.70917911060E-03  0.17694352190E-02  0.00000000000E+00 0.  1.
         14    1    1    0    0    0  0.32178356094E-02  0.16416489727E-02 -0.28175823751E-03  0.36233775767E-02  0.00000000000E+00 0.  1.
     999901    1    1    0    0    0 -0.20300590786E-01  0.29957525222E-02  0.13214186017E-02  0.90023487750E+00  0.90000000000E+00 0.  1.
     999903    1    1    0    0    0  0.15783159022E-01 -0.60996936875E-02  0.26510027605E-02  0.26331391673E-01  0.20000000000E-01 0.  0.
</event>
<event>
 7    1  0.5676831E-066  0.9118800E+02  0.7957747E-01            NaN
     999900   -1    0    0    0    0  0.00000000000E+00  0.00000000000E+00  0.99999998245E-14  0.93827000000E+00  0.93827000000E+00 0.  1.
        -11    1    1    0    0    0 -0.48046592060E-03  0.62011154732E-02  0.25351952319E-02  0.67359495601E-02  0.51100000000E-03 0. -1.
        -14    1    1    0    0    0  0.28817754718E-02  0.93662564513E-03 -0.28598207579E-03  0.30436299408E-02  0.00000000000E+00 0. -1.
         12    1    1    0    0    0 -0.98168791293E-03  0.86350925779E-04 -0.79910696458E-03  0.12687551307E-02  0.00000000000E+00 0.  1.
         14    1    1    0    0    0 -0.21515181729E-02 -0.24862652054E-02  0.37614215040E-02  0.49958819892E-02  0.00000000000E+00 0.  1.
     999901    1    1    0    0    0  0.57804839644E-02 -0.10316314766E-01  0.61266586292E-03  0.90007789424E+00  0.90000000000E+00 0.  1.
     999903    1    1    0    0    0 -0.50485874298E-02  0.55784879270E-02 -0.58241935584E-02  0.22147889136E-01  0.20000000000E-01 0.  0.
</event>
<event>
 7    1  0.5676831E-066  0.9118800E+02  0.7957747E-01            NaN
     999900   -1    0    0    0    0  0.00000000000E+00  0.00000000000E+00  0.99999998245E-14  0.93827000000E+00  0.93827000000E+00 0.  1.
        -11    1    1    0    0    0  0.19441640656E-02 -0.16701165832E-02 -0.55934004819E-03  0.26726476769E-02  0.51100000000E-03 0. -1.
        -14    1    1    0    0    0 -0.17105812964E-02 -0.23065491684E-02 -0.10077968901E-02  0.30433389574E-02  0.00000000000E+00 0. -1.
         12    1    1    0    0    0 -0.44321975591E-02  0.22538290464E-02 -0.42078456716E-02  0.65138380215E-02  0.00000000000E+00 0.  1.
         14    1    1    0    0    0  0.64179011480E-03  0.10450912773E-02 -0.24224899220E-02  0.27152472727E-02  0.00000000000E+00 0.  1.
     999901    1    1    0    0    0  0.14121724180E-01 -0.37361171258E-02  0.56241276913E-02  0.90013610775E+00  0.90000000000E+00 0.  1.
     999903    1    1    0    0    0 -0.10564899505E-01  0.44138625536E-02  0.25733448407E-02  0.23188820320E-01  0.20000000000E-01 0.  0.
</event>
<event>
 7    1  0.5676831E-066  0.9118800E+02  0.7957747E-01            NaN
     999900   -1    0    0    0    0  0.00000000000E+00  0.00000000000E+00  0.99999998245E-14  0.93827000000E+00  0.93827000000E+00 0. -1.
        -11    1    1    0    0    0  0.45772551777E-04  0.26399595492E-02  0.32487247898E-02  0.42174417966E-02  0.51100000000E-03 0. -1.
        -14    1    1    0    0    0  0.10530107709E-02  0.10959809780E-02  0.11131061899E-03  0.15239409574E-02  0.00000000000E+00 0. -1.
         12    1    1    0    0    0  0.15888707467E-02  0.43417563697E-03 -0.80858868087E-03  0.18348935632E-02  0.00000000000E+00 0.  1.
         14    1    1    0    0    0 -0.33024198961E-02  0.18530731222E-03 -0.42127303373E-03  0.33343345572E-02  0.00000000000E+00 0.  1.
     999901    1    1    0    0    0  0.17482250158E-01 -0.10535060478E-01  0.14973590770E-02  0.90023266918E+00  0.90000000000E+00 0.  1.
     999903    1    1    0    0    0 -0.16867484331E-01  0.61796370018E-02 -0.36275327711E-02  0.27126719948E-01  0.20000000000E-01 0.  0.
</event>
<event>
 7    1  0.5676831E-066  0.9118800E+02  0.7957747E-01            NaN
     999900   -1    0    0    0    0  0.00000000000E+00  0.00000000000E+00  0.99999998245E-14  0.93827000000E+00  0.93827000000E+00 0. -1.
        -11    1    1    0    0    0  0.21902943963E-02 -0.41473260229E-03 -0.81778998991E-03  0.24288462572E-02  0.51100000000E-03 0. -1.
        -14    1    1    0    0    0 -0.21175398566E-02  0.13993370185E-02 -0.51540654565E-05  0.25381382350E-02  0.00000000000E+00 0. -1.
         12    1    1    0    0    0 -0.10662487388E-03  0.29391523563E-02 -0.70036934906E-03  0.30233264234E-02  0.00000000000E+00 0.  1.
         14    1    1    0    0    0  0.22591814548E-02 -0.18371339036E-02 -0.27072343231E-02  0.39759375631E-02  0.00000000000E+00 0.  1.
     999901    1    1    0    0    0  0.55799647884E-02 -0.12536650625E-01 -0.64952327302E-02  0.90012804182E+00  0.90000000000E+00 0.  1.
     999903    1    1    0    0    0 -0.78052759090E-02  0.10450027756E-01  0.10725780458E-01  0.26175709705E-01  0.20000000000E-01 0.  0.
</event>
<event>
 7    1  0.5676831E-066  0.9118800E+02  0.7957747E-01            NaN
     999900   -1    0    0    0    0  0.00000000000E+00  0.00000000000E+00  0.99999998245E-14  0.93827000000E+00  0.93827000000E+00 0. -1.
        -11    1    1    0    0    0 -0.81149932109E-03  0.14058177840E-02 -0.39836333176E-02  0.43318945276E-02  0.51100000000E-03 0. -1.
        -14    1    1    0    0    0 -0.63527075408E-03 -0.55407297066E-03  0.26635758969E-02  0.27937792229E-02  0.00000000000E+00 0. -1.
         12    1    1    0    0    0  0.65395018616E-03  0.32038548523E-03 -0.25189028325E-02  0.26220543825E-02  0.00000000000E+00 0.  1.
         14    1    1    0    0    0  0.21602881706E-02 -0.20566591476E-02  0.55564058568E-02  0.63063727986E-02  0.00000000000E+00 0.  1.
     999901    1    1    0    0    0 -0.12660310911E-02  0.41777612784E-02  0.72777924768E-02  0.90004001177E+00  0.90000000000E+00 0. -1.
     999903    1    1    0    0    0 -0.10143719048E-03 -0.32932324294E-02 -0.89952380804E-02  0.22175887298E-01  0.20000000000E-01 0.  0.
</event>
<event>
 7    1  0.5676831E-066  0.9118800E+02  0.7957747E-01            NaN
     999900   -1    0    0    0    0  0.00000000000E+00  0.00000000000E+00  0.99999998245E-14  0.93827000000E+00  0.93827000000E+00 0.  1.
        -11    1    1    0    0    0  0.12147957182E-02 -0.14275760036E-02  0.42216824510E-03  0.19882275801E-02  0.51100000000E-03 0. -1.
        -14    1    1    0    0    0  0.67084405006E-02 -0.14113726074E-02 -0.16967272430E-02  0.70621547649E-02  0.00000000000E+00 0. -1.
         12    1    1    0    0    0 -0.17614459297E-02  0.15589034108E-02  0.13401129967E-02  0.27071709313E-02  0.00000000000E+00 0.  1.
         14    1    1    0    0    0  0.19756659852E-02  0.33095228510E-02 -0.67483240291E-03  0.39130034958E-02  0.00000000000E+00 0.  1.
     999901    1    1    0    0    0 -0.66417217171E-03 -0.15342712353E-02  0.78899126612E-02  0.90003613585E+00  0.90000000000E+00 0.  1.
     999903    1    1    0    0    0 -0.74732841025E-02 -0.49520641555E-03 -0.72806342571E-02  0.22563307379E-01  0.20000000000E-01 0.  0.
</event>
<event>
 7    1  0.5676831E-066  0.9118800E+02  0.7957747E-01            NaN
     999900   -1    0    0    0    0  0.00000000000E+00  0.00000000000E+00  0.99999998245E-14  0.93827000000E+00  0.93827000000E+00 0. -1.
        -11    1    1    0    0    0 -0.29674726756E-02  0.21017833083E-02 -0.10486983672E-02  0.38189365563E-02  0.51100000000E-03 0. -1.
        -14    1    1    0    0    0 -0.33884473623E-03 -0.32509520288E-02  0.19897077812E-02  0.38265443814E-02  0.00000000000E+00 0. -1.
         12    1    1    0    0    0 -0.12559166113E-02 -0.15427971437E-02  0.42018833960E-02  0.46490185668E-02  0.00000000000E+00 0.  1.
         14    1    1    0    0    0  0.36309066254E-03  0.59898805910E-03  0.15498969028E-02  0.17008238984E-02  0.00000000000E+00 0.  1.
     999901    1    1    0    0    0  0.12562727461E-01 -0.84256478106E-02 -0.53738876070E-02  0.90014315102E+00  0.90000000000E+00 0. -1.
     999903    1    1    0    0    0 -0.83635841008E-02  0.10518625616E-01 -0.13189021058E-02  0.24131525576E-01  0.20000000000E-01 0.  0.
</event>
<event>
 7    1  0.5676831E-066  0.9118800E+02  0.7957747E-01            NaN
     999900   -1    0    0    0    0  0.00000000000E+00  0.00000000000E+00  0.99999998245E-14  0.93827000000E+00  0.93827000000E+00 0. -1.
        -11    1    1    0    0    0  0.86414312737E-02  0.28947256535E-03  0.25082007372E-03  0.86649962800E-02  0.51100000000E-03 0. -1.
        -14    1    1    0    0    0  0.17169546352E-03  0.28695819614E-03  0.93395230226E-03  0.99201373046E-03  0.00000000000E+00 0. -1.
         12    1    1    0    0    0 -0.17954213943E-03 -0.18782373591E-02  0.15356063882E-03  0.18930377246E-02  0.00000000000E+00 0.  1.
         14    1    1    0    0    0 -0.18717431373E-02  0.33443882837E-02 -0.18500502373E-02  0.42557069030E-02  0.00000000000E+00 0.  1.
     999901    1    1    0    0    0 -0.19039125469E-02 -0.58863248378E-03  0.92688809417E-02  0.90004993391E+00  0.90000000000E+00 0. -1.
     999903    1    1    0    0    0 -0.48579289136E-02 -0.14539492023E-02 -0.87571637192E-02  0.22414311455E-01  0.20000000000E-01 0.  0.
</event>
<event>
 7    1  0.5676831E-066  0.9118800E+02  0.7957747E-01            NaN
     999900   -1    0    0    0    0  0.00000000000E+00  0.00000000000E+00  0.99999998245E-14  0.93827000000E+00  0.93827000000E+00 0. -1.
        -11    1    1    0    0    0  0.83660021075E-03 -0.80266977996E-03  0.24556124981E-02  0.27632105292E-02  0.51100000000E-03 0. -1.
        -14    1    1    0    0    0  0.52810190475E-02  0.28935579779E-02 -0.25628520576E-03  0.60272317077E-02  0.00000000000E+00 0. -1.
         12    1    1    0    0    0  0.20750912569E-03  0.82564726078E-03 -0.10484567917E-02  0.13505610244E-02  0.00000000000E+00 0.  1.
         14    1    1    0    0    0  0.35596702649E-02  0.21719417863E-02  0.16727321730E-02  0.44929518627E-02  0.00000000000E+00 0.  1.
     999901    1    1    0    0    0  0.15030586528E-02 -0.69283254789E-02  0.20917160195E-02  0.90003035291E+00  0.90000000000E+00 0.  1.
     999903    1    1    0    0    0 -0.11387857302E-01  0.18398482339E-02 -0.49153186931E-02  0.23605691968E-01  0.20000000000E-01 0.  0.
</event>
<event>
 7    1  0.5676831E-066  0.9118800E+02  0.7957747E-01            NaN
     999900   -1    0    0    0    0  0.00000000000E+00  0.00000000000E+00  0.99999998245E-14  0.93827000000E+00  0.93827000000E+00 0. -1.
        -11    1    1    0    0    0  0.89006185550E-03  0.21936870503E-02 -0.67476552280E-02  0.71691314019E-02  0.51100000000E-03 0. -1.
        -14    1    1    0    0    0  0.25132276055E-02  0.34137089459E-03  0.47485196979E-03  0.25803742903E-02  0.00000000000E+00 0. -1.
         12    1    1    0    0    0 -0.52867281303E-03  0.23902989664E-02  0.13689025488E-02  0.28048027168E-02  0.00000000000E+00 0.  1.
         14    1    1    0    0    0  0.46800261225E-02  0.17383882111E-02  0.10850327872E-02  0.51090052093E-02  0.00000000000E+00 0.  1.
     999901    1    1    0    0    0 -0.41238056291E-02 -0.49171573740E-02  0.66240393145E-02  0.90004725549E+00  0.90000000000E+00 0.  1.
     999903    1    1    0    0    0 -0.34308371413E-02 -0.17465877483E-02 -0.28051713923E-02  0.20559430897E-01  0.20000000000E-01 0.  0.
</event>
<event>
 7    1  0.5676831E-066  0.9118800E+02  0.7957747E-01            NaN
     999900   -1    0    0    0    0  0.00000000000E+00  0.00000000000E+00  0.99999998245E-14  0.93827000000E+00  0.93827000000E+00 0. -1.
        -11    1    1    0    0    0  0.14386362544E-02  0.41005885958E-03  0.93968747004E-03  0.18390095384E-02  0.51100000000E-03 0. -1.
        -14    1    1    0    0    0 -0.18006586808E-02 -0.16244448536E-02 -0.18805310173E-02  0.30688091622E-02  0.00000000000E+00 0. -1.
         12    1    1    0    0    0 -0.41922806866E-03  0.18320463542E-02 -0.36179183399E-03  0.19139068286E-02  0.00000000000E+00 0.  1.
         14    1    1    0    0    0  0.19852921388E-02 -0.23474731579E-03  0.26668907314E-02  0.33329862514E-02  0.00000000000E+00 0.  1.
     999901    1    1    0    0    0  0.11105831966E-01  0.10215992855E-01  0.94401104154E-02  0.90017599485E+00  0.90000000000E+00 0. -1.
     999903    1    1    0    0    0 -0.12309873610E-01 -0.10598905900E-01 -0.10804365766E-01  0.27939293373E-01  0.20000000000E-01 0.  0.
</event>
<event>
 7    1  0.5676831E-066  0.9118800E+02  0.7957747E-01            NaN
     999900   -1    0    0    0    0  0.00000000000E+00  0.00000000000E+00  0.99999998245E-14  0.93827000000E+00  0.93827000000E+00 0. -1.
        -11    1    1    0    0    0  0.19022985189E-02  0.20360570561E-02  0.18095540901E-02  0.33615286694E-02  0.51100000000E-03 0. -1.
        -14    1    1    0    0    0  0.21757356225E-02 -0.78801355718E-03 -0.26682823259E-02  0.35319288549E-02  0.00000000000E+00 0. -1.
         12    1    1    0    0    0  0.30832434693E-02  0.40732629051E-02  0.23094803495E-02  0.56063856869E-02  0.00000000000E+00 0.  1.
         14    1    1    0    0    0 -0.15408869478E-02  0.27090474096E-02 -0.22487521460E-02  0.38431961526E-02  0.00000000000E+00 0.  1.
     999901    1    1    0    0    0 -0.70282485815E-02  0.28046331817E-03 -0.21050068279E-02  0.90002994727E+00  0.90000000000E+00 0. -1.
     999903    1    1    0    0    0  0.14078579186E-02 -0.83108171318E-02  0.29030068602E-02  0.21897013361E-01  0.20000000000E-01 0.  0.
</event>
<event>
 7    1  0.5676831E-066  0.9118800E+02  0.7957747E-01            NaN
     999900   -1    0    0    0    0  0.00000000000E+00  0.00000000000E+00  0.99999998245E-14  0.93827000000E+00  0.93827000000E+00 0.  1.
        -11    1    1    0    0    0  0.13027114487E-02 -0.31498845625E-02  0.49405950419E-03  0.34819600327E-02  0.51100000000E-03 0. -1.
        -14    1    1    0    0    0  0.88816024124E-04  0.21432871715E-02 -0.25153024169E-02  0.33058001201E-02  0.00000000000E+00 0. -1.
         12    1    1    0    0    0  0.21153035415E-02 -0.50854114756E-02  0.16556299318E-02  0.57512632890E-02  0.00000000000E+00 0.  1.
         14    1    1    0    0    0  0.15095215246E-02 -0.16326352438E-02 -0.14389736525E-02  0.26485464401E-02  0.00000000000E+00 0.  1.
     999901    1    1    0    0    0  0.18179390550E-02  0.92590563181E-02  0.10667301903E-01  0.90011267426E+00  0.90000000000E+00 0.  1.
     999903    1    1    0    0    0 -0.68342915939E-02 -0.15344122076E-02 -0.88627152696E-02  0.22969755862E-01  0.20000000000E-01 0.  0.
</event>
<event>
 7    1  0.5676831E-066  0.9118800E+02  0.7957747E-01            NaN
     999900   -1    0    0    0    0  0.00000000000E+00  0.00000000000E+00  0.99999998245E-14  0.93827000000E+00  0.93827000000E+00 0.  1.
        -11    1    1    0    0    0 -0.44849831016E-02  0.27003483743E-02 -0.30243349633E-02  0.60675100111E-02  0.51100000000E-03 0. -1.
        -14    1    1    0    0    0 -0.18078683131E-03  0.87161690600E-03 -0.27642807882E-02  0.29040744111E-02  0.00000000000E+00 0. -1.
         12    1    1    0    0    0 -0.96435493817E-03  0.40536904442E-02  0.13233866272E-02  0.43719262150E-02  0.00000000000E+00 0.  1.
         14    1    1    0    0    0 -0.11397721155E-02  0.55814667735E-04  0.87629290420E-03  0.14387789984E-02  0.00000000000E+00 0.  1.
     999901    1    1    0    0    0  0.90442598687E-02 -0.19242960634E-01  0.26300085886E-02  0.90025496784E+00  0.90000000000E+00 0.  1.
     999903    1    1    0    0    0 -0.22743628821E-02  0.11561490242E-01  0.95892763151E-03  0.23232742527E-01  0.20000000000E-01 0.  0.
</event>
<event>
 7    1  0.5676831E-066  0.9118800E+02  0.7957747E-01            NaN
     999900   -1    0    0    0    0  0.00000000000E+00  0.00000000000E+00  0.99999998245E-14  0.93827000000E+00  0.93827000000E+00 0.  1.
        -11    1    1    0    0    0  0.43746161700E-02 -0.64257111134E-03  0.21961429971E-02  0.49632982312E-02  0.51100000000E-03 0. -1.
        -14    1    1    0    0    0  0.82445836397E-04 -0.32678723262E-02  0.95588873542E-03  0.34058053572E-02  0.00000000000E+00 0. -1.
         12    1    1    0    0    0  0.39204289687E-02 -0.22657843428E-03 -0.29279068132E-02  0.48983404733E-02  0.00000000000E+00 0.  1.
         14    1    1    0    0    0  0.67961823914E-03 -0.11520878300E-02  0.16069337555E-02  0.20907949239E-02  0.00000000000E+00 0.  1.
     999901    1    1    0    0    0 -0.70714293455E-02  0.34729561600E-03  0.78510406424E-02  0.90006208928E+00  0.90000000000E+00 0.  1.
     999903    1    1    0    0    0 -0.19856798687E-02  0.49418140858E-02 -0.96820993173E-02  0.22849671730E-01  0.20000000000E-01 0.  0.
</event>
<event>
 7    1  0.5676831E-066  0.9118800E+02  0.7957747E-01            NaN
     999900   -1    0    0    0    0  0.00000000000E+00  0.00000000000E+00  0.99999998245E-14  0.93827000000E+00  0.93827000000E+00 0. -1.
        -11    1    1    0    0    0  0.43539681325E-03  0.58434546406E-03  0.33557454921E-03  0.95118940513E-03  0.51100000000E-03 0. -1.
        -14    1    1    0    0    0 -0.67600664159E-03  0.55437261088E-03  0.63310977628E-04  0.87653993124E-03  0.00000000000E+00 0. -1.
         12    1    1    0    0    0 -0.17576791482E-02  0.52447428197E-02 -0.23782207979E-02  0.60210212918E-02  0.00000000000E+00 0.  1.
         14    1    1    0    0    0  0.25466750569E-02  0.39125830048E-02  0.21152653605E-02  0.51252519119E-02  0.00000000000E+00 0.  1.
     999901    1    1    0    0    0  0.10415984770E-01 -0.13101953846E-01  0.99238993243E-02  0.90021032971E+00  0.90000000000E+00 0.  1.
     999903    1    1    0    0    0 -0.10964370851E-01  0.28059099467E-02 -0.10059829414E-01  0.25085667753E-01  0.20000000000E-01 0.  0.
</event>
<event>
 7    1  0.5676831E-066  0.9118800E+02  0.7957747E-01            NaN
     999900   -1    0    0    0    0  0.00000000000E+00  0.00000000000E+00  0.99999998245E-14  0.93827000000E+00  0.93827000000E+00 0. -1.
        -11    1    1    0    0    0 -0.33150864483E-02  0.12819492540E-02  0.99146358466E-03  0.37252265822E-02  0.51100000000E-03 0. -1.
        -14    1    1    0    0    0  0.23324467884E-02  0.83910202223E-03 -0.13008953280E-03  0.24822013438E-02  0.00000000000E+00 0. -1.
         12    1    1    0    0    0  0.60743732764E-02 -0.20554895760E-02 -0.40798106196E-02  0.76005199026E-02  0.00000000000E+00 0.  1.
         14    1    1    0    0    0  0.91383840503E-03  0.10685655428E-02  0.12075401997E-02  0.18533985766E-02  0.00000000000E+00 0.  1.
     999901    1    1    0    0    0 -0.12770180454E-01 -0.86731218826E-02  0.35199369088E-02  0.90013926173E+00  0.90000000000E+00 0. -1.
     999903    1    1    0    0    0  0.67646084323E-02  0.75389946396E-02 -0.15090405408E-02  0.22469391865E-01  0.20000000000E-01 0.  0.
</event>
<event>
 7    1  0.5676831E-066  0.9118800E+02  0.7957747E-01            NaN
     999900   -1    0    0    0    0  0.00000000000E+00  0.00000000000E+00  0.99999998245E-14  0.93827000000E+00  0.93827000000E+00 0. -1.
        -11    1    1    0    0    0  0.13360611734E-02  0.19092884931E-02  0.25117829177E-02  0.34641905887E-02  0.51100000000E-03 0. -1.
        -14    1    1    0    0    0 -0.17087814091E-02 -0.28120812106E-02 -0.16516713297E-02  0.36818137949E-02  0.00000000000E+00 0. -1.
         12    1    1    0    0    0 -0.66964614246E-03 -0.20228479107E-02  0.90226938186E-05  0.21308263737E-02  0.00000000000E+00 0.  1.
         14    1    1    0    0    0 -0.28172604937E-02 -0.23115668929E-02 -0.28600269482E-02  0.46324995774E-02  0.00000000000E+00 0.  1.
     999901    1    1    0    0    0 -0.61922365884E-02  0.92224592425E-02  0.10374428250E-01  0.90012833880E+00  0.90000000000E+00 0.  1.
     999903    1    1    0    0    0  0.10051863460E-01 -0.39852517215E-02 -0.83835355835E-02  0.24232330866E-01  0.20000000000E-01 0.  0.
</event>
<event>
 7    1  0.5676831E-066  0.9118800E+02  0.7957747E-01            NaN
     999900   -1    0    0    0    0  0.00000000000E+00  0.00000000000E+00  0.99999998245E-14  0.93827000000E+00  0.93827000000E+00 0. -1.
        -11    1    1    0    0    0 -0.29262966290E-04 -0.86799818936E-04 -0.35575118555E-02  0.35951915292E-02  0.51100000000E-03 0. -1.
        -14    1    1    0    0    0 -0.28677761950E-03 -0.21677145020E-02  0.46719123094E-02  0.51582935348E-02  0.00000000000E+00 0. -1.
         12    1    1    0    0    0 -0.92397703484E-03 -0.20679117677E-02 -0.14478762089E-02  0.26881849185E-02  0.00000000000E+00 0.  1.
         14    1    1    0    0    0  0.23115225155E-02  0.38132171218E-02 -0.81074965198E-03  0.45322264016E-02  0.00000000000E+00 0.  1.
     999901    1    1    0    0    0  0.71307157960E-02 -0.24043733703E-02  0.55253284609E-02  0.90004841946E+00  0.90000000000E+00 0. -1.
     999903    1    1    0    0    0 -0.82022206908E-02  0.29135823371E-02 -0.43811030538E-02  0.22247684155E-01  0.20000000000E-01 0.  0.
</event>
<event>
 7    1  0.5676831E-066  0.9118800E+02  0.7957747E-01            NaN
     999900   -1    0    0    0    0  0.00000000000E+00  0.00000000000E+00  0.99999998245E-14  0.93827000000E+00  0.93827000000E+00 0. -1.
        -11    1    1    0    0    0 -0.26309563118E-03 -0.61784825794E-03  0.13807043089E-02  0.16181536297E-02  0.51100000000E-03 0. -1.
        -14    1    1    0    0    0 -0.35443117614E-02  0.45372461964E-02  0.32949838632E-02  0.66336767759E-02  0.00000000000E+00 0. -1.
         12    1    1    0    0    0 -0.82670568521E-03  0.18952104727E-02  0.10486726184E-04  0.20676979947E-02  0.00000000000E+00 0.  1.
         14    1    1    0    0    0 -0.21283172549E-02  0.79240943450E-03 -0.47242263652E-02  0.52417517872E-02  0.00000000000E+00 0.  1.
     999901    1    1    0    0    0  0.14051497717E-01 -0.37071308031E-02 -0.68648093145E-02  0.90014349579E+00  0.90000000000E+00 0.  1.
     999903    1    1    0    0    0 -0.72890673845E-02 -0.28998870425E-02  0.69028607814E-02  0.22565224022E-01  0.20000000000E-01 0.  0.
</event>
<event>
 7    1  0.5676831E-066  0.9118800E+02  0.7957747E-01            NaN
     999900   -1    0    0    0    0  0.00000000000E+00  0.00000000000E+00  0.99999998245E-14  0.93827000000E+00  0.93827000000E+00 0. -1.
        -11    1    1    0    0    0 -0.15266701327E-02  0.28192448970E-03  0.24046192053E-03  0.16520127261E-02  0.51100000000E-03 0. -1.
        -14    1    1    0    0    0  0.21966199943E-02 -0.67415829698E-02  0.14538699311E-02  0.72379429478E-02  0.00000000000E+00 0. -1.
         12    1    1    0    0    0  0.15470453386E-02  0.83743510160E-04  0.12789045102E-02  0.20089696367E-02  0.00000000000E+00 0.  1.
         14    1    1    0    0    0 -0.13834947526E-02 -0.17891133082E-02 -0.34870128377E-02  0.41562293838E-02  0.00000000000E+00 0.  1.
     999901    1    1    0    0    0  0.66995799543E-02  0.14439920617E-01  0.64489347567E-02  0.90016386533E+00  0.90000000000E+00 0.  1.
     999903    1    1    0    0    0 -0.75330804018E-02 -0.62748923389E-02 -0.59351582808E-02  0.23050979980E-01  0.20000000000E-01 0.  0.
</event>
<event>
 7    1  0.5676831E-066  0.9118800E+02  0.7957747E-01            NaN
     999900   -1    0    0    0    0  0.00000000000E+00  0.00000000000E+00  0.99999998245E-14  0.93827000000E+00  0.93827000000E+00 0. -1.
        -11    1    1    0    0    0 -0.14521681758E-03 -0.80099187124E-04 -0.44990860507E-02  0.45310484543E-02  0.51100000000E-03 0. -1.
        -14    1    1    0    0    0 -0.22818795266E-02 -0.46598748502E-03 -0.12845201325E-03  0.23325133289E-02  0.00000000000E+00 0. -1.
         12    1    1    0    0    0  0.26186180892E-03  0.18574906812E-03 -0.46693531441E-03  0.56665943134E-03  0.00000000000E+00 0.  1.
         14    1    1    0    0    0 -0.19898526008E-03 -0.78777570417E-03  0.46908310058E-02  0.47606807516E-02  0.00000000000E+00 0.  1.
     999901    1    1    0    0    0 -0.75328157552E-02 -0.11298441461E-01 -0.42228375322E-02  0.90011234324E+00  0.90000000000E+00 0.  1.
     999903    1    1    0    0    0  0.98970355505E-02  0.12446554769E-01  0.46264799047E-02  0.25966754796E-01  0.20000000000E-01 0.  0.
</event>
<event>
 7    1  0.5676831E-066  0.9118800E+02  0.7957747E-01            NaN
     999900   -1    0    0    0    0  0.00000000000E+00  0.00000000000E+00  0.99999998245E-14  0.93827000000E+00  0.93827000000E+00 0.  1.
        -11    1    1    0    0    0  0.16971020244E-02  0.44537809611E-02  0.34835993687E-03  0.48061206577E-02  0.51100000000E-03 0. -1.
        -14    1    1    0    0    0 -0.18275647602E-02 -0.31009972732E-03  0.10228346469E-02  0.21171550506E-02  0.00000000000E+00 0. -1.
         12    1    1    0    0    0 -0.11210856412E-02  0.42387178610E-02  0.40275928006E-02  0.59535758908E-02  0.00000000000E+00 0.  1.
         14    1    1    0    0    0  0.13876161385E-02 -0.60913649830E-03  0.91403773735E-03  0.17697431471E-02  0.00000000000E+00 0.  1.
     999901    1    1    0    0    0 -0.21867825018E-02 -0.18289853381E-01 -0.44883907284E-03  0.90018859258E+00  0.90000000000E+00 0.  1.
     999903    1    1    0    0    0  0.20507147403E-02  0.10516590785E-01 -0.58639860489E-02  0.23434812674E-01  0.20000000000E-01 0.  0.
</event>
<event>
 7    1  0.5676831E-066  0.9118800E+02  0.7957747E-01            NaN
     999900   -1    0    0    0    0  0.00000000000E+00  0.00000000000E+00  0.99999998245E-14  0.93827000000E+00  0.93827000000E+00 0. -1.
        -11    1    1    0    0    0  0.53494533797E-03  0.59042012505E-03  0.16005270541E-02  0.18594542989E-02  0.51100000000E-03 0. -1.
        -14    1    1    0    0    0  0.13507721367E-02 -0.11260524162E-02 -0.63996066519E-03  0.18713976228E-02  0.00000000000E+00 0. -1.
         12    1    1    0    0    0  0.56315810125E-02 -0.34708404629E-02  0.17959137234E-02  0.68546877625E-02  0.00000000000E+00 0.  1.
         14    1    1    0    0    0  0.35474046363E-02  0.19538216542E-02  0.43603941641E-02  0.59510113407E-02  0.00000000000E+00 0.  1.
     999901    1    1    0    0    0 -0.12952108684E-01  0.72504238970E-02 -0.10811095351E-02  0.90012304412E+00  0.90000000000E+00 0.  1.
     999903    1    1    0    0    0  0.18874055605E-02 -0.51977727971E-02 -0.60357647414E-02  0.21610404851E-01  0.20000000000E-01 0.  0.
</event>
<event>
 7    1  0.5676831E-066  0.9118800E+02  0.7957747E-01            NaN
     999900   -1    0    0    0    0  0.00000000000E+00  0.00000000000E+00  0.99999998245E-14  0.93827000000E+00  0.93827000000E+00 0.  1.
        -11    1    1    0    0    0  0.92344067475E-03  0.39317226275E-03  0.88887872074E-03  0.14347660047E-02  0.51100000000E-03 0. -1.
        -14    1    1    0    0    0 -0.22669037340E-02 -0.51630283513E-04 -0.43831992615E-02  0.49349725421E-02  0.00000000000E+00 0. -1.
         12    1    1    0    0    0 -0.49359190766E-02  0.75836334938E-03  0.26020547491E-02  0.56310834675E-02  0.00000000000E+00 0.  1.
         14    1    1    0    0    0  0.13898583710E-02  0.10679949878E-02 -0.29556671041E-02  0.34363189048E-02  0.00000000000E+00 0.  1.
     999901    1    1    0    0    0  0.41056566323E-02 -0.31124170011E-02 -0.70109024075E-02  0.90004205252E+00  0.90000000000E+00 0. -1.
     999903    1    1    0    0    0  0.78386713262E-03  0.94451668463E-03  0.10858835303E-01  0.22790806559E-01  0.20000000000E-01 0.  0.
</event>
<event>
 7    1  0.5676831E-066  0.9118800E+02  0.7957747E-01            NaN
     999900   -1    0    0    0    0  0.00000000000E+00  0.00000000000E+00  0.99999998245E-14  0.93827000000E+00  0.93827000000E+00 0.  1.
        -11    1    1    0    0    0 -0.10527381852E-03  0.22306026530E-02  0.12453981017E-02  0.26074524356E-02  0.51100000000E-03 0. -1.
        -14    1    1    0    0    0 -0.13309824065E-02 -0.54247330088E-02  0.29561829197E-02  0.63196724471E-02  0.00000000000E+00 0. -1.
         12    1    1    0    0    0  0.17513632862E-02 -0.35479913959E-03  0.19690568994E-02  0.26590112566E-02  0.00000000000E+00 0.  1.
         14    1    1    0    0    0  0.65871605650E-03 -0.59140711089E-03 -0.13450720791E-02  0.16102447366E-02  0.00000000000E+00 0.  1.
     999901    1    1    0    0    0  0.11316430762E-01  0.10558460218E-01 -0.10022518047E-01  0.90018886549E+00  0.90000000000E+00 0. -1.
     999903    1    1    0    0    0 -0.12290253879E-01 -0.64181236118E-02  0.51969522049E-02  0.24884753632E-01  0.20000000000E-01 0.  0.
</event>
<event>
 7    1  0.5676831E-066  0.9118800E+02  0.7957747E-01            NaN
     999900   -1    0    0    0    0  0.00000000000E+00  0.00000000000E+00  0.99999998245E-14  0.93827000000E+00  0.93827000000E+00 0. -1.
        -11    1    1    0    0    0  0.19464782509E-02 -0.18965800314E-02  0.13620900228E-02  0.30825644563E-02  0.51100000000E-03 0. -1.
        -14    1    1    0    0    0 -0.15503614237E-02  0.30033501601E-02  0.82822614992E-03  0.34798981715E-02  0.00000000000E+00 0. -1.
         12    1    1    0    0    0 -0.19386556680E-02 -0.63175009181E-04  0.23858579324E-03  0.19543029605E-02  0.00000000000E+00 0.  1.
         14    1    1    0    0    0  0.17551408126E-02 -0.55795450795E-02 -0.12370644833E-02  0.59784756503E-02  0.00000000000E+00 0.  1.
     999901    1    1    0    0    0  0.74514112560E-02  0.11371783317E-01  0.61503063164E-02  0.90012369553E+00  0.90000000000E+00 0. -1.
     999903    1    1    0    0    0 -0.76640132278E-02 -0.68358333572E-02 -0.73421437991E-02  0.23651063232E-01  0.20000000000E-01 0.  0.
</event>
<event>
 7    1  0.5676831E-066  0.9118800E+02  0.7957747E-01            NaN
     999900   -1    0    0    0    0  0.00000000000E+00  0.00000000000E+00  0.99999998245E-14  0.93827000000E+00  0.93827000000E+00 0.  1.
        -11    1    1    0    0    0  0.39698416323E-03  0.70947579607E-03  0.67085475012E-03  0.11713750155E-02  0.51100000000E-03 0.  1.
        -14    1    1    0    0    0 -0.34096373083E-03  0.11886609579E-02  0.10069297610E-02  0.15947033210E-02  0.00000000000E+00 0. -1.
         12    1    1    0    0    0 -0.59171461760E-05  0.60782633638E-03 -0.22092635624E-02  0.22913605906E-02  0.00000000000E+00 0.  1.
         14    1    1    0    0    0 -0.17535000560E-03 -0.71291993874E-02  0.70649445341E-02  0.10038409874E-01  0.00000000000E+00 0.  1.
     999901    1    1    0    0    0  0.10493632008E-02 -0.41776265498E-02  0.10969672366E-02  0.90001097608E+00  0.90000000000E+00 0. -1.
     999903    1    1    0    0    0 -0.92411648143E-03  0.88008628468E-02 -0.76304327194E-02  0.23163175119E-01  0.20000000000E-01 0.  0.
</event>
<event>
 7    1  0.5676831E-066  0.9118800E+02  0.7957747E-01            NaN
     999900   -1    0    0    0    0  0.00000000000E+00  0.00000000000E+00  0.99999998245E-14  0.93827000000E+00  0.93827000000E+00 0.  1.
        -11    1    1    0    0    0 -0.59460809254E-03  0.24160713007E-02  0.87820901702E-04  0.25416122491E-02  0.51100000000E-03 0. -1.
        -14    1    1    0    0    0  0.50448651072E-02 -0.48555622254E-02  0.53929835554E-03  0.70226769249E-02  0.00000000000E+00 0. -1.
         12    1    1    0    0    0 -0.35886704744E-03  0.20691147846E-02 -0.15153023743E-02  0.25896260029E-02  0.00000000000E+00 0.  1.
         14    1    1    0    0    0  0.10650213739E-02  0.27210914152E-03  0.91771058353E-03  0.14319590172E-02  0.00000000000E+00 0.  1.
     999901    1    1    0    0    0  0.16128303835E-03 -0.59178362146E-02  0.11805202851E-01  0.90009688901E+00  0.90000000000E+00 0.  1.
     999903    1    1    0    0    0 -0.53176943795E-02  0.60161032132E-02 -0.11834730318E-01  0.24587236792E-01  0.20000000000E-01 0.  0.
</event>
<event>
 7    1  0.5676831E-066  0.9118800E+02  0.7957747E-01            NaN
     999900   -1    0    0    0    0  0.00000000000E+00  0.00000000000E+00  0.99999998245E-14  0.93827000000E+00  0.93827000000E+00 0.  1.
        -11    1    1    0    0    0  0.11689166509E-02  0.39775338916E-02 -0.42343107308E-02  0.59479114284E-02  0.51100000000E-03 0. -1.
        -14    1    1    0    0    0  0.17654871539E-04 -0.15630602569E-02 -0.11762983914E-02  0.19563095273E-02  0.00000000000E+00 0. -1.
         12    1    1    0    0    0 -0.91024031595E-03  0.10862630123E-02  0.85649115138E-03  0.16559232642E-02  0.00000000000E+00 0.  1.
         14    1    1    0    0    0  0.34718248887E-02  0.14977301106E-02 -0.77833661603E-03  0.38603848811E-02  0.00000000000E+00 0.  1.
     999901    1    1    0    0    0  0.43598651914E-02 -0.92161070318E-02 -0.60730566134E-02  0.90007823386E+00  0.90000000000E+00 0. -1.
     999903    1    1    0    0    0 -0.81080212866E-02  0.42176402741E-02  0.11405511200E-01  0.24771237038E-01  0.20000000000E-01 0.  0.
</event>
<event>
 7    1  0.5676831E-066  0.9118800E+02  0.7957747E-01            NaN
     999900   -1    0    0    0    0  0.00000000000E+00  0.00000000000E+00  0.99999998245E-14  0.93827000000E+00  0.93827000000E+00 0.  1.
        -11    1    1    0    0    0  0.48118707823E-03  0.15528920757E-02 -0.16437885298E-02  0.23677365845E-02  0.51100000000E-03 0. -1.
        -14    1    1    0    0    0 -0.11610879187E-02  0.20870068175E-03 -0.19422066100E-02  0.22724100962E-02  0.00000000000E+00 0. -1.
         12    1    1    0    0    0  0.30888481906E-03 -0.18164481106E-02 -0.44563334569E-02  0.48222195563E-02  0.00000000000E+00 0.  1.
         14    1    1    0    0    0  0.77828304375E-04  0.47767554982E-02  0.46771826052E-02  0.66857675294E-02  0.00000000000E+00 0.  1.
     999901    1    1    0    0    0 -0.43070554686E-02 -0.66171080800E-02  0.11115292847E-01  0.90010326440E+00  0.90000000000E+00 0.  1.
     999903    1    1    0    0    0  0.46002431856E-02  0.18952079349E-02 -0.77501468555E-02  0.22018601835E-01  0.20000000000E-01 0.  0.
</event>
<event>
 7    1  0.5676831E-066  0.9118800E+02  0.7957747E-01            NaN
     999900   -1    0    0    0    0  0.00000000000E+00  0.00000000000E+00  0.99999998245E-14  0.93827000000E+00  0.93827000000E+00 0.  1.
        -11    1    1    0    0    0 -0.37632524264E-02  0.45882094448E-02 -0.85318893998E-03  0.60168751941E-02  0.51100000000E-03 0. -1.
        -14    1    1    0    0    0  0.44781480675E-03 -0.11739583529E-03 -0.86935029531E-03  0.98493137794E-03  0.00000000000E+00 0. -1.
         12    1    1    0    0    0  0.38735676755E-02 -0.43587472599E-02  0.31315310067E-02  0.66188889293E-02  0.00000000000E+00 0.  1.
         14    1    1    0    0    0  0.19973043129E-02  0.94794581917E-03  0.12552939321E-02  0.25423588752E-02  0.00000000000E+00 0.  1.
     999901    1    1    0    0    0  0.65752314301E-02 -0.27547988305E-02 -0.36168027463E-02  0.90003550144E+00  0.90000000000E+00 0. -1.
     999903    1    1    0    0    0 -0.91306657988E-02  0.16947866617E-02  0.95251704281E-03  0.22071444186E-01  0.20000000000E-01 0.  0.
</event>
<event>
 7    1  0.5676831E-066  0.9118800E+02  0.7957747E-01            NaN
     999900   -1    0    0    0    0  0.00000000000E+00  0.00000000000E+00  0.99999998245E-14  0.93827000000E+00  0.93827000000E+00 0.  1.
        -11    1    1    0    0    0  0.12957568744E-03  0.79818545040E-02 -0.24544650114E-02  0.83673359364E-02  0.51100000000E-03 0. -1.
        -14    1    1    0    0    0 -0.31887276261E-03 -0.98734849341E-03 -0.10810363163E-03  0.10431794100E-02  0.00000000000E+00 0. -1.
         12    1    1    0    0    0 -0.29071949588E-02  0.78695958046E-04 -0.21989082192E-03  0.29165609124E-02  0.00000000000E+00 0.  1.
         14    1    1    0    0    0  0.14906442536E-02  0.24557390691E-03 -0.84037784963E-03  0.17287457201E-02  0.00000000000E+00 0.  1.
     999901    1    1    0    0    0  0.10942577097E-01 -0.15388582093E-01 -0.13199478385E-02  0.90019902839E+00  0.90000000000E+00 0. -1.
     999903    1    1    0    0    0 -0.93367293169E-02  0.80698062177E-02  0.49427851530E-02  0.24015149631E-01  0.20000000000E-01 0.  0.
</event>
<event>
 7    1  0.5676831E-066  0.9118800E+02  0.7957747E-01            NaN
     999900   -1    0    0    0    0  0.00000000000E+00  0.00000000000E+00  0.99999998245E-14  0.93827000000E+00  0.93827000000E+00 0.  1.
        -11    1    1    0    0    0  0.29225437038E-02  0.45232282330E-03  0.67702478511E-03  0.30765794638E-02  0.51100000000E-03 0. -1.
        -14    1    1    0    0    0 -0.17702654877E-02  0.26609992813E-02  0.55796480270E-03  0.32443923612E-02  0.00000000000E+00 0. -1.
         12    1    1    0    0    0  0.21956859855E-02 -0.20374005841E-02 -0.36066079191E-02  0.46882468758E-02  0.00000000000E+00 0.  1.
         14    1    1    0    0    0 -0.28112947960E-02 -0.59486495725E-03  0.38486753223E-02  0.48030765644E-02  0.00000000000E+00 0.  1.
     999901    1    1    0    0    0 -0.78773785111E-02  0.58545804892E-02 -0.42120008113E-02  0.90006337008E+00  0.90000000000E+00 0. -1.
     999903    1    1    0    0    0  0.73407091055E-02 -0.63356370525E-02  0.27349438202E-02  0.22394334657E-01  0.20000000000E-01 0.  0.
</event>
<event>
 7    1  0.5676831E-066  0.9118800E+02  0.7957747E-01            NaN
     999900   -1    0    0    0    0  0.00000000000E+00  0.00000000000E+00  0.99999998245E-14  0.93827000000E+00  0.93827000000E+00 0. -1.
        -11    1    1    0    0    0 -0.42124670092E-03  0.77415693094E-04 -0.20776445403E-03  0.69837600254E-03  0.51100000000E-03 0. -1.
        -14    1    1    0    0    0 -0.54469833597E-03 -0.27516287931E-02 -0.25931992176E-02  0.38200575224E-02  0.00000000000E+00 0. -1.
         12    1    1    0    0    0 -0.30386029849E-02  0.26320343031E-02  0.15855832547E-02  0.43214334346E-02  0.00000000000E+00 0.  1.
         14    1    1    0    0    0  0.23784043977E-02 -0.16041879479E-02  0.36068659566E-02  0.46086558214E-02  0.00000000000E+00 0.  1.
     999901    1    1    0    0    0 -0.13126035832E-02 -0.91881865483E-02 -0.11558641315E-01  0.90012207388E+00  0.90000000000E+00 0.  1.
     999903    1    1    0    0    0  0.29387472072E-02  0.10834553293E-01  0.91671557750E-02  0.24699403337E-01  0.20000000000E-01 0.  0.
</event>
<event>
 7    1  0.5676831E-066  0.9118800E+02  0.7957747E-01            NaN
     999900   -1    0    0    0    0  0.00000000000E+00  0.00000000000E+00  0.99999998245E-14  0.93827000000E+00  0.93827000000E+00 0.  1.
        -11    1    1    0    0    0 -0.11001394332E-02  0.24308084348E-03 -0.37002777697E-03  0.12912926178E-02  0.51100000000E-03 0. -1.
        -14    1    1    0    0    0  0.31063298825E-02 -0.91681985402E-03  0.46111551408E-02  0.56349441627E-02  0.00000000000E+00 0. -1.
         12    1    1    0    0    0 -0.50264657523E-02  0.27139470086E-02  0.30463339963E-02  0.64738718818E-02  0.00000000000E+00 0.  1.
         14    1    1    0    0    0 -0.36014979256E-03 -0.63617358014E-04 -0.19895694640E-03  0.41633989461E-03  0.00000000000E+00 0.  1.
     999901    1    1    0    0    0  0.15184737594E-01 -0.51112608592E-02 -0.13185119070E-01  0.90023916189E+00  0.90000000000E+00 0. -1.
     999903    1    1    0    0    0 -0.11804312499E-01  0.31346702191E-02  0.60966146565E-02  0.24214389549E-01  0.20000000000E-01 0.  0.
</event>
<event>
 7    1  0.5676831E-066  0.9118800E+02  0.7957747E-01            NaN
     999900   -1    0    0    0    0  0.00000000000E+00  0.00000000000E+00  0.99999998245E-14  0.93827000000E+00  0.93827000000E+00 0.  1.
        -11    1    1    0    0    0  0.99922686809E-03  0.55469951345E-03 -0.90400084063E-03  0.15441775818E-02  0.51100000000E-03 0. -1.
        -14    1    1    0    0    0 -0.29316406810E-02 -0.75194407301E-03 -0.72266733606E-02  0.78348417235E-02  0.00000000000E+00 0. -1.
         12    1    1    0    0    0  0.15103334996E-02  0.39990952288E-03  0.22719797025E-02  0.27573405076E-02  0.00000000000E+00 0.  1.
         14    1    1    0    0    0 -0.14626653221E-02 -0.31806544017E-03 -0.39005912761E-03  0.15468359938E-02  0.00000000000E+00 0.  1.
     999901    1    1    0    0    0  0.14878567844E-01 -0.49012742083E-02  0.77310974319E-02  0.90016951967E+00  0.90000000000E+00 0.  1.
     999903    1    1    0    0    0 -0.12993822209E-01  0.50166746851E-02 -0.14823438056E-02  0.24417284526E-01  0.20000000000E-01 0.  0.
</event>
<event>
 7    1  0.5676831E-066  0.9118800E+02  0.7957747E-01            NaN
     999900   -1    0    0    0    0  0.00000000000E+00  0.00000000000E+00  0.99999998245E-14  0.93827000000E+00  0.93827000000E+00 0. -1.
        -11    1    1    0    0    0  0.58089798314E-02 -0.11426459446E-02  0.14481667545E-02  0.61162238665E-02  0.51100000000E-03 0. -1.
        -14    1    1    0    0    0  0.37547167334E-02  0.14355770314E-02 -0.97151513442E-03  0.41355315037E-02  0.00000000000E+00 0. -1.
         12    1    1    0    0    0  0.14572361003E-04 -0.17062873343E-02 -0.20052727054E-02  0.26330110984E-02  0.00000000000E+00 0.  1.
         14    1    1    0    0    0 -0.17574577906E-02 -0.37187465806E-03  0.35721434720E-02  0.39983943817E-02  0.00000000000E+00 0.  1.
     999901    1    1    0    0    0 -0.10478240668E-01  0.62141404008E-02 -0.71419074690E-02  0.90011077980E+00  0.90000000000E+00 0.  1.
     999903    1    1    0    0    0  0.26574295329E-02 -0.44289094953E-02  0.50983850824E-02  0.21276059351E-01  0.20000000000E-01 0.  0.
</event>
<event>
 7    1  0.5676831E-066  0.9118800E+02  0.7957747E-01            NaN
     999900   -1    0    0    0    0  0.00000000000E+00  0.00000000000E+00  0.99999998245E-14  0.93827000000E+00  0.93827000000E+00 0.  1.
        -11    1    1    0    0    0  0.33618610186E-02 -0.11500537346E-02 -0.20214306939E-02  0.41197131152E-02  0.51100000000E-03 0. -1.
        -14    1    1    0    0    0  0.23659645200E-03 -0.21539621859E-02 -0.92410953145E-03  0.23557396727E-02  0.00000000000E+00 0. -1.
         12    1    1    0    0    0  0.31214053576E-02 -0.31703386853E-02  0.56958794824E-03  0.44853817248E-02  0.00000000000E+00 0.  1.
         14    1    1    0    0    0  0.73813404917E-03  0.11263703005E-02 -0.21238476755E-02  0.25148122946E-02  0.00000000000E+00 0.  1.
     999901    1    1    0    0    0 -0.83655493611E-02  0.17943399268E-01  0.10925406319E-01  0.90028401768E+00  0.90000000000E+00 0.  1.
     999903    1    1    0    0    0  0.90755248374E-03 -0.12595414963E-01 -0.64256063663E-02  0.24510335509E-01  0.20000000000E-01 0.  0.
</event>
<event>
 7    1  0.5676831E-066  0.9118800E+02  0.7957747E-01            NaN
     999900   -1    0    0    0    0  0.00000000000E+00  0.00000000000E+00  0.99999998245E-14  0.93827000000E+00  0.93827000000E+00 0. -1.
        -11    1    1    0    0    0 -0.28233104378E-03 -0.20868379499E-02  0.45545079262E-02  0.50437354111E-02  0.51100000000E-03 0. -1.
        -14    1    1    0    0    0  0.35466270566E-02  0.16901130973E-02 -0.56170548233E-02  0.68546590468E-02  0.00000000000E+00 0. -1.
         12    1    1    0    0    0  0.13757090861E-02 -0.14365355587E-02  0.69854081233E-03  0.21081198182E-02  0.00000000000E+00 0.  1.
         14    1    1    0    0    0  0.17464458426E-04 -0.86864380112E-04 -0.15789584098E-02  0.15814424073E-02  0.00000000000E+00 0.  1.
     999901    1    1    0    0    0 -0.15655902579E-02  0.11898723682E-01  0.31552489309E-02  0.90008554388E+00  0.90000000000E+00 0.  1.
     999903    1    1    0    0    0 -0.30918792995E-02 -0.99785988910E-02 -0.12122844364E-02  0.22596499441E-01  0.20000000000E-01 0.  0.
</event>
<event>
 7    1  0.5676831E-066  0.9118800E+02  0.7957747E-01            NaN
     999900   -1    0    0    0    0  0.00000000000E+00  0.00000000000E+00  0.99999998245E-14  0.93827000000E+00  0.93827000000E+00 0.  1.
        -11    1    1    0    0    0  0.24801017336E-02  0.27637422270E-02 -0.87439137733E-03  0.38490072729E-02  0.51100000000E-03 0. -1.
        -14    1    1    0    0    0 -0.99441730253E-03  0.12738800238E-02  0.81511269157E-03  0.18099847476E-02  0.00000000000E+00 0. -1.
         12    1    1    0    0    0  0.19370351158E-02 -0.36905240001E-02 -0.81590468661E-02  0.91619931346E-02  0.00000000000E+00 0.  1.
         14    1    1    0    0    0 -0.51064778780E-03  0.63316950307E-03 -0.24843969917E-03  0.85052164401E-03  0.00000000000E+00 0.  1.
     999901    1    1    0    0    0 -0.28937272134E-02 -0.95046358280E-02  0.25176099031E-02  0.90005835929E+00  0.90000000000E+00 0.  1.
     999903    1    1    0    0    0 -0.18344545577E-04  0.85243680742E-02  0.59491553479E-02  0.22540133916E-01  0.20000000000E-01 0.  0.
</event>
<event>
 7    1  0.5676831E-066  0.9118800E+02  0.7957747E-01            NaN
     999900   -1    0    0    0    0  0.00000000000E+00  0.00000000000E+00  0.99999998245E-14  0.93827000000E+00  0.93827000000E+00 0.  1.
        -11    1    1    0    0    0  0.92543183894E-03 -0.12006725083E-03  0.36808026321E-02  0.38314839488E-02  0.51100000000E-03 0. -1.
        -14    1    1    0    0    0 -0.63058552925E-02  0.20546160303E-02 -0.12191241515E-02  0.67432574990E-02  0.00000000000E+00 0. -1.
         12    1    1    0    0    0  0.87090886522E-03 -0.15266154933E-02 -0.76459987348E-03  0.19166768331E-02  0.00000000000E+00 0.  1.
         14    1    1    0    0    0 -0.96605015185E-03  0.10417665714E-02  0.99777483436E-04  0.14242492870E-02  0.00000000000E+00 0.  1.
     999901    1    1    0    0    0  0.17291204237E-01  0.49245796710E-02 -0.37467260609E-02  0.90018735560E+00  0.90000000000E+00 0.  1.
     999903    1    1    0    0    0 -0.11815639497E-01 -0.63742795286E-02  0.19498699702E-02  0.24166976830E-01  0.20000000000E-01 0.  0.
</event>
<event>
 7    1  0.5676831E-066  0.9118800E+02  0.7957747E-01            NaN
     999900   -1    0    0    0    0  0.00000000000E+00  0.00000000000E+00  0.99999998245E-14  0.93827000000E+00  0.93827000000E+00 0. -1.
        -11    1    1    0    0    0 -0.23168684696E-03 -0.42949998377E-02  0.10491762841E-02  0.44567470509E-02  0.51100000000E-03 0. -1.
        -14    1    1    0    0    0  0.65422662906E-03  0.16218823270E-02  0.22202089900E-02  0.28262771846E-02  0.00000000000E+00 0. -1.
         12    1    1    0    0    0  0.58442258929E-03 -0.46734853773E-02 -0.22773372710E-02  0.52315657676E-02  0.00000000000E+00 0.  1.
         14    1    1    0    0    0  0.10602068014E-04  0.32860319889E-02 -0.26944105736E-02  0.42494666695E-02  0.00000000000E+00 0.  1.
     999901    1    1    0    0    0 -0.18515748427E-02  0.10541658269E-01 -0.24126911818E-02  0.90006687305E+00  0.90000000000E+00 0.  1.
     999903    1    1    0    0    0  0.83401040328E-03 -0.64810873703E-02  0.41150537522E-02  0.21439070275E-01  0.20000000000E-01 0.  0.
</event>
<event>
 7    1  0.5676831E-066  0.9118800E+02  0.7957747E-01            NaN
     999900   -1    0    0    0    0  0.00000000000E+00  0.00000000000E+00  0.99999998245E-14  0.93827000000E+00  0.93827000000E+00 0.  1.
        -11    1    1    0    0    0 -0.17520813279E-03 -0.93046428441E-03  0.15837196089E-02  0.19146149675E-02  0.51100000000E-03 0. -1.
        -14    1    1    0    0    0 -0.44114410702E-02 -0.22667789649E-02  0.10263919312E-02  0.50648375678E-02  0.00000000000E+00 0. -1.
         12    1    1    0    0    0 -0.16641147401E-02  0.32340536606E-02  0.27361113708E-02  0.45513389658E-02  0.00000000000E+00 0.  1.
         14    1    1    0    0    0  0.33617703850E-02 -0.17307089581E-02 -0.17041763952E-02  0.41474173656E-02  0.00000000000E+00 0.  1.
     999901    1    1    0    0    0 -0.66532679777E-02  0.57532087902E-02 -0.27930998004E-02  0.90004731364E+00  0.90000000000E+00 0. -1.
     999903    1    1    0    0    0  0.95422615358E-02 -0.40593102434E-02 -0.84894671533E-03  0.22544477492E-01  0.20000000000E-01 0.  0.
</event>
<event>
 7    1  0.5676831E-066  0.9118800E+02  0.7957747E-01            NaN
     999900   -1    0    0    0    0  0.00000000000E+00  0.00000000000E+00  0.99999998245E-14  0.93827000000E+00  0.93827000000E+00 0. -1.
        -11    1    1    0    0    0  0.23812838528E-02  0.47740686420E-03 -0.33883566448E-03  0.25048674035E-02  0.51100000000E-03 0. -1.
        -14    1    1    0    0    0  0.37131843743E-03  0.18184549456E-02  0.32635538542E-02  0.37543893685E-02  0.00000000000E+00 0. -1.
         12    1    1    0    0    0 -0.53867832868E-03 -0.26299190949E-02  0.66592122268E-03  0.27658813898E-02  0.00000000000E+00 0.  1.
         14    1    1    0    0    0  0.82907817914E-03  0.37181239963E-02  0.29703748214E-02  0.48306255556E-02  0.00000000000E+00 0.  1.
     999901    1    1    0    0    0  0.22179772538E-02 -0.15679060227E-01 -0.33798302997E-02  0.90014564133E+00  0.90000000000E+00 0.  1.
     999903    1    1    0    0    0 -0.52609793945E-02  0.12294993516E-01 -0.31811839341E-02  0.24268594953E-01  0.20000000000E-01 0.  0.
</event>
<event>
 7    1  0.5676831E-066  0.9118800E+02  0.7957747E-01            NaN
     999900   -1    0    0    0    0  0.00000000000E+00  0.00000000000E+00  0.99999998245E-14  0.93827000000E+00  0.93827000000E+00 0. -1.
        -11    1    1    0    0    0  0.26355130827E-02 -0.31618474084E-02 -0.17160873392E-02  0.44887954953E-02  0.51100000000E-03 0. -1.
        -14    1    1    0    0    0  0.15492888210E-02  0.11243637793E-02  0.18499822680E-02  0.26621277488E-02  0.00000000000E+00 0. -1.
         12    1    1    0    0    0  0.35977411222E-02  0.21793474336E-02  0.10227210843E-04  0.42063524596E-02  0.00000000000E+00 0.  1.
         14    1    1    0    0    0 -0.60560830520E-03  0.13326527852E-03 -0.48966897711E-03  0.79012452242E-03  0.00000000000E+00 0.  1.
     999901    1    1    0    0    0 -0.13890149089E-01 -0.14320953267E-01 -0.49304461676E-02  0.90023460011E+00  0.90000000000E+00 0.  1.
     999903    1    1    0    0    0  0.67132143680E-02  0.14045824184E-01  0.52759930050E-02  0.25887999659E-01  0.20000000000E-01 0.  0.
</event>
<event>
 7    1  0.5676831E-066  0.9118800E+02  0.7957747E-01            NaN
     999900   -1    0    0    0    0  0.00000000000E+00  0.00000000000E+00  0.99999998245E-14  0.93827000000E+00  0.93827000000E+00 0.  1.
        -11    1    1    0    0    0  0.80594969704E-03  0.53185908110E-04 -0.21778832624E-02  0.23783776318E-02  0.51100000000E-03 0. -1.
        -14    1    1    0    0    0 -0.15035747279E-02 -0.60303088090E-02 -0.10785683602E-02  0.63078261708E-02  0.00000000000E+00 0. -1.
         12    1    1    0    0    0  0.69964411044E-03 -0.68055326541E-03  0.17185308718E-02  0.19763610464E-02  0.00000000000E+00 0.  1.
         14    1    1    0    0    0 -0.59240853113E-03 -0.17453416245E-02 -0.52112719482E-02  0.55276143654E-02  0.00000000000E+00 0.  1.
     999901    1    1    0    0    0 -0.12372631529E-03  0.44368258306E-02 -0.16607431321E-02  0.90001247702E+00  0.90000000000E+00 0.  1.
     999903    1    1    0    0    0  0.71411576681E-03  0.39661919602E-02  0.84099358312E-02  0.22067343761E-01  0.20000000000E-01 0.  0.
</event>
<event>
 7    1  0.5676831E-066  0.9118800E+02  0.7957747E-01            NaN
     999900   -1    0    0    0    0  0.00000000000E+00  0.00000000000E+00  0.99999998245E-14  0.93827000000E+00  0.93827000000E+00 0.  1.
        -11    1    1    0    0    0 -0.16195203560E-02 -0.77146403814E-03  0.35100433389E-02  0.39748620337E-02  0.51100000000E-03 0. -1.
        -14    1    1    0    0    0  0.12391246356E-02  0.41925345356E-02 -0.24512974018E-02  0.50121487056E-02  0.00000000000E+00 0. -1.
         12    1    1    0    0    0  0.14662682166E-03  0.96027574629E-03 -0.43796456556E-02  0.44860812524E-02  0.00000000000E+00 0.  1.
         14    1    1    0    0    0 -0.27887266174E-02 -0.72303225278E-06  0.17314830601E-02  0.32825341212E-02  0.00000000000E+00 0.  1.
     999901    1    1    0    0    0 -0.68835617471E-03 -0.38865077879E-02  0.84293822397E-02  0.90004812830E+00  0.90000000000E+00 0.  1.
     999903    1    1    0    0    0  0.37108516909E-02 -0.49411542353E-03 -0.68399655813E-02  0.21466245584E-01  0.20000000000E-01 0.  0.
</event>
<event>
 7    1  0.5676831E-066  0.9118800E+02  0.7957747E-01            NaN
     999900   -1    0    0    0    0  0.00000000000E+00  0.00000000000E+00  0.99999998245E-14  0.93827000000E+00  0.93827000000E+00 0. -1.
        -11    1    1    0    0    0  0.93697481838E-03  0.28209688977E-02 -0.54911430892E-02  0.62649469876E-02  0.51100000000E-03 0. -1.
        -14    1    1    0    0    0  0.21542791115E-03  0.92214703867E-04  0.69618737226E-03  0.73456762371E-03  0.00000000000E+00 0. -1.
         12    1    1    0    0    0  0.16098246616E-02 -0.50393518610E-03  0.11170619530E-03  0.16905515037E-02  0.00000000000E+00 0.  1.
         14    1    1    0    0    0 -0.18492607322E-02 -0.43902735292E-02  0.28650600065E-02  0.55590319083E-02  0.00000000000E+00 0.  1.
     999901    1    1    0    0    0  0.10738233772E-01  0.79148458295E-02  0.28603321727E-02  0.90010340292E+00  0.90000000000E+00 0. -1.
     999903    1    1    0    0    0 -0.11651200431E-01 -0.59338207158E-02 -0.10421426576E-02  0.23917499056E-01  0.20000000000E-01 0.  0.
</event>
<event>
 7    1  0.5676831E-066  0.9118800E+02  0.7957747E-01            NaN
     999900   -1    0    0    0    0  0.00000000000E+00  0.00000000000E+00  0.99999998245E-14  0.93827000000E+00  0.93827000000E+00 0.  1.
        -11    1    1    0    0    0  0.18931351319E-02  0.19415017675E-02 -0.11637204274E-02  0.29947881351E-02  0.51100000000E-03 0. -1.
        -14    1    1    0    0    0 -0.17990087289E-02 -0.22297696766E-02  0.33464717703E-02  0.44053579340E-02  0.00000000000E+00 0. -1.
         12    1    1    0    0    0 -0.28044156506E-02 -0.22010643206E-02 -0.10407452583E-02  0.37138365577E-02  0.00000000000E+00 0.  1.
         14    1    1    0    0    0  0.87423322523E-03 -0.96301801382E-03 -0.27913136018E-02  0.30794673323E-02  0.00000000000E+00 0.  1.
     999901    1    1    0    0    0  0.28567776805E-02 -0.52685221347E-03  0.14187559121E-01  0.90011650667E+00  0.90000000000E+00 0.  1.
     999903    1    1    0    0    0 -0.10207216582E-02  0.39792024570E-02 -0.12538251604E-01  0.23960043368E-01  0.20000000000E-01 0.  0.
</event>
<event>
 7    1  0.5676831E-066  0.9118800E+02  0.7957747E-01            NaN
     999900   -1    0    0    0    0  0.00000000000E+00  0.00000000000E+00  0.99999998245E-14  0.93827000000E+00  0.93827000000E+00 0. -1.
        -11    1    1    0    0    0 -0.87099534263E-03 -0.31376811848E-02  0.18583267780E-02  0.37839365108E-02  0.51100000000E-03 0. -1.
        -14    1    1    0    0    0  0.10352188263E-02  0.37925638364E-02 -0.19041301226E-02  0.43681723861E-02  0.00000000000E+00 0. -1.
         12    1    1    0    0    0  0.53337749070E-02 -0.27264414262E-02  0.37401310147E-03  0.60018766572E-02  0.00000000000E+00 0.  1.
         14    1    1    0    0    0  0.30521833240E-04  0.40368839650E-03  0.16114237535E-02  0.16615000503E-02  0.00000000000E+00 0.  1.
     999901    1    1    0    0    0 -0.14459624692E-01  0.39572023871E-02 -0.55245380413E-02  0.90014180034E+00  0.90000000000E+00 0.  1.
     999903    1    1    0    0    0  0.89311044681E-02 -0.22893320090E-02  0.35849045309E-02  0.22312714056E-01  0.20000000000E-01 0.  0.
</event>
<event>
 7    1  0.5676831E-066  0.9118800E+02  0.7957747E-01            NaN
     999900   -1    0    0    0    0  0.00000000000E+00  0.00000000000E+00  0.99999998245E-14  0.93827000000E+00  0.93827000000E+00 0.  1.
        -11    1    1    0    0    0  0.59042664035E-02 -0.51292380713E-02  0.36053089301E-02  0.86272138282E-02  0.51100000000E-03 0. -1.
        -14    1    1    0    0    0  0.16505299981E-03  0.28776799057E-02 -0.21353493030E-02  0.35871995732E-02  0.00000000000E+00 0. -1.
         12    1    1    0    0    0 -0.88737778166E-03  0.49731189284E-04 -0.13816472420E-02  0.16428212379E-02  0.00000000000E+00 0.  1.
         14    1    1    0    0    0  0.18365406105E-02 -0.20033047527E-03 -0.19266912521E-02  0.26692982026E-02  0.00000000000E+00 0.  1.
     999901    1    1    0    0    0 -0.78893611031E-04 -0.17830912228E-02  0.43995756407E-02  0.90001252319E+00  0.90000000000E+00 0.  1.
     999903    1    1    0    0    0 -0.69395886211E-02  0.41852486744E-02 -0.25611967738E-02  0.21730943965E-01  0.20000000000E-01 0.  0.
</event>
<event>
 7    1  0.5676831E-066  0.9118800E+02  0.7957747E-01            NaN
     999900   -1    0    0    0    0  0.00000000000E+00  0.00000000000E+00  0.99999998245E-14  0.93827000000E+00  0.93827000000E+00 0.  1.
        -11    1    1    0    0    0  0.21785418003E-02 -0.29347038295E-02 -0.36749821438E-02  0.52081806517E-02  0.51100000000E-03 0. -1.
        -14    1    1    0    0    0  0.11937479466E-02  0.88481436171E-03 -0.14714911565E-03  0.14931789835E-02  0.00000000000E+00 0. -1.
         12    1    1    0    0    0 -0.16115736445E-02 -0.32351788630E-02  0.33776752658E-02  0.49469427011E-02  0.00000000000E+00 0.  1.
         14    1    1    0    0    0 -0.32401931217E-02 -0.13248953996E-02 -0.33697112711E-02  0.48589251215E-02  0.00000000000E+00 0.  1.
     999901    1    1    0    0    0  0.29471145882E-02  0.27456042259E-02  0.11105438768E-01  0.90007752699E+00  0.90000000000E+00 0.  1.
     999903    1    1    0    0    0 -0.14676375690E-02  0.38643595045E-02 -0.72912715030E-02  0.21685245550E-01  0.20000000000E-01 0.  0.
</event>
<event>
 7    1  0.5676831E-066  0.9118800E+02  0.7957747E-01            NaN
     999900   -1    0    0    0    0  0.00000000000E+00  0.00000000000E+00  0.99999998245E-14  0.93827000000E+00  0.93827000000E+00 0.  1.
        -11    1    1    0    0    0  0.64220312895E-03  0.56538434454E-03 -0.11994468066E-02  0.15594479657E-02  0.51100000000E-03 0. -1.
        -14    1    1    0    0    0  0.48135933242E-03  0.54841625445E-03 -0.19788882271E-02  0.21091386418E-02  0.00000000000E+00 0. -1.
         12    1    1    0    0    0 -0.39414612271E-03 -0.48863537694E-03  0.17903959073E-02  0.18972699340E-02  0.00000000000E+00 0.  1.
         14    1    1    0    0    0 -0.54576479135E-02 -0.32614797873E-02 -0.44870950829E-02  0.77818502578E-02  0.00000000000E+00 0.  1.
     999901    1    1    0    0    0 -0.49044380850E-03 -0.11128960825E-01  0.55086641862E-02  0.90008579574E+00  0.90000000000E+00 0.  1.
     999903    1    1    0    0    0  0.52186753834E-02  0.13765275390E-01  0.36637002315E-03  0.24836497465E-01  0.20000000000E-01 0.  0.
</event>
<event>
 7    1  0.5676831E-066  0.9118800E+02  0.7957747E-01            NaN
     999900   -1    0    0    0    0  0.00000000000E+00  0.00000000000E+00  0.99999998245E-14  0.93827000000E+00  0.93827000000E+00 0. -1.
        -11    1    1    0    0    0 -0.37012167146E-02  0.17741553470E-02 -0.51105669014E-02  0.65746214657E-02  0.51100000000E-03 0. -1.
        -14    1    1    0    0    0  0.16631635413E-03  0.25046557638E-03  0.55765579915E-03  0.63354094180E-03  0.00000000000E+00 0. -1.
         12    1    1    0    0    0 -0.14790304944E-02  0.26425659329E-02  0.88803232427E-03  0.31558338552E-02  0.00000000000E+00 0.  1.
         14    1    1    0    0    0  0.92130062547E-03  0.35436833580E-02 -0.37776690598E-02  0.52609191316E-02  0.00000000000E+00 0.  1.
     999901    1    1    0    0    0  0.78779707510E-02 -0.14277685309E-01  0.26590329896E-04  0.90014771867E+00  0.90000000000E+00 0. -1.
     999903    1    1    0    0    0 -0.37853405217E-02  0.60668150945E-02  0.74159575078E-02  0.22497365935E-01  0.20000000000E-01 0.  0.
</event>
<event>
 7    1  0.5676831E-066  0.9118800E+02  0.7957747E-01            NaN
     999900   -1    0    0    0    0  0.00000000000E+00  0.00000000000E+00  0.99999998245E-14  0.93827000000E+00  0.93827000000E+00 0.  1.
        -11    1    1    0    0    0  0.88938155895E-02  0.72979122651E-02  0.14315008556E-03  0.11516991452E-01  0.51100000000E-03 0. -1.
        -14    1    1    0    0    0 -0.11000608300E-02  0.10789306210E-02  0.41702685483E-03  0.15962883549E-02  0.00000000000E+00 0. -1.
         12    1    1    0    0    0 -0.16242088886E-03 -0.14798011026E-03  0.28658951278E-02  0.28743057495E-02  0.00000000000E+00 0.  1.
         14    1    1    0    0    0  0.30093487343E-03 -0.91492412272E-04  0.12941190225E-03  0.34011777371E-03  0.00000000000E+00 0.  1.
     999901    1    1    0    0    0 -0.13032479414E-02 -0.91089842133E-02 -0.92506510083E-02  0.90009457647E+00  0.90000000000E+00 0.  1.
     999903    1    1    0    0    0 -0.66290208027E-02  0.97161384977E-03  0.56951670379E-02  0.21847720198E-01  0.20000000000E-01 0.  0.
</event>
<event>
 7    1  0.5676831E-066  0.9118800E+02  0.7957747E-01            NaN
     999900   -1    0    0    0    0  0.00000000000E+00  0.00000000000E+00  0.99999998245E-14  0.93827000000E+00  0.93827000000E+00 0. -1.
        -11    1    1    0    0    0 -0.11082624141E-02 -0.26853054174E-02 -0.55619911535E-03  0.30015977777E-02  0.51100000000E-03 0. -1.
        -14    1    1    0    0    0 -0.70493481990E-02  0.21964233736E-02 -0.13304258250E-02  0.75025074837E-02  0.00000000000E+00 0. -1.
         12    1    1    0    0    0 -0.35943138697E-02 -0.12901024800E-02  0.26718727896E-02  0.46607253520E-02  0.00000000000E+00 0.  1.
         14    1    1    0    0    0  0.44319813331E-03 -0.30884161190E-03 -0.19235302458E-03  0.57341731111E-03  0.00000000000E+00 0.  1.
     999901    1    1    0    0    0  0.90296123285E-02  0.31888379907E-02  0.92481506201E-02  0.90009845621E+00  0.90000000000E+00 0. -1.
     999903    1    1    0    0    0  0.22791140210E-02 -0.11010118551E-02 -0.98410454447E-02  0.22433295863E-01  0.20000000000E-01 0.  0.
</event>
<event>
 7    1  0.5676831E-066  0.9118800E+02  0.7957747E-01            NaN
     999900   -1    0    0    0    0  0.00000000000E+00  0.00000000000E+00  0.99999998245E-14  0.93827000000E+00  0.93827000000E+00 0.  1.
        -11    1    1    0    0    0 -0.15765153339E-02 -0.25646971990E-02 -0.16220075567E-02  0.34576150501E-02  0.51100000000E-03 0. -1.
        -14    1    1    0    0    0 -0.88809210954E-03  0.77684307687E-03  0.61893768748E-03  0.13323950698E-02  0.00000000000E+00 0. -1.
         12    1    1    0    0    0 -0.73142055307E-03 -0.21601599296E-02  0.67024146074E-02  0.70798042711E-02  0.00000000000E+00 0.  1.
         14    1    1    0    0    0 -0.28369500851E-02  0.17586155894E-02 -0.36402683722E-03  0.33576077964E-02  0.00000000000E+00 0.  1.
     999901    1    1    0    0    0  0.12687171137E-02 -0.56610345579E-02 -0.11831232008E-01  0.90009645872E+00  0.90000000000E+00 0. -1.
     999903    1    1    0    0    0  0.47642609679E-02  0.78504330202E-02  0.64959141070E-02  0.22946119089E-01  0.20000000000E-01 0.  0.
</event>
<event>
 7    1  0.5676831E-066  0.9118800E+02  0.7957747E-01            NaN
     999900   -1    0    0    0    0  0.00000000000E+00  0.00000000000E+00  0.99999998245E-14  0.93827000000E+00  0.93827000000E+00 0. -1.
        -11    1    1    0    0    0  0.36514728667E-04  0.16603539262E-02  0.63077812183E-03  0.18485428112E-02  0.51100000000E-03 0. -1.
        -14    1    1    0    0    0  0.74410986162E-03 -0.28533217801E-03 -0.27986744239E-02  0.29099299766E-02  0.00000000000E+00 0. -1.
         12    1    1    0    0    0  0.49148696485E-02  0.32952909545E-02 -0.30771070895E-02  0.66695932542E-02  0.00000000000E+00 0.  1.
         14    1    1    0    0    0  0.24556324408E-02 -0.20583805898E-02 -0.15465660102E-02  0.35579386955E-02  0.00000000000E+00 0.  1.
     999901    1    1    0    0    0 -0.41404760227E-02 -0.34053722191E-02  0.17594949891E-01  0.90018793725E+00  0.90000000000E+00 0. -1.
     999903    1    1    0    0    0 -0.40106506570E-02  0.79344010622E-03 -0.10803380490E-01  0.23096058016E-01  0.20000000000E-01 0.  0.
</event>
<event>
 7    1  0.5676831E-066  0.9118800E+02  0.7957747E-01            NaN
     999900   -1    0    0    0    0  0.00000000000E+00  0.00000000000E+00  0.99999998245E-14  0.93827000000E+00  0.93827000000E+00 0. -1.
        -11    1    1    0    0    0  0.12111103432E-02 -0.50292591625E-03  0.13580358996E-02  0.19557876279E-02  0.51100000000E-03 0. -1.
        -14    1    1    0    0    0 -0.20358299235E-02 -0.23142138850E-02 -0.13797428710E-02  0.33769630992E-02  0.00000000000E+00 0. -1.
         12    1    1    0    0    0  0.51984317096E-03  0.12353786002E-02  0.25291157274E-02  0.28623108795E-02  0.00000000000E+00 0.  1.
         14    1    1    0    0    0 -0.25575681993E-02  0.56492979938E-02 -0.28007180359E-02  0.68043915549E-02  0.00000000000E+00 0.  1.
     999901    1    1    0    0    0  0.24089443775E-02  0.75542747491E-02 -0.18362016573E-02  0.90003680020E+00  0.90000000000E+00 0.  1.
     999903    1    1    0    0    0  0.45350023120E-03 -0.11621811542E-01  0.21295109372E-02  0.23233746637E-01  0.20000000000E-01 0.  0.
</event>
<event>
 7    1  0.5676831E-066  0.9118800E+02  0.7957747E-01            NaN
     999900   -1    0    0    0    0  0.00000000000E+00  0.00000000000E+00  0.99999998245E-14  0.93827000000E+00  0.93827000000E+00 0.  1.
        -11    1    1    0    0    0 -0.36498405350E-02 -0.91206772819E-03  0.54295261769E-03  0.38352473215E-02  0.51100000000E-03 0. -1.
        -14    1    1    0    0    0  0.38579622228E-03 -0.16064981849E-02  0.49511696641E-03  0.17247654778E-02  0.00000000000E+00 0. -1.
         12    1    1    0    0    0 -0.36827659208E-02 -0.86848222010E-02  0.45897680193E-02  0.10490704074E-01  0.00000000000E+00 0.  1.
         14    1    1    0    0    0  0.25263368299E-03 -0.12925298650E-02 -0.92168610757E-03  0.16074708428E-02  0.00000000000E+00 0.  1.
     999901    1    1    0    0    0  0.40205034557E-02  0.15583279550E-01 -0.32883652813E-02  0.90014988552E+00  0.90000000000E+00 0.  1.
     999903    1    1    0    0    0  0.26736730948E-02 -0.30873615707E-02 -0.14177862146E-02  0.20461926767E-01  0.20000000000E-01 0.  0.
</event>
<event>
 7    1  0.5676831E-066  0.9118800E+02  0.7957747E-01            NaN
     999900   -1    0    0    0    0  0.00000000000E+00  0.00000000000E+00  0.99999998245E-14  0.93827000000E+00  0.93827000000E+00 0.  1.
        -11    1    1    0    0    0  0.44824025594E-02 -0.12696373797E-02 -0.40693601492E-05  0.46866885261E-02  0.51100000000E-03 0. -1.
        -14    1    1    0    0    0 -0.12983053269E-02  0.47034278103E-04 -0.24449411962E-02  0.27686723169E-02  0.00000000000E+00 0. -1.
         12    1    1    0    0    0 -0.30090559027E-02  0.17583856049E-02  0.32735567452E-02  0.47814758312E-02  0.00000000000E+00 0.  1.
         14    1    1    0    0    0  0.24808950502E-02 -0.30703746098E-02 -0.35256230302E-03  0.39631225911E-02  0.00000000000E+00 0.  1.
     999901    1    1    0    0    0 -0.24157603461E-02  0.10389534580E-01  0.42296716609E-02  0.90007314617E+00  0.90000000000E+00 0. -1.
     999903    1    1    0    0    0 -0.24017603395E-03 -0.78549424734E-02 -0.47016555466E-02  0.21996894569E-01  0.20000000000E-01 0.  0.
</event>
<event>
 7    1  0.5676831E-066  0.9118800E+02  0.7957747E-01            NaN
     999900   -1    0    0    0    0  0.00000000000E+00  0.00000000000E+00  0.99999998245E-14  0.93827000000E+00  0.93827000000E+00 0. -1.
        -11    1    1    0    0    0  0.14072104679E-03 -0.22412193215E-02  0.18181682432E-03  0.23102044970E-02  0.51100000000E-03 0. -1.
        -14    1    1    0    0    0  0.61828922632E-03 -0.33095495436E-02  0.23905768777E-02  0.41291957519E-02  0.00000000000E+00 0. -1.
         12    1    1    0    0    0 -0.14623164478E-05 -0.89390031536E-03 -0.53154656281E-02  0.53901052639E-02  0.00000000000E+00 0.  1.
         14    1    1    0    0    0 -0.31203642324E-02  0.24854741587E-03  0.32469694249E-02  0.45101285134E-02  0.00000000000E+00 0.  1.
     999901    1    1    0    0    0 -0.30787215870E-02  0.23746794006E-03  0.34088651183E-02  0.90001175286E+00  0.90000000000E+00 0. -1.
     999903    1    1    0    0    0  0.54415378627E-02  0.59586538246E-02 -0.39127626171E-02  0.21918613118E-01  0.20000000000E-01 0.  0.
</event>
<event>
 7    1  0.5676831E-066  0.9118800E+02  0.7957747E-01            NaN
     999900   -1    0    0    0    0  0.00000000000E+00  0.00000000000E+00  0.99999998245E-14  0.93827000000E+00  0.93827000000E+00 0.  1.
        -11    1    1    0    0    0 -0.33755683432E-02 -0.54006996295E-04 -0.96693639640E-03  0.35487272916E-02  0.51100000000E-03 0. -1.
        -14    1    1    0    0    0  0.50553393118E-04  0.16807155049E-02  0.65639176323E-02  0.67758670985E-02  0.00000000000E+00 0. -1.
         12    1    1    0    0    0  0.59518429802E-03 -0.27311529089E-03 -0.24161520427E-02  0.25033231921E-02  0.00000000000E+00 0.  1.
         14    1    1    0    0    0 -0.13416127050E-02 -0.11853581971E-02  0.17368779939E-02  0.24943423726E-02  0.00000000000E+00 0.  1.
     999901    1    1    0    0    0  0.85433642836E-02  0.99119457908E-02 -0.49813298339E-02  0.90010890974E+00  0.90000000000E+00 0. -1.
     999903    1    1    0    0    0 -0.44719209265E-02 -0.10080180811E-01  0.63622646849E-04  0.22838830307E-01  0.20000000000E-01 0.  0.
</event>
<event>
 7    1  0.5676831E-066  0.9118800E+02  0.7957747E-01            NaN
     999900   -1    0    0    0    0  0.00000000000E+00  0.00000000000E+00  0.99999998245E-14  0.93827000000E+00  0.93827000000E+00 0. -1.
        -11    1    1    0    0    0 -0.27205659793E-03 -0.24653515595E-02 -0.15081055107E-02  0.29474525163E-02  0.51100000000E-03 0. -1.
        -14    1    1    0    0    0  0.17213337038E-02  0.26433586234E-02  0.27154221667E-02  0.41621931809E-02  0.00000000000E+00 0. -1.
         12    1    1    0    0    0  0.13571451555E-02  0.14967962689E-02  0.15728876948E-02  0.25605112271E-02  0.00000000000E+00 0.  1.
         14    1    1    0    0    0 -0.16222184036E-02 -0.18322380455E-02  0.76793320327E-02  0.80598281168E-02  0.00000000000E+00 0.  1.
     999901    1    1    0    0    0 -0.24408401661E-02 -0.40066606827E-02 -0.10041891613E-01  0.90006824776E+00  0.90000000000E+00 0.  1.
     999903    1    1    0    0    0  0.12566363083E-02  0.41640953954E-02 -0.41764477058E-03  0.20471767203E-01  0.20000000000E-01 0.  0.
</event>
<event>
 7    1  0.5676831E-066  0.9118800E+02  0.7957747E-01            NaN
     999900   -1    0    0    0    0  0.00000000000E+00  0.00000000000E+00  0.99999998245E-14  0.93827000000E+00  0.93827000000E+00 0.  1.
        -11    1    1    0    0    0 -0.18245362194E-02 -0.12510037522E-02  0.25223332111E-02  0.33937042640E-02  0.51100000000E-03 0. -1.
        -14    1    1    0    0    0  0.91751587903E-04 -0.99045085505E-04  0.26911819784E-02  0.26945665187E-02  0.00000000000E+00 0. -1.
         12    1    1    0    0    0  0.34373256953E-02 -0.14090820185E-02  0.16447722697E-02  0.40627571783E-02  0.00000000000E+00 0.  1.
         14    1    1    0    0    0 -0.15243574749E-02 -0.92943830420E-03  0.69361274226E-03  0.19153641713E-02  0.00000000000E+00 0.  1.
     999901    1    1    0    0    0 -0.13330015245E-01  0.13757328715E-01 -0.70445073405E-02  0.90023140274E+00  0.90000000000E+00 0. -1.
     999903    1    1    0    0    0  0.13149831656E-01 -0.10068759554E-01 -0.50739286088E-03  0.25972205125E-01  0.20000000000E-01 0.  0.
</event>
<event>
 7    1  0.5676831E-066  0.9118800E+02  0.7957747E-01            NaN
     999900   -1    0    0    0    0  0.00000000000E+00  0.00000000000E+00  0.99999998245E-14  0.93827000000E+00  0.93827000000E+00 0.  1.
        -11    1    1    0    0    0 -0.15634842376E-02 -0.11636399823E-02 -0.39498102109E-04  0.20152473967E-02  0.51100000000E-03 0. -1.
        -14    1    1    0    0    0  0.30394379733E-02 -0.26791053652E-02  0.42377933400E-02  0.58629925076E-02  0.00000000000E+00 0. -1.
         12    1    1    0    0    0 -0.35569695908E-02  0.55438123153E-02  0.13604562339E-02  0.67258255123E-02  0.00000000000E+00 0.  1.
         14    1    1    0    0    0  0.12036440863E-03 -0.62468528388E-03 -0.28995348562E-02  0.29685049565E-02  0.00000000000E+00 0.  1.
     999901    1    1    0    0    0  0.12217476929E-02  0.38688046842E-02 -0.42672644586E-02  0.90001926083E+00  0.90000000000E+00 0. -1.
     999903    1    1    0    0    0  0.73890375359E-03 -0.49451863681E-02  0.16080478431E-02  0.20678168798E-01  0.20000000000E-01 0.  0.
</event>
<event>
 7    1  0.5676831E-066  0.9118800E+02  0.7957747E-01            NaN
     999900   -1    0    0    0    0  0.00000000000E+00  0.00000000000E+00  0.99999998245E-14  0.93827000000E+00  0.93827000000E+00 0. -1.
        -11    1    1    0    0    0 -0.13825746402E-02 -0.24298235350E-02  0.20603354476E-02  0.35102219593E-02  0.51100000000E-03 0. -1.
        -14    1    1    0    0    0 -0.11963413889E-03  0.33262746718E-02 -0.20189742106E-03  0.33345431603E-02  0.00000000000E+00 0. -1.
         12    1    1    0    0    0  0.33719228455E-02 -0.15708530296E-02  0.41389991947E-02  0.55649579738E-02  0.00000000000E+00 0.  1.
         14    1    1    0    0    0 -0.39733578799E-02 -0.12751562372E-02 -0.61305658782E-03  0.42177523221E-02  0.00000000000E+00 0.  1.
     999901    1    1    0    0    0  0.35250781032E-02 -0.11827235289E-03  0.24678151366E-02  0.90001029454E+00  0.90000000000E+00 0. -1.
     999903    1    1    0    0    0 -0.14214342897E-02  0.20678304828E-02 -0.78521957700E-02  0.21632230046E-01  0.20000000000E-01 0.  0.
</event>
<event>
 7    1  0.5676831E-066  0.9118800E+02  0.7957747E-01            NaN
     999900   -1    0    0    0    0  0.00000000000E+00  0.00000000000E+00  0.99999998245E-14  0.93827000000E+00  0.93827000000E+00 0. -1.
        -11    1    1    0    0    0  0.54828875889E-03  0.20788006127E-03  0.16766169916E-02  0.18482424677E-02  0.51100000000E-03 0. -1.
        -14    1    1    0    0    0 -0.16315530830E-03  0.74159585082E-03 -0.14540628850E-02  0.16403910919E-02  0.00000000000E+00 0. -1.
         12    1    1    0    0    0 -0.15961239073E-02 -0.33773766304E-02  0.92935553103E-03  0.38494137390E-02  0.00000000000E+00 0.  1.
         14    1    1    0    0    0 -0.33721008026E-03 -0.69046854890E-03  0.32105873895E-02  0.33012617044E-02  0.00000000000E+00 0.  1.
     999901    1    1    0    0    0  0.43415782527E-02  0.19917529477E-01 -0.11875885023E-01  0.90030916575E+00  0.90000000000E+00 0. -1.
     999903    1    1    0    0    0 -0.27933777157E-02 -0.16799160210E-01  0.75133879960E-02  0.27321525250E-01  0.20000000000E-01 0.  0.
</event>
<event>
 7    1  0.5676831E-066  0.9118800E+02  0.7957747E-01            NaN
     999900   -1    0    0    0    0  0.00000000000E+00  0.00000000000E+00  0.99999998245E-14  0.93827000000E+00  0.93827000000E+00 0. -1.
        -11    1    1    0    0    0 -0.94900240388E-03  0.81526262965E-03  0.93904612739E-03  0.16456571172E-02  0.51100000000E-03 0. -1.
        -14    1    1    0    0    0  0.30430174021E-02 -0.16072088858E-02 -0.49838179453E-03  0.34772776313E-02  0.00000000000E+00 0. -1.
         12    1    1    0    0    0  0.18218090572E-02  0.80003617769E-03  0.69031159176E-03  0.21060807725E-02  0.00000000000E+00 0.  1.
         14    1    1    0    0    0 -0.38830322288E-02 -0.36431262275E-03  0.56412698777E-02  0.68581767847E-02  0.00000000000E+00 0.  1.
     999901    1    1    0    0    0 -0.12348427116E-02  0.49851187758E-03  0.67215347538E-02  0.90002608428E+00  0.90000000000E+00 0. -1.
     999903    1    1    0    0    0  0.12020508849E-02 -0.14228917640E-03 -0.13493780556E-01  0.24156723417E-01  0.20000000000E-01 0.  0.
</event>
<event>
 7    1  0.5676831E-066  0.9118800E+02  0.7957747E-01            NaN
     999900   -1    0    0    0    0  0.00000000000E+00  0.00000000000E+00  0.99999998245E-14  0.93827000000E+00  0.93827000000E+00 0. -1.
        -11    1    1    0    0    0 -0.25225032411E-02 -0.15815228705E-02  0.30066138920E-02  0.42620517696E-02  0.51100000000E-03 0. -1.
        -14    1    1    0    0    0  0.35610560595E-02  0.28601384263E-02 -0.25349271452E-02  0.52237312056E-02  0.00000000000E+00 0. -1.
         12    1    1    0    0    0 -0.16152033802E-02  0.19938076186E-02  0.59179726945E-03  0.26333201073E-02  0.00000000000E+00 0.  1.
         14    1    1    0    0    0 -0.13419153002E-02 -0.28936405590E-02  0.36888487836E-02  0.48766276981E-02  0.00000000000E+00 0.  1.
     999901    1    1    0    0    0  0.39050799915E-03  0.64003305736E-02 -0.62999610405E-02  0.90004489123E+00  0.90000000000E+00 0.  1.
     999903    1    1    0    0    0  0.15280578629E-02 -0.67791131890E-02  0.15476282407E-02  0.21229377985E-01  0.20000000000E-01 0.  0.
</event>
<event>
 7    1  0.5676831E-066  0.9118800E+02  0.7957747E-01            NaN
     999900   -1    0    0    0    0  0.00000000000E+00  0.00000000000E+00  0.99999998245E-14  0.93827000000E+00  0.93827000000E+00 0. -1.
        -11    1    1    0    0    0 -0.33756195552E-02  0.14947241637E-02  0.40382327474E-02  0.54952208718E-02  0.51100000000E-03 0. -1.
        -14    1    1    0    0    0 -0.23492527665E-02  0.11366016874E-03 -0.21718560593E-02  0.32013850029E-02  0.00000000000E+00 0. -1.
         12    1    1    0    0    0 -0.13290452904E-02 -0.29301135448E-02 -0.26059901040E-02  0.41404240352E-02  0.00000000000E+00 0.  1.
         14    1    1    0    0    0 -0.28225813516E-03 -0.15544411125E-02  0.10647718658E-02  0.19051760951E-02  0.00000000000E+00 0.  1.
     999901    1    1    0    0    0  0.17313257296E-01  0.60337928212E-02  0.55480467555E-02  0.90020383045E+00  0.90000000000E+00 0. -1.
     999903    1    1    0    0    0 -0.99770815489E-02 -0.31576224964E-02 -0.58732052055E-02  0.23323963545E-01  0.20000000000E-01 0.  0.
</event>
<event>
 7    1  0.5676831E-066  0.9118800E+02  0.7957747E-01            NaN
     999900   -1    0    0    0    0  0.00000000000E+00  0.00000000000E+00  0.99999998245E-14  0.93827000000E+00  0.93827000000E+00 0. -1.
        -11    1    1    0    0    0  0.15791188858E-03  0.10017206983E-02  0.21878655808E-02  0.24650065561E-02  0.51100000000E-03 0. -1.
        -14    1    1    0    0    0  0.94473603249E-03 -0.12656754461E-02 -0.51841639825E-03  0.16622924135E-02  0.00000000000E+00 0. -1.
         12    1    1    0    0    0  0.28685969006E-02 -0.11794436286E-02  0.33833263876E-02  0.45898619691E-02  0.00000000000E+00 0.  1.
         14    1    1    0    0    0  0.40240309835E-02  0.73240534914E-03 -0.11191818538E-02  0.42404965479E-02  0.00000000000E+00 0.  1.
     999901    1    1    0    0    0  0.30915466600E-03  0.13479298010E-01 -0.20627408673E-02  0.90010335071E+00  0.90000000000E+00 0.  1.
     999903    1    1    0    0    0 -0.83044304711E-02 -0.12768304983E-01 -0.18708528489E-02  0.25208991808E-01  0.20000000000E-01 0.  0.
</event>
<event>
 7    1  0.5676831E-066  0.9118800E+02  0.7957747E-01            NaN
     999900   -1    0    0    0    0  0.00000000000E+00  0.00000000000E+00  0.99999998245E-14  0.93827000000E+00  0.93827000000E+00 0. -1.
        -11    1    1    0    0    0 -0.28283628258E-02  0.71292298865E-03 -0.44596148288E-02  0.53532402228E-02  0.51100000000E-03 0. -1.
        -14    1    1    0    0    0 -0.15695472213E-02 -0.94816526239E-03  0.11308519653E-02  0.21543727654E-02  0.00000000000E+00 0. -1.
         12    1    1    0    0    0 -0.16975624827E-02 -0.13788855062E-03  0.93750204926E-03  0.19441300696E-02  0.00000000000E+00 0.  1.
         14    1    1    0    0    0  0.12910439678E-02 -0.49652279633E-03 -0.14095673723E-02  0.19748948304E-02  0.00000000000E+00 0.  1.
     999901    1    1    0    0    0 -0.12452661540E-01  0.43265910285E-03  0.78170023243E-02  0.90012019281E+00  0.90000000000E+00 0. -1.
     999903    1    1    0    0    0  0.17257090102E-01  0.43699451784E-03 -0.40161741378E-02  0.26723169305E-01  0.20000000000E-01 0.  0.
</event>
<event>
 7    1  0.5676831E-066  0.9118800E+02  0.7957747E-01            NaN
     999900   -1    0    0    0    0  0.00000000000E+00  0.00000000000E+00  0.99999998245E-14  0.93827000000E+00  0.93827000000E+00 0. -1.
        -11    1    1    0    0    0  0.12499099805E-02 -0.89091464166E-03 -0.12020786725E-02  0.20154696706E-02  0.51100000000E-03 0. -1.
        -14    1    1    0    0    0 -0.36984504306E-02  0.46552420479E-03  0.14105209332E-02  0.39855762037E-02  0.00000000000E+00 0. -1.
         12    1    1    0    0    0 -0.18850778494E-02  0.21823588777E-02  0.14061663247E-02  0.32083504332E-02  0.00000000000E+00 0.  1.
         14    1    1    0    0    0  0.32674782652E-02  0.42236066393E-02 -0.17842382699E-02  0.56301663795E-02  0.00000000000E+00 0.  1.
     999901    1    1    0    0    0 -0.45087443743E-02 -0.93497509528E-02  0.10221685611E-01  0.90011789754E+00  0.90000000000E+00 0. -1.
     999903    1    1    0    0    0  0.55748844085E-02  0.33691758727E-02 -0.10052055926E-01  0.23312539771E-01  0.20000000000E-01 0.  0.
</event>
<event>
 7    1  0.5676831E-066  0.9118800E+02  0.7957747E-01            NaN
     999900   -1    0    0    0    0  0.00000000000E+00  0.00000000000E+00  0.99999998245E-14  0.93827000000E+00  0.93827000000E+00 0.  1.
        -11    1    1    0    0    0  0.72004207681E-03  0.30515850272E-02 -0.81911267029E-03  0.32806551689E-02  0.51100000000E-03 0. -1.
        -14    1    1    0    0    0  0.16627831744E-02 -0.28431716039E-02 -0.41464631045E-02  0.52954347254E-02  0.00000000000E+00 0. -1.
         12    1    1    0    0    0 -0.62626788380E-03  0.11158147979E-02 -0.28695910594E-02  0.31419431844E-02  0.00000000000E+00 0.  1.
         14    1    1    0    0    0 -0.41331553742E-02 -0.28584673896E-02  0.94428177967E-03  0.51132648322E-02  0.00000000000E+00 0.  1.
     999901    1    1    0    0    0  0.97429694106E-02  0.13857125717E-03  0.65182533118E-02  0.90007634803E+00  0.90000000000E+00 0.  1.
     999903    1    1    0    0    0 -0.73663714038E-02  0.13956679112E-02  0.37263174267E-03  0.21362354060E-01  0.20000000000E-01 0.  0.
</event>
<event>
 7    1  0.5676831E-066  0.9118800E+02  0.7957747E-01            NaN
     999900   -1    0    0    0    0  0.00000000000E+00  0.00000000000E+00  0.99999998245E-14  0.93827000000E+00  0.93827000000E+00 0.  1.
        -11    1    1    0    0    0 -0.63679696822E-03 -0.40482944446E-03 -0.12823573906E-04  0.91141796223E-03  0.51100000000E-03 0. -1.
        -14    1    1    0    0    0  0.38176029647E-02  0.27312564919E-02 -0.64154528001E-03  0.47376613183E-02  0.00000000000E+00 0. -1.
         12    1    1    0    0    0  0.10958262530E-02  0.84396050351E-03  0.21938123032E-02  0.25934372809E-02  0.00000000000E+00 0.  1.
         14    1    1    0    0    0  0.85439171633E-03  0.20366563115E-02 -0.23513058240E-02  0.32259251718E-02  0.00000000000E+00 0.  1.
     999901    1    1    0    0    0 -0.19904523888E-01 -0.64143747402E-02 -0.83314671187E-02  0.90028148244E+00  0.90000000000E+00 0. -1.
     999903    1    1    0    0    0  0.14773499922E-01  0.12073308777E-02  0.91433294934E-02  0.26520075830E-01  0.20000000000E-01 0.  0.
</event>
<event>
 7    1  0.5676831E-066  0.9118800E+02  0.7957747E-01            NaN
     999900   -1    0    0    0    0  0.00000000000E+00  0.00000000000E+00  0.99999998245E-14  0.93827000000E+00  0.93827000000E+00 0. -1.
        -11    1    1    0    0    0 -0.40696364224E-03  0.23861593436E-02 -0.40606610056E-02  0.47549410745E-02  0.51100000000E-03 0. -1.
        -14    1    1    0    0    0  0.26312824277E-02  0.14290575277E-02 -0.63854498020E-03  0.30616322973E-02  0.00000000000E+00 0. -1.
         12    1    1    0    0    0  0.15126734758E-02  0.21529612337E-02 -0.16297689987E-02  0.30950880613E-02  0.00000000000E+00 0.  1.
         14    1    1    0    0    0 -0.90637987147E-03 -0.46050157705E-02 -0.13819923598E-02  0.48926064220E-02  0.00000000000E+00 0.  1.
     999901    1    1    0    0    0 -0.39863970824E-02  0.84160252608E-02  0.55152675431E-02  0.90006507488E+00  0.90000000000E+00 0. -1.
     999903    1    1    0    0    0  0.11557846926E-02 -0.97791875953E-02  0.21956998012E-02  0.22400657265E-01  0.20000000000E-01 0.  0.
</event>
<event>
 7    1  0.5676831E-066  0.9118800E+02  0.7957747E-01            NaN
     999900   -1    0    0    0    0  0.00000000000E+00  0.00000000000E+00  0.99999998245E-14  0.93827000000E+00  0.93827000000E+00 0. -1.
        -11    1    1    0    0    0  0.54855897585E-03  0.12745781591E-03  0.50083968844E-03  0.91056237477E-03  0.51100000000E-03 0. -1.
        -14    1    1    0    0    0 -0.55549356955E-03  0.65434883407E-02  0.12128663167E-02  0.66780878605E-02  0.00000000000E+00 0. -1.
         12    1    1    0    0    0 -0.16954816532E-02  0.18331359628E-02 -0.21645014307E-02  0.33045592653E-02  0.00000000000E+00 0.  1.
         14    1    1    0    0    0 -0.95136403229E-03  0.12551578091E-02  0.14804824956E-02  0.21615603317E-02  0.00000000000E+00 0.  1.
     999901    1    1    0    0    0 -0.30695198998E-02  0.44331440895E-02 -0.12795038017E-03  0.90001616157E+00  0.90000000000E+00 0. -1.
     999903    1    1    0    0    0  0.57233001790E-02 -0.14192384018E-01 -0.90173668994E-03  0.25199068596E-01  0.20000000000E-01 0.  0.
</event>
<event>
 7    1  0.5676831E-066  0.9118800E+02  0.7957747E-01            NaN
     999900   -1    0    0    0    0  0.00000000000E+00  0.00000000000E+00  0.99999998245E-14  0.93827000000E+00  0.93827000000E+00 0. -1.
        -11    1    1    0    0    0 -0.33705934475E-02  0.18138572169E-02  0.11251270771E-02  0.40221897185E-02  0.51100000000E-03 0. -1.
        -14    1    1    0    0    0  0.41102178557E-02 -0.24785459113E-02 -0.20252290657E-02  0.52094753502E-02  0.00000000000E+00 0. -1.
         12    1    1    0    0    0  0.18280787550E-02  0.13814433824E-02  0.17397477558E-02  0.28769741061E-02  0.00000000000E+00 0.  1.
         14    1    1    0    0    0 -0.10949645881E-02 -0.78098892140E-03 -0.39387683497E-03  0.14014385844E-02  0.00000000000E+00 0.  1.
     999901    1    1    0    0    0 -0.92863440217E-02  0.11973879530E-01 -0.23713106024E-02  0.90013067556E+00  0.90000000000E+00 0.  1.
     999903    1    1    0    0    0  0.78136054466E-02 -0.11909645297E-01  0.19255416701E-02  0.24629246677E-01  0.20000000000E-01 0.  0.
</event>
<event>
 7    1  0.5676831E-066  0.9118800E+02  0.7957747E-01            NaN
     999900   -1    0    0    0    0  0.00000000000E+00  0.00000000000E+00  0.99999998245E-14  0.93827000000E+00  0.93827000000E+00 0.  1.
        -11    1    1    0    0    0 -0.28743597926E-02 -0.97847116791E-04 -0.22291525522E-02  0.36744741633E-02  0.51100000000E-03 0. -1.
        -14    1    1    0    0    0  0.99834199544E-03  0.36933509893E-03 -0.27274519582E-02  0.29278130643E-02  0.00000000000E+00 0. -1.
         12    1    1    0    0    0 -0.64206042399E-02 -0.13492608073E-02 -0.18848816349E-02  0.68262319261E-02  0.00000000000E+00 0.  1.
         14    1    1    0    0    0  0.98579630988E-03  0.12743220658E-02 -0.30411870908E-02  0.34415853924E-02  0.00000000000E+00 0.  1.
     999901    1    1    0    0    0  0.34195691569E-02  0.50286293440E-02  0.13130192433E-01  0.90011631611E+00  0.90000000000E+00 0.  1.
     999903    1    1    0    0    0  0.38912565703E-02 -0.52251785847E-02 -0.32475191974E-02  0.21283579348E-01  0.20000000000E-01 0.  0.
</event>
<event>
 7    1  0.5676831E-066  0.9118800E+02  0.7957747E-01            NaN
     999900   -1    0    0    0    0  0.00000000000E+00  0.00000000000E+00  0.99999998245E-14  0.93827000000E+00  0.93827000000E+00 0. -1.
        -11    1    1    0    0    0 -0.20963077074E-02  0.10736938458E-02  0.46351761905E-03  0.24542400171E-02  0.51100000000E-03 0. -1.
        -14    1    1    0    0    0 -0.38577866278E-03 -0.10142756233E-02 -0.19949938461E-02  0.22710307490E-02  0.00000000000E+00 0. -1.
         12    1    1    0    0    0  0.11670118005E-02  0.53576468036E-02  0.12065282257E-02  0.56144462036E-02  0.00000000000E+00 0.  1.
         14    1    1    0    0    0 -0.44684792145E-02 -0.77336341382E-03  0.30870442335E-02  0.54859128283E-02  0.00000000000E+00 0.  1.
     999901    1    1    0    0    0  0.11607067678E-01 -0.50438382546E-02 -0.10690271387E-01  0.90015245721E+00  0.90000000000E+00 0.  1.
     999903    1    1    0    0    0 -0.58235138942E-02  0.40013664243E-03  0.79281751553E-02  0.22291912989E-01  0.20000000000E-01 0.  0.
</event>
<event>
 7    1  0.5676831E-066  0.9118800E+02  0.7957747E-01            NaN
     999900   -1    0    0    0    0  0.00000000000E+00  0.00000000000E+00  0.99999998245E-14  0.93827000000E+00  0.93827000000E+00 0.  1.
        -11    1    1    0    0    0  0.40488958743E-03  0.14635075196E-02  0.36014512074E-02  0.39417460137E-02  0.51100000000E-03 0. -1.
        -14    1    1    0    0    0  0.79157643910E-03 -0.91692210097E-03 -0.82645938665E-03  0.14664155332E-02  0.00000000000E+00 0. -1.
         12    1    1    0    0    0 -0.45416997049E-02  0.39892671333E-02  0.19663701358E-02  0.63567208513E-02  0.00000000000E+00 0.  1.
         14    1    1    0    0    0 -0.36866461651E-02  0.78404508269E-04 -0.15765670293E-02  0.40103704082E-02  0.00000000000E+00 0.  1.
     999901    1    1    0    0    0  0.10329833284E-01 -0.10147566098E-01  0.45025980400E-02  0.90012774201E+00  0.90000000000E+00 0.  1.
     999903    1    1    0    0    0 -0.32979534403E-02  0.55333090380E-02 -0.76673929672E-02  0.22367005180E-01  0.20000000000E-01 0.  0.
</event>
<event>
 7    1  0.5676831E-066  0.9118800E+02  0.7957747E-01            NaN
     999900   -1    0    0    0    0  0.00000000000E+00  0.00000000000E+00  0.99999998245E-14  0.93827000000E+00  0.93827000000E+00 0.  1.
        -11    1    1    0    0    0 -0.17528960545E-02  0.11916867160E-03 -0.41155265291E-02  0.45039455327E-02  0.51100000000E-03 0. -1.
        -14    1    1    0    0    0 -0.13176946730E-02  0.23606968760E-02  0.29222382510E-02  0.39810407417E-02  0.00000000000E+00 0. -1.
         12    1    1    0    0    0 -0.60809845574E-03 -0.21568180740E-02 -0.10113550061E-02  0.24585538198E-02  0.00000000000E+00 0.  1.
         14    1    1    0    0    0 -0.21041483265E-02  0.99020283697E-03  0.58375453066E-02  0.62836993121E-02  0.00000000000E+00 0.  1.
     999901    1    1    0    0    0  0.44073675986E-02  0.46638049596E-02 -0.15934973274E-02  0.90002428589E+00  0.90000000000E+00 0.  1.
     999903    1    1    0    0    0  0.13754699111E-02 -0.59770552702E-02 -0.20394046950E-02  0.21018474699E-01  0.20000000000E-01 0.  0.
</event>
<event>
 7    1  0.5676831E-066  0.9118800E+02  0.7957747E-01            NaN
     999900   -1    0    0    0    0  0.00000000000E+00  0.00000000000E+00  0.99999998245E-14  0.93827000000E+00  0.93827000000E+00 0. -1.
        -11    1    1    0    0    0  0.42386123368E-03 -0.26188673456E-02 -0.32776530276E-02  0.42476175544E-02  0.51100000000E-03 0. -1.
        -14    1    1    0    0    0 -0.27348367474E-02 -0.11969997879E-03 -0.32772068638E-03  0.27570021705E-02  0.00000000000E+00 0. -1.
         12    1    1    0    0    0  0.28624501656E-02 -0.25092467824E-02 -0.13365956436E-02  0.40344055671E-02  0.00000000000E+00 0.  1.
         14    1    1    0    0    0  0.38599720542E-03  0.36122448986E-02 -0.63521430467E-03  0.36879268245E-02  0.00000000000E+00 0.  1.
     999901    1    1    0    0    0 -0.88967504963E-02  0.66982023542E-02 -0.22916450797E-02  0.90007181365E+00  0.90000000000E+00 0. -1.
     999903    1    1    0    0    0  0.79592786390E-02 -0.50626331461E-02  0.78688287420E-02  0.23471234237E-01  0.20000000000E-01 0.  0.
</event>
<event>
 7    1  0.5676831E-066  0.9118800E+02  0.7957747E-01            NaN
     999900   -1    0    0    0    0  0.00000000000E+00  0.00000000000E+00  0.99999998245E-14  0.93827000000E+00  0.93827000000E+00 0.  1.
        -11    1    1    0    0    0  0.44660325202E-03  0.27453450404E-02  0.62998694620E-03  0.28973053702E-02  0.51100000000E-03 0. -1.
        -14    1    1    0    0    0 -0.29340911054E-03  0.65506104147E-03  0.20751061242E-02  0.21957366192E-02  0.00000000000E+00 0. -1.
         12    1    1    0    0    0  0.49767466471E-03  0.34313588061E-02  0.12522180661E-03  0.34695221327E-02  0.00000000000E+00 0.  1.
         14    1    1    0    0    0  0.10432539847E-02  0.57811165292E-03  0.38243374481E-03  0.12525364382E-02  0.00000000000E+00 0.  1.
     999901    1    1    0    0    0 -0.33164513289E-02 -0.19285590903E-01  0.12567284454E-01  0.90030043291E+00  0.90000000000E+00 0. -1.
     999903    1    1    0    0    0  0.16223285381E-02  0.11875714362E-01 -0.15780033076E-01  0.28154466526E-01  0.20000000000E-01 0.  0.
</event>
<event>
 7    1  0.5676831E-066  0.9118800E+02  0.7957747E-01            NaN
     999900   -1    0    0    0    0  0.00000000000E+00  0.00000000000E+00  0.99999998245E-14  0.93827000000E+00  0.93827000000E+00 0.  1.
        -11    1    1    0    0    0 -0.44073798973E-04  0.98505405697E-03  0.67265904224E-03  0.12984087115E-02  0.51100000000E-03 0. -1.
        -14    1    1    0    0    0  0.13924602870E-02 -0.66499697842E-02  0.74317198598E-05  0.67941959798E-02  0.00000000000E+00 0. -1.
         12    1    1    0    0    0 -0.27620024476E-03 -0.12962655489E-02  0.12484130279E-02  0.18207487571E-02  0.00000000000E+00 0.  1.
         14    1    1    0    0    0  0.39632171321E-02 -0.39025631095E-04 -0.33592604820E-02  0.51955022877E-02  0.00000000000E+00 0.  1.
     999901    1    1    0    0    0 -0.72511550535E-02 -0.34482356628E-02 -0.30920400827E-02  0.90004112700E+00  0.90000000000E+00 0.  1.
     999903    1    1    0    0    0  0.22157516782E-02  0.10448442570E-01  0.45227967747E-02  0.23120017264E-01  0.20000000000E-01 0.  0.
</event>
<event>
 7    1  0.1996863E-065  0.9118800E+02  0.7957747E-01            NaN
     999900   -1    0    0    0    0  0.00000000000E+00  0.00000000000E+00  0.99999998245E-14  0.93827000000E+00  0.93827000000E+00 0. -1.
        -11    1    1    0    0    0  0.40713485401E-03 -0.86186928161E-03  0.29978788485E-02  0.31870011042E-02  0.51100000000E-03 0. -1.
        -14    1    1    0    0    0 -0.24146518544E-02 -0.47592519929E-02 -0.11995530422E-02  0.54699132179E-02  0.00000000000E+00 0. -1.
         12    1    1    0    0    0 -0.16099390401E-02 -0.54424264513E-02 -0.17588456752E-02  0.59418387305E-02  0.00000000000E+00 0.  1.
         14    1    1    0    0    0  0.18051672258E-02  0.14820480578E-02  0.17535947774E-02  0.29206488666E-02  0.00000000000E+00 0.  1.
     999901    1    1    0    0    0 -0.15184087429E-02  0.58331725448E-02 -0.38579749254E-02  0.90002845257E+00  0.90000000000E+00 0.  1.
     999903    1    1    0    0    0  0.33306975576E-02  0.37483271232E-02  0.20649000168E-02  0.20722145510E-01  0.20000000000E-01 0.  0.
</event>
<event>
 7    1  0.5676831E-066  0.9118800E+02  0.7957747E-01            NaN
     999900   -1    0    0    0    0  0.00000000000E+00  0.00000000000E+00  0.99999998245E-14  0.93827000000E+00  0.93827000000E+00 0. -1.
        -11    1    1    0    0    0 -0.11078914166E-02 -0.40004848735E-02  0.44236416042E-03  0.42057234413E-02  0.51100000000E-03 0. -1.
        -14    1    1    0    0    0  0.17087443622E-03 -0.86642119076E-03 -0.14378143750E-02  0.16873630106E-02  0.00000000000E+00 0. -1.
         12    1    1    0    0    0 -0.54365586431E-02  0.60790830009E-03 -0.11621118365E-02  0.55925152035E-02  0.00000000000E+00 0.  1.
         14    1    1    0    0    0  0.10094101772E-02  0.19185049950E-02  0.13432462587E-02  0.25502707372E-02  0.00000000000E+00 0.  1.
     999901    1    1    0    0    0  0.13828309729E-01 -0.27956380527E-02  0.98329711245E-02  0.90016427671E+00  0.90000000000E+00 0. -1.
     999903    1    1    0    0    0 -0.84641442832E-02  0.51361308219E-02 -0.90186553320E-02  0.24069850898E-01  0.20000000000E-01 0.  0.
</event>
<event>
 7    1  0.5676831E-066  0.9118800E+02  0.7957747E-01            NaN
     999900   -1    0    0    0    0  0.00000000000E+00  0.00000000000E+00  0.99999998245E-14  0.93827000000E+00  0.93827000000E+00 0. -1.
        -11    1    1    0    0    0 -0.46029927562E-02  0.14939161894E-02 -0.16514382837E-02  0.51388420193E-02  0.51100000000E-03 0. -1.
        -14    1    1    0    0    0  0.12574620503E-02  0.73297887453E-03 -0.14380205638E-02  0.20460625553E-02  0.00000000000E+00 0. -1.
         12    1    1    0    0    0 -0.22961404771E-02  0.47414412863E-02  0.21290519844E-02  0.56821113078E-02  0.00000000000E+00 0.  1.
         14    1    1    0    0    0 -0.22257538596E-02 -0.66010124194E-03 -0.14882939745E-02  0.27576680090E-02  0.00000000000E+00 0.  1.
     999901    1    1    0    0    0  0.13756248143E-01 -0.15320680345E-02 -0.46207386899E-02  0.90011828824E+00  0.90000000000E+00 0. -1.
     999903    1    1    0    0    0 -0.58888231008E-02 -0.47761670738E-02  0.70694395275E-02  0.22527027870E-01  0.20000000000E-01 0.  0.
</event>
<event>
 7    1  0.5676831E-066  0.9118800E+02  0.7957747E-01            NaN
     999900   -1    0    0    0    0  0.00000000000E+00  0.00000000000E+00  0.99999998245E-14  0.93827000000E+00  0.93827000000E+00 0.  1.
        -11    1    1    0    0    0  0.28783117595E-03  0.53235119735E-03 -0.11703787855E-02  0.14132063135E-02  0.51100000000E-03 0. -1.
        -14    1    1    0    0    0  0.14102764911E-02 -0.14751008781E-02  0.24496779343E-03  0.20554346504E-02  0.00000000000E+00 0. -1.
         12    1    1    0    0    0 -0.32864401709E-02 -0.48648794470E-02  0.93791955890E-03  0.59453708152E-02  0.00000000000E+00 0.  1.
         14    1    1    0    0    0  0.82500014167E-03  0.12651926238E-02 -0.20913649019E-02  0.25797567254E-02  0.00000000000E+00 0.  1.
     999901    1    1    0    0    0  0.62729366975E-02  0.11869673391E-01 -0.11956574939E-01  0.90017953685E+00  0.90000000000E+00 0. -1.
     999903    1    1    0    0    0 -0.55096043353E-02 -0.73272368866E-02  0.14035431274E-01  0.26096694644E-01  0.20000000000E-01 0.  0.
</event>
<event>
 7    1  0.5676831E-066  0.9118800E+02  0.7957747E-01            NaN
     999900   -1    0    0    0    0  0.00000000000E+00  0.00000000000E+00  0.99999998245E-14  0.93827000000E+00  0.93827000000E+00 0. -1.
        -11    1    1    0    0    0 -0.18666106960E-02 -0.59003850849E-03 -0.13925493034E-02  0.24561546153E-02  0.51100000000E-03 0. -1.
        -14    1    1    0    0    0  0.24653385062E-02 -0.17335839988E-02  0.40716395134E-03  0.30412152035E-02  0.00000000000E+00 0. -1.
         12    1    1    0    0    0 -0.89408166464E-03 -0.39443677727E-03 -0.27442138424E-02  0.29130176805E-02  0.00000000000E+00 0.  1.
         14    1    1    0    0    0  0.21672953418E-02  0.45908140760E-02  0.50860977001E-02  0.71861765073E-02  0.00000000000E+00 0.  1.
     999901    1    1    0    0    0  0.33292741115E-02  0.56314560024E-02  0.40498506265E-02  0.90003288754E+00  0.90000000000E+00 0. -1.
     999903    1    1    0    0    0 -0.52012155988E-02 -0.75042107939E-02 -0.54063491322E-02  0.22640548454E-01  0.20000000000E-01 0.  0.
</event>
<event>
 7    1  0.5676831E-066  0.9118800E+02  0.7957747E-01            NaN
     999900   -1    0    0    0    0  0.00000000000E+00  0.00000000000E+00  0.99999998245E-14  0.93827000000E+00  0.93827000000E+00 0. -1.
        -11    1    1    0    0    0 -0.92052160073E-03  0.39542489567E-02 -0.19548829904E-02  0.45349898936E-02  0.51100000000E-03 0. -1.
        -14    1    1    0    0    0 -0.30505823834E-02 -0.55987652695E-02  0.16463010945E-02  0.65850233648E-02  0.00000000000E+00 0. -1.
         12    1    1    0    0    0  0.34722065886E-02  0.92515554729E-03  0.75903883154E-03  0.36726381973E-02  0.00000000000E+00 0.  1.
         14    1    1    0    0    0 -0.13561806475E-02 -0.10928705001E-02 -0.14292716947E-02  0.22530888700E-02  0.00000000000E+00 0.  1.
     999901    1    1    0    0    0  0.77520149224E-02 -0.11264348422E-02 -0.13810114891E-02  0.90003514919E+00  0.90000000000E+00 0.  1.
     999903    1    1    0    0    0 -0.58969368794E-02  0.29386661077E-02  0.23598262482E-02  0.21189110481E-01  0.20000000000E-01 0.  0.
</event>
<event>
 7    1  0.5676831E-066  0.9118800E+02  0.7957747E-01            NaN
     999900   -1    0    0    0    0  0.00000000000E+00  0.00000000000E+00  0.99999998245E-14  0.93827000000E+00  0.93827000000E+00 0. -1.
        -11    1    1    0    0    0  0.16007485038E-02  0.14395542770E-02  0.34680606047E-04  0.22129247690E-02  0.51100000000E-03 0. -1.
        -14    1    1    0    0    0  0.23481461004E-02 -0.23450279633E-02  0.30185635662E-03  0.33322760267E-02  0.00000000000E+00 0. -1.
         12    1    1    0    0    0  0.28165538095E-02 -0.26367744001E-02  0.15179733172E-02  0.41460580785E-02  0.00000000000E+00 0.  1.
         14    1    1    0    0    0  0.23014161359E-02  0.28252618807E-02 -0.34392462212E-02  0.50106921174E-02  0.00000000000E+00 0.  1.
     999901    1    1    0    0    0 -0.31993874647E-02 -0.90967003447E-02  0.61979474647E-02  0.90007299737E+00  0.90000000000E+00 0. -1.
     999903    1    1    0    0    0 -0.58674770849E-02  0.98136865505E-02 -0.46132115233E-02  0.23495051641E-01  0.20000000000E-01 0.  0.
</event>
<event>
 7    1  0.5676831E-066  0.9118800E+02  0.7957747E-01            NaN
     999900   -1    0    0    0    0  0.00000000000E+00  0.00000000000E+00  0.99999998245E-14  0.93827000000E+00  0.93827000000E+00 0. -1.
        -11    1    1    0    0    0 -0.50482930572E-03 -0.12230163529E-02  0.14320155532E-03  0.14255698204E-02  0.51100000000E-03 0. -1.
        -14    1    1    0    0    0  0.77232852109E-03  0.21691932822E-02  0.13465796323E-04  0.23026228888E-02  0.00000000000E+00 0. -1.
         12    1    1    0    0    0  0.32973278461E-02 -0.34981722955E-03  0.35424351059E-02  0.48521736879E-02  0.00000000000E+00 0.  1.
         14    1    1    0    0    0 -0.46409152564E-02 -0.23104540225E-02  0.19454197811E-02  0.55372330935E-02  0.00000000000E+00 0.  1.
     999901    1    1    0    0    0  0.10270188128E-01 -0.75491792718E-02 -0.82571710043E-02  0.90012812852E+00  0.90000000000E+00 0. -1.
     999903    1    1    0    0    0 -0.91940999329E-02  0.92632735945E-02  0.26126487656E-02  0.24024271994E-01  0.20000000000E-01 0.  0.
</event>
<event>
 7    1  0.5676831E-066  0.9118800E+02  0.7957747E-01            NaN
     999900   -1    0    0    0    0  0.00000000000E+00  0.00000000000E+00  0.99999998245E-14  0.93827000000E+00  0.93827000000E+00 0. -1.
        -11    1    1    0    0    0 -0.11720833284E-02 -0.33393757061E-02  0.31555610667E-02  0.47690560996E-02  0.51100000000E-03 0. -1.
        -14    1    1    0    0    0 -0.38708435417E-03  0.34187280047E-04 -0.70602840286E-03  0.80590270691E-03  0.00000000000E+00 0. -1.
         12    1    1    0    0    0 -0.15556490008E-02  0.16233593547E-02 -0.28952963817E-02  0.36657987596E-02  0.00000000000E+00 0.  1.
         14    1    1    0    0    0  0.22736617779E-02  0.25424394621E-02  0.10495394950E-02  0.35686229067E-02  0.00000000000E+00 0.  1.
     999901    1    1    0    0    0  0.63445710454E-02 -0.15014274213E-01  0.25510198308E-02  0.90015120381E+00  0.90000000000E+00 0.  1.
     999903    1    1    0    0    0 -0.55034161400E-02  0.14153663822E-01 -0.31547956080E-02  0.25309415721E-01  0.20000000000E-01 0.  0.
</event>
<event>
 7    1  0.5676831E-066  0.9118800E+02  0.7957747E-01            NaN
     999900   -1    0    0    0    0  0.00000000000E+00  0.00000000000E+00  0.99999998245E-14  0.93827000000E+00  0.93827000000E+00 0. -1.
        -11    1    1    0    0    0 -0.10362776565E-02 -0.24996335597E-02 -0.12586271931E-02  0.30277553939E-02  0.51100000000E-03 0. -1.
        -14    1    1    0    0    0  0.12123259547E-02 -0.28074587192E-02 -0.17746479159E-02  0.35356659777E-02  0.00000000000E+00 0. -1.
         12    1    1    0    0    0 -0.20000025519E-02 -0.37634404829E-03 -0.13017740119E-02  0.24158353893E-02  0.00000000000E+00 0.  1.
         14    1    1    0    0    0 -0.64023589987E-03  0.36855730388E-02 -0.33998775383E-02  0.50549498422E-02  0.00000000000E+00 0.  1.
     999901    1    1    0    0    0 -0.60972927744E-02 -0.81487422387E-02  0.10100886761E-01  0.90011421880E+00  0.90000000000E+00 0. -1.
     999903    1    1    0    0    0  0.85614829279E-02  0.10146605527E-01 -0.23659601018E-02  0.24121574593E-01  0.20000000000E-01 0.  0.
</event>
<event>
 7    1  0.5676831E-066  0.9118800E+02  0.7957747E-01            NaN
     999900   -1    0    0    0    0  0.00000000000E+00  0.00000000000E+00  0.99999998245E-14  0.93827000000E+00  0.93827000000E+00 0.  1.
        -11    1    1    0    0    0 -0.36788803221E-03 -0.27266950630E-03  0.12534040623E-04  0.68627135018E-03  0.51100000000E-03 0. -1.
        -14    1    1    0    0    0  0.41073255075E-03 -0.34392983979E-02  0.17682479051E-02  0.38889812743E-02  0.00000000000E+00 0. -1.
         12    1    1    0    0    0  0.52227707761E-02  0.55366028938E-02 -0.44335160941E-02  0.88083693803E-02  0.00000000000E+00 0.  1.
         14    1    1    0    0    0 -0.12432011509E-03  0.22757232859E-02 -0.19681602211E-02  0.30113164266E-02  0.00000000000E+00 0.  1.
     999901    1    1    0    0    0 -0.35608151070E-02  0.30407916506E-02  0.93505992535E-02  0.90006075324E+00  0.90000000000E+00 0.  1.
     999903    1    1    0    0    0 -0.15804800726E-02 -0.71411499261E-02 -0.47297048840E-02  0.21814308328E-01  0.20000000000E-01 0.  0.
</event>
<event>
 7    1  0.5676831E-066  0.9118800E+02  0.7957747E-01            NaN
     999900   -1    0    0    0    0  0.00000000000E+00  0.00000000000E+00  0.99999998245E-14  0.93827000000E+00  0.93827000000E+00 0. -1.
        -11    1    1    0    0    0  0.25529813676E-02  0.19107692336E-02 -0.14000694304E-02  0.35199528885E-02  0.51100000000E-03 0. -1.
        -14    1    1    0    0    0 -0.16354697095E-02  0.32822027248E-02  0.10235467744E-02  0.38072646214E-02  0.00000000000E+00 0. -1.
         12    1    1    0    0    0 -0.55257870686E-02 -0.10041285442E-02 -0.35744458651E-02  0.66572712205E-02  0.00000000000E+00 0.  1.
         14    1    1    0    0    0  0.34203282421E-02  0.11520001790E-02  0.89600471142E-03  0.37186790852E-02  0.00000000000E+00 0.  1.
     999901    1    1    0    0    0  0.53154805573E-02 -0.32124547725E-02  0.35622694026E-02  0.90002847953E+00  0.90000000000E+00 0. -1.
     999903    1    1    0    0    0 -0.41275333889E-02 -0.21283888207E-02 -0.50730559291E-03  0.20538352656E-01  0.20000000000E-01 0.  0.
</event>
<event>
 7    1  0.5676831E-066  0.9118800E+02  0.7957747E-01            NaN
     999900   -1    0    0    0    0  0.00000000000E+00  0.00000000000E+00  0.99999998245E-14  0.93827000000E+00  0.93827000000E+00 0. -1.
        -11    1    1    0    0    0 -0.48594522145E-03  0.11275466590E-02 -0.39767692829E-02  0.41932468513E-02  0.51100000000E-03 0. -1.
        -14    1    1    0    0    0  0.20846518998E-02 -0.32410210176E-02  0.18577775704E-02  0.42780051754E-02  0.00000000000E+00 0. -1.
         12    1    1    0    0    0  0.10375749647E-02  0.16861622709E-02 -0.52296154479E-03  0.20477289344E-02  0.00000000000E+00 0.  1.
         14    1    1    0    0    0 -0.10265093428E-02 -0.91137336883E-03  0.10825339259E-02  0.17481998023E-02  0.00000000000E+00 0.  1.
     999901    1    1    0    0    0  0.39728728813E-02 -0.13412986984E-01 -0.30725891622E-02  0.90011395542E+00  0.90000000000E+00 0.  1.
     999903    1    1    0    0    0 -0.55826451816E-02  0.14751672440E-01  0.46320084936E-02  0.25888863816E-01  0.20000000000E-01 0.  0.
</event>
<event>
 7    1  0.5676831E-066  0.9118800E+02  0.7957747E-01            NaN
     999900   -1    0    0    0    0  0.00000000000E+00  0.00000000000E+00  0.99999998245E-14  0.93827000000E+00  0.93827000000E+00 0.  1.
        -11    1    1    0    0    0 -0.11068515557E-02 -0.45352269251E-02 -0.13808697700E-02  0.48950307405E-02  0.51100000000E-03 0. -1.
        -14    1    1    0    0    0  0.73046359430E-04 -0.18442643853E-02  0.13038723472E-02  0.22598075120E-02  0.00000000000E+00 0. -1.
         12    1    1    0    0    0  0.32940087002E-02 -0.52993181210E-03  0.23855433298E-02  0.41014799793E-02  0.00000000000E+00 0.  1.
         14    1    1    0    0    0 -0.38391100126E-02  0.55732168269E-04 -0.13078181990E-02  0.40561385831E-02  0.00000000000E+00 0.  1.
     999901    1    1    0    0    0 -0.26028275954E-02 -0.33499648793E-02  0.12241581896E-02  0.90001083079E+00  0.90000000000E+00 0.  1.
     999903    1    1    0    0    0  0.41817341042E-02  0.10203655833E-01 -0.22248858976E-02  0.22946712395E-01  0.20000000000E-01 0.  0.
</event>
<event>
 7    1  0.5676831E-066  0.9118800E+02  0.7957747E-01            NaN
     999900   -1    0    0    0    0  0.00000000000E+00  0.00000000000E+00  0.99999998245E-14  0.93827000000E+00  0.93827000000E+00 0. -1.
        -11    1    1    0    0    0  0.32037758876E-02  0.14271082600E-02  0.20328504803E-02  0.40858805659E-02  0.51100000000E-03 0. -1.
        -14    1    1    0    0    0 -0.15699053464E-02 -0.88387130851E-04 -0.25723100976E-02  0.30148290698E-02  0.00000000000E+00 0. -1.
         12    1    1    0    0    0  0.65152959444E-03  0.10637235550E-02  0.15714394092E-02  0.20063450428E-02  0.00000000000E+00 0.  1.
         14    1    1    0    0    0 -0.21053446714E-02  0.16603876158E-02 -0.29238420136E-02  0.39671419612E-02  0.00000000000E+00 0.  1.
     999901    1    1    0    0    0  0.35422624564E-02 -0.12147819770E-01  0.13962711336E-01  0.90019724197E+00  0.90000000000E+00 0. -1.
     999903    1    1    0    0    0 -0.37223179207E-02  0.80849874696E-02 -0.12070849114E-01  0.24998561387E-01  0.20000000000E-01 0.  0.
</event>
<event>
 7    1  0.5676831E-066  0.9118800E+02  0.7957747E-01            NaN
     999900   -1    0    0    0    0  0.00000000000E+00  0.00000000000E+00  0.99999998245E-14  0.93827000000E+00  0.93827000000E+00 0. -1.
        -11    1    1    0    0    0  0.15731203607E-02  0.12508294971E-02  0.45917979071E-03  0.21239701458E-02  0.51100000000E-03 0. -1.
        -14    1    1    0    0    0  0.37753575432E-02 -0.19178226330E-02 -0.30599790780E-02  0.52244464002E-02  0.00000000000E+00 0. -1.
         12    1    1    0    0    0 -0.50028913570E-02 -0.53062073992E-03 -0.56345268685E-02  0.75536993144E-02  0.00000000000E+00 0.  1.
         14    1    1    0    0    0 -0.53756009424E-03 -0.14931159992E-02  0.12823315920E-02  0.20402795284E-02  0.00000000000E+00 0.  1.
     999901    1    1    0    0    0  0.19685500702E-02 -0.17576009225E-02  0.13212571856E-02  0.90000483892E+00  0.90000000000E+00 0.  1.
     999903    1    1    0    0    0 -0.17765765228E-02  0.44483307976E-02  0.56317373782E-02  0.21322765696E-01  0.20000000000E-01 0.  0.
</event>
<event>
 7    1  0.5676831E-066  0.9118800E+02  0.7957747E-01            NaN
     999900   -1    0    0    0    0  0.00000000000E+00  0.00000000000E+00  0.99999998245E-14  0.93827000000E+00  0.93827000000E+00 0.  1.
        -11    1    1    0    0    0 -0.28906162596E-02  0.18651662332E-02 -0.22845928710E-02  0.41611288160E-02  0.51100000000E-03 0. -1.
        -14    1    1    0    0    0  0.12241052508E-02 -0.21374674661E-03 -0.84236912399E-03  0.15012351841E-02  0.00000000000E+00 0. -1.
         12    1    1    0    0    0  0.11954073456E-03  0.33570833205E-03  0.26570355624E-02  0.26808260017E-02  0.00000000000E+00 0.  1.
         14    1    1    0    0    0 -0.95527128402E-03  0.19417222308E-02 -0.32167637336E-02  0.38769056431E-02  0.00000000000E+00 0.  1.
     999901    1    1    0    0    0 -0.47432438261E-02  0.96844285594E-02  0.95832009379E-02  0.90011561716E+00  0.90000000000E+00 0.  1.
     999903    1    1    0    0    0  0.72454853843E-02 -0.13613278609E-01 -0.58965107718E-02  0.25934287193E-01  0.20000000000E-01 0.  0.
</event>
<event>
 7    1  0.5676831E-066  0.9118800E+02  0.7957747E-01            NaN
     999900   -1    0    0    0    0  0.00000000000E+00  0.00000000000E+00  0.99999998245E-14  0.93827000000E+00  0.93827000000E+00 0. -1.
        -11    1    1    0    0    0 -0.47808066641E-03  0.20264002066E-03  0.18674363494E-02  0.20045108183E-02  0.51100000000E-03 0. -1.
        -14    1    1    0    0    0 -0.99552149363E-03  0.75705883027E-04 -0.36167994869E-02  0.37520704888E-02  0.00000000000E+00 0. -1.
         12    1    1    0    0    0  0.89054323779E-03 -0.14532793389E-02 -0.25532096178E-04  0.17046231206E-02  0.00000000000E+00 0.  1.
         14    1    1    0    0    0  0.12336734931E-03  0.56663005358E-03 -0.12566877520E-02  0.13840351247E-02  0.00000000000E+00 0.  1.
     999901    1    1    0    0    0  0.46474718592E-02  0.90306594849E-02 -0.16087789930E-01  0.90020107131E+00  0.90000000000E+00 0.  1.
     999903    1    1    0    0    0 -0.41877802863E-02 -0.84223561032E-02  0.19119372915E-01  0.29223689136E-01  0.20000000000E-01 0.  0.
</event>
<event>
 7    1  0.5676831E-066  0.9118800E+02  0.7957747E-01            NaN
     999900   -1    0    0    0    0  0.00000000000E+00  0.00000000000E+00  0.99999998245E-14  0.93827000000E+00  0.93827000000E+00 0. -1.
        -11    1    1    0    0    0 -0.10983583420E-02  0.74395691991E-03 -0.49729193246E-03  0.15060820735E-02  0.51100000000E-03 0. -1.
        -14    1    1    0    0    0 -0.83464547959E-03  0.10321727315E-02 -0.26276530389E-03  0.13531663716E-02  0.00000000000E+00 0. -1.
         12    1    1    0    0    0  0.86499452301E-03 -0.37596266540E-02 -0.36555022944E-02  0.53146688633E-02  0.00000000000E+00 0.  1.
         14    1    1    0    0    0 -0.19262672643E-02  0.75076724331E-03 -0.40001933271E-03  0.21057474905E-02  0.00000000000E+00 0.  1.
     999901    1    1    0    0    0  0.20663529645E-01  0.47052013182E-02  0.11249852893E-01  0.90031976518E+00  0.90000000000E+00 0. -1.
     999903    1    1    0    0    0 -0.17669253082E-01 -0.34724715590E-02 -0.64342740292E-02  0.27670570025E-01  0.20000000000E-01 0.  0.
</event>
<event>
 7    1  0.5676831E-066  0.9118800E+02  0.7957747E-01            NaN
     999900   -1    0    0    0    0  0.00000000000E+00  0.00000000000E+00  0.99999998245E-14  0.93827000000E+00  0.93827000000E+00 0. -1.
        -11    1    1    0    0    0  0.13587015613E-02 -0.58227305220E-03  0.11506321700E-02  0.19416969976E-02  0.51100000000E-03 0. -1.
        -14    1    1    0    0    0 -0.33308335957E-02 -0.38446068265E-02 -0.91409333310E-04  0.50876133657E-02  0.00000000000E+00 0. -1.
         12    1    1    0    0    0  0.37218975955E-03 -0.19959018670E-02  0.34385107429E-03  0.20592190367E-02  0.00000000000E+00 0.  1.
         14    1    1    0    0    0  0.58382670754E-04  0.62431147854E-03 -0.21033130092E-02  0.21947890498E-02  0.00000000000E+00 0.  1.
     999901    1    1    0    0    0  0.16725250341E-02 -0.49823350024E-02 -0.13640107310E-01  0.90011869969E+00  0.90000000000E+00 0.  1.
     999903    1    1    0    0    0 -0.13096542998E-03  0.10780805270E-01  0.14340346408E-01  0.26867981861E-01  0.20000000000E-01 0.  0.
</event>
<event>
 7    1  0.5676831E-066  0.9118800E+02  0.7957747E-01            NaN
     999900   -1    0    0    0    0  0.00000000000E+00  0.00000000000E+00  0.99999998245E-14  0.93827000000E+00  0.93827000000E+00 0. -1.
        -11    1    1    0    0    0 -0.16765530123E-02 -0.84512531821E-03  0.10918805646E-02  0.22312308203E-02  0.51100000000E-03 0. -1.
        -14    1    1    0    0    0  0.11477045127E-02 -0.42531992627E-03  0.57260458472E-04  0.12253168767E-02  0.00000000000E+00 0. -1.
         12    1    1    0    0    0  0.38848092324E-03 -0.68875525782E-02 -0.11046462660E-02  0.69863825631E-02  0.00000000000E+00 0.  1.
         14    1    1    0    0    0  0.46941696047E-02 -0.71053184350E-03 -0.23009678591E-02  0.52758446590E-02  0.00000000000E+00 0.  1.
     999901    1    1    0    0    0 -0.31370710482E-02  0.66907976542E-03  0.83647201040E-02  0.90004458635E+00  0.90000000000E+00 0. -1.
     999903    1    1    0    0    0 -0.14167309802E-02  0.81994499008E-02 -0.61082470021E-02  0.22506638727E-01  0.20000000000E-01 0.  0.
</event>
<event>
 7    1  0.5676831E-066  0.9118800E+02  0.7957747E-01            NaN
     999900   -1    0    0    0    0  0.00000000000E+00  0.00000000000E+00  0.99999998245E-14  0.93827000000E+00  0.93827000000E+00 0. -1.
        -11    1    1    0    0    0  0.40424235509E-02  0.12005884624E-02  0.21654072103E-02  0.47678831998E-02  0.51100000000E-03 0. -1.
        -14    1    1    0    0    0  0.26443048357E-02 -0.88100687169E-03 -0.46285060005E-02  0.54029241128E-02  0.00000000000E+00 0. -1.
         12    1    1    0    0    0  0.20245504979E-02  0.23697750457E-03 -0.30727143962E-02  0.36873482093E-02  0.00000000000E+00 0.  1.
         14    1    1    0    0    0  0.59469783313E-03  0.85689940784E-03  0.26446274419E-03  0.10760495579E-02  0.00000000000E+00 0.  1.
     999901    1    1    0    0    0 -0.17432509054E-01 -0.94998460833E-02  0.66249903333E-02  0.90024331708E+00  0.90000000000E+00 0.  1.
     999903    1    1    0    0    0  0.81265323367E-02  0.80863875801E-02 -0.13536398910E-02  0.23092477842E-01  0.20000000000E-01 0.  0.
</event>
<event>
 7    1  0.5676831E-066  0.9118800E+02  0.7957747E-01            NaN
     999900   -1    0    0    0    0  0.00000000000E+00  0.00000000000E+00  0.99999998245E-14  0.93827000000E+00  0.93827000000E+00 0.  1.
        -11    1    1    0    0    0 -0.99451068891E-03  0.30825323340E-02 -0.17454487898E-02  0.37146695113E-02  0.51100000000E-03 0. -1.
        -14    1    1    0    0    0  0.51642067421E-03 -0.22152223778E-02  0.11136107873E-03  0.22773453373E-02  0.00000000000E+00 0. -1.
         12    1    1    0    0    0 -0.31013983608E-02 -0.26390285111E-02 -0.91264587356E-04  0.40732631267E-02  0.00000000000E+00 0.  1.
         14    1    1    0    0    0  0.20155902721E-02  0.10080311411E-02 -0.23931221821E-02  0.32872123000E-02  0.00000000000E+00 0.  1.
     999901    1    1    0    0    0  0.91897734572E-02  0.12811096241E-01  0.71699330930E-02  0.90016664239E+00  0.90000000000E+00 0. -1.
     999903    1    1    0    0    0 -0.76258753539E-02 -0.12047408828E-01 -0.30514586124E-02  0.24750867339E-01  0.20000000000E-01 0.  0.
</event>
<event>
 7    1  0.5676831E-066  0.9118800E+02  0.7957747E-01            NaN
     999900   -1    0    0    0    0  0.00000000000E+00  0.00000000000E+00  0.99999998245E-14  0.93827000000E+00  0.93827000000E+00 0. -1.
        -11    1    1    0    0    0 -0.43006730689E-02  0.30901006616E-02  0.17319128874E-02  0.55951009101E-02  0.51100000000E-03 0. -1.
        -14    1    1    0    0    0  0.23295022648E-02 -0.80549613573E-03  0.58392649573E-03  0.25330564499E-02  0.00000000000E+00 0. -1.
         12    1    1    0    0    0  0.35210694097E-02 -0.20108062147E-02 -0.94221797012E-04  0.40558783473E-02  0.00000000000E+00 0.  1.
         14    1    1    0    0    0 -0.36609537350E-02 -0.12678483869E-02 -0.67219241629E-03  0.39321577316E-02  0.00000000000E+00 0.  1.
     999901    1    1    0    0    0 -0.73127425184E-03 -0.75655915015E-02  0.12761320850E-02  0.90003300020E+00  0.90000000000E+00 0. -1.
     999903    1    1    0    0    0  0.28423293813E-02  0.85596415772E-02 -0.28255572549E-02  0.22120806361E-01  0.20000000000E-01 0.  0.
</event>
<event>
 7    1  0.5676831E-066  0.9118800E+02  0.7957747E-01            NaN
     999900   -1    0    0    0    0  0.00000000000E+00  0.00000000000E+00  0.99999998245E-14  0.93827000000E+00  0.93827000000E+00 0. -1.
        -11    1    1    0    0    0  0.81561134560E-03  0.11859263673E-02 -0.25890817814E-02  0.30060120902E-02  0.51100000000E-03 0. -1.
        -14    1    1    0    0    0 -0.98034051560E-03 -0.79911779002E-03 -0.29367132791E-02  0.31974898987E-02  0.00000000000E+00 0. -1.
         12    1    1    0    0    0  0.26282760389E-02  0.19062284265E-02 -0.35050717999E-03  0.32656388401E-02  0.00000000000E+00 0.  1.
         14    1    1    0    0    0  0.69290843750E-02 -0.35642503914E-02  0.27690325734E-02  0.82694396739E-02  0.00000000000E+00 0.  1.
     999901    1    1    0    0    0 -0.92557904468E-02  0.67959362753E-03  0.73475725813E-02  0.90007784015E+00  0.90000000000E+00 0. -1.
     999903    1    1    0    0    0 -0.13684079710E-03  0.59161976002E-03 -0.42403029141E-02  0.20453579348E-01  0.20000000000E-01 0.  0.
</event>
<event>
 7    1  0.5676831E-066  0.9118800E+02  0.7957747E-01            NaN
     999900   -1    0    0    0    0  0.00000000000E+00  0.00000000000E+00  0.99999998245E-14  0.93827000000E+00  0.93827000000E+00 0.  1.
        -11    1    1    0    0    0 -0.39095087596E-02  0.16099764483E-03  0.82550196586E-03  0.40314703867E-02  0.51100000000E-03 0. -1.
        -14    1    1    0    0    0  0.22593087200E-02  0.26391591708E-02 -0.41487841181E-02  0.54112888187E-02  0.00000000000E+00 0. -1.
         12    1    1    0    0    0  0.10137345730E-02  0.28541729038E-03 -0.20803312793E-02  0.23317159016E-02  0.00000000000E+00 0.  1.
         14    1    1    0    0    0 -0.12079289606E-02  0.19065791992E-02 -0.25490117023E-04  0.22571633443E-02  0.00000000000E+00 0.  1.
     999901    1    1    0    0    0  0.62585164036E-02 -0.69045524362E-03  0.17279682145E-01  0.90018788771E+00  0.90000000000E+00 0.  1.
     999903    1    1    0    0    0 -0.44141219764E-02 -0.43016980616E-02 -0.11850578596E-01  0.24050473844E-01  0.20000000000E-01 0.  0.
</event>
<event>
 7    1  0.5676831E-066  0.9118800E+02  0.7957747E-01            NaN
     999900   -1    0    0    0    0  0.00000000000E+00  0.00000000000E+00  0.99999998245E-14  0.93827000000E+00  0.93827000000E+00 0.  1.
        -11    1    1    0    0    0  0.28338089955E-02 -0.37976469465E-02  0.99313144437E-04  0.47669256186E-02  0.51100000000E-03 0. -1.
        -14    1    1    0    0    0  0.45074480127E-03  0.35918332893E-02  0.24579930962E-02  0.43756333616E-02  0.00000000000E+00 0. -1.
         12    1    1    0    0    0  0.31841983941E-02 -0.22587512000E-02  0.31186531378E-03  0.39164188196E-02  0.00000000000E+00 0.  1.
         14    1    1    0    0    0 -0.62436085622E-03  0.12235493322E-02  0.24789935037E-02  0.28341327136E-02  0.00000000000E+00 0.  1.
     999901    1    1    0    0    0 -0.21933882440E-02 -0.78404246093E-02 -0.36308979005E-02  0.90004414704E+00  0.90000000000E+00 0.  1.
     999903    1    1    0    0    0 -0.36510030906E-02  0.90814401342E-02 -0.17172671576E-02  0.22332742442E-01  0.20000000000E-01 0.  0.
</event>
<event>
 7    1  0.5676831E-066  0.9118800E+02  0.7957747E-01            NaN
     999900   -1    0    0    0    0  0.00000000000E+00  0.00000000000E+00  0.99999998245E-14  0.93827000000E+00  0.93827000000E+00 0.  1.
        -11    1    1    0    0    0  0.89886598682E-03  0.21214285179E-02 -0.25644128341E-03  0.23738791357E-02  0.51100000000E-03 0. -1.
        -14    1    1    0    0    0 -0.17179710169E-02 -0.45345594533E-03  0.41848844870E-02  0.45464606980E-02  0.00000000000E+00 0. -1.
         12    1    1    0    0    0  0.10353977715E-02 -0.49059757884E-02  0.37220052793E-02  0.62445152158E-02  0.00000000000E+00 0.  1.
         14    1    1    0    0    0  0.72653726473E-03 -0.42425152197E-03 -0.33173767430E-02  0.34224018183E-02  0.00000000000E+00 0.  1.
     999901    1    1    0    0    0  0.49011031013E-02 -0.81978358229E-03 -0.42127558522E-03  0.90001381674E+00  0.90000000000E+00 0. -1.
     999903    1    1    0    0    0 -0.58439331075E-02  0.44820383201E-02 -0.39117961547E-02  0.21668926388E-01  0.20000000000E-01 0.  0.
</event>
<event>
 7    1  0.5676831E-066  0.9118800E+02  0.7957747E-01            NaN
     999900   -1    0    0    0    0  0.00000000000E+00  0.00000000000E+00  0.99999998245E-14  0.93827000000E+00  0.93827000000E+00 0.  1.
        -11    1    1    0    0    0  0.93043838368E-03  0.34725617434E-02 -0.46361461517E-02  0.58889194923E-02  0.51100000000E-03 0. -1.
        -14    1    1    0    0    0  0.18323995357E-02 -0.15329937292E-02  0.32669757054E-02  0.40473309837E-02  0.00000000000E+00 0. -1.
         12    1    1    0    0    0  0.11816143494E-02 -0.13426328563E-02 -0.85779098051E-03  0.19836029905E-02  0.00000000000E+00 0.  1.
         14    1    1    0    0    0 -0.24467793165E-02  0.39294912778E-02  0.38580303897E-03  0.46450484078E-02  0.00000000000E+00 0.  1.
     999901    1    1    0    0    0 -0.72045349653E-02 -0.10406803042E-01  0.16293391149E-02  0.90009047413E+00  0.90000000000E+00 0. -1.
     999903    1    1    0    0    0  0.57068620130E-02  0.58803766067E-02  0.21181927290E-03  0.21614623996E-01  0.20000000000E-01 0.  0.
</event>
<event>
 7    1  0.7804265E-066  0.9118800E+02  0.7957747E-01            NaN
     999900   -1    0    0    0    0  0.00000000000E+00  0.00000000000E+00  0.99999998245E-14  0.93827000000E+00  0.93827000000E+00 0. -1.
        -11    1    1    0    0    0 -0.96539817389E-03  0.86651756680E-03  0.22641628103E-02  0.26590224819E-02  0.51100000000E-03 0. -1.
        -14    1    1    0    0    0  0.40166725363E-02 -0.21746991733E-02 -0.38741232270E-02  0.59893076007E-02  0.00000000000E+00 0. -1.
         12    1    1    0    0    0  0.47061555580E-02 -0.31553109842E-02  0.57690666317E-03  0.56953234185E-02  0.00000000000E+00 0.  1.
         14    1    1    0    0    0 -0.71777084480E-03  0.42709014975E-03 -0.23621513214E-02  0.25054659940E-02  0.00000000000E+00 0.  1.
     999901    1    1    0    0    0 -0.27743275876E-02 -0.22923446437E-02  0.34930120998E-02  0.90001397371E+00  0.90000000000E+00 0. -1.
     999903    1    1    0    0    0 -0.42653314880E-02  0.63287470847E-02 -0.97807024877E-04  0.21406906796E-01  0.20000000000E-01 0.  0.
</event>
<event>
 7    1  0.5676831E-066  0.9118800E+02  0.7957747E-01            NaN
     999900   -1    0    0    0    0  0.00000000000E+00  0.00000000000E+00  0.99999998245E-14  0.93827000000E+00  0.93827000000E+00 0. -1.
        -11    1    1    0    0    0 -0.94746898932E-04 -0.12486315396E-02  0.92496944006E-03  0.16385198081E-02  0.51100000000E-03 0. -1.
        -14    1    1    0    0    0  0.24649789586E-02  0.19089238970E-02 -0.56384754431E-02  0.64430208003E-02  0.00000000000E+00 0. -1.
         12    1    1    0    0    0 -0.12640422290E-02 -0.11556470878E-02 -0.62716006220E-03  0.18239113717E-02  0.00000000000E+00 0.  1.
         14    1    1    0    0    0  0.12665098794E-02  0.19638283640E-02 -0.40294577542E-02  0.46580252157E-02  0.00000000000E+00 0.  1.
     999901    1    1    0    0    0  0.20099262339E-02 -0.11465702755E-01  0.31228992796E-02  0.90008069341E+00  0.90000000000E+00 0. -1.
     999903    1    1    0    0    0 -0.43826259441E-02  0.99972291216E-02  0.62472245398E-02  0.23625829398E-01  0.20000000000E-01 0.  0.
</event>
<event>
 7    1  0.5676831E-066  0.9118800E+02  0.7957747E-01            NaN
     999900   -1    0    0    0    0  0.00000000000E+00  0.00000000000E+00  0.99999998245E-14  0.93827000000E+00  0.93827000000E+00 0.  1.
        -11    1    1    0    0    0  0.57706728366E-03  0.41632604776E-03  0.31979684512E-02  0.33157890829E-02  0.51100000000E-03 0. -1.
        -14    1    1    0    0    0  0.14691278289E-02 -0.16459205553E-03 -0.27822814648E-02  0.31506375976E-02  0.00000000000E+00 0. -1.
         12    1    1    0    0    0 -0.21329962180E-02 -0.60753314536E-03  0.27392504807E-02  0.35245230294E-02  0.00000000000E+00 0.  1.
         14    1    1    0    0    0  0.31670744958E-02 -0.24572033104E-02  0.25629401248E-02  0.47578220914E-02  0.00000000000E+00 0.  1.
     999901    1    1    0    0    0 -0.88091292406E-02 -0.77077714705E-02 -0.32920457234E-02  0.90008213407E+00  0.90000000000E+00 0. -1.
     999903    1    1    0    0    0  0.57288558503E-02  0.10520773934E-01 -0.24258318684E-02  0.23439094133E-01  0.20000000000E-01 0.  0.
</event>
<event>
 7    1  0.5676831E-066  0.9118800E+02  0.7957747E-01            NaN
     999900   -1    0    0    0    0  0.00000000000E+00  0.00000000000E+00  0.99999998245E-14  0.93827000000E+00  0.93827000000E+00 0. -1.
        -11    1    1    0    0    0 -0.86188035849E-03  0.20210358845E-05 -0.10492411292E-02  0.14508169368E-02  0.51100000000E-03 0. -1.
        -14    1    1    0    0    0  0.26549448358E-02  0.25006741332E-02  0.29060139155E-03  0.36587637763E-02  0.00000000000E+00 0. -1.
         12    1    1    0    0    0 -0.26903456185E-02  0.14918408791E-03 -0.40316417537E-03  0.27244736724E-02  0.00000000000E+00 0.  1.
         14    1    1    0    0    0  0.71869074431E-02  0.16743910258E-02 -0.64056033732E-03  0.74071277462E-02  0.00000000000E+00 0.  1.
     999901    1    1    0    0    0 -0.86770940538E-02 -0.61041495087E-02 -0.89924661162E-02  0.90010744750E+00  0.90000000000E+00 0.  1.
     999903    1    1    0    0    0  0.23874677520E-02  0.17778792259E-02  0.10794830367E-01  0.22921370366E-01  0.20000000000E-01 0.  0.
</event>
<event>
 7    1  0.5676831E-066  0.9118800E+02  0.7957747E-01            NaN
     999900   -1    0    0    0    0  0.00000000000E+00  0.00000000000E+00  0.99999998245E-14  0.93827000000E+00  0.93827000000E+00 0.  1.
        -11    1    1    0    0    0  0.18761351527E-02 -0.36976843972E-03  0.18603641271E-02  0.27163739610E-02  0.51100000000E-03 0.  1.
        -14    1    1    0    0    0  0.70892389081E-03 -0.12336848835E-02  0.14691319765E-02  0.20452139837E-02  0.00000000000E+00 0. -1.
         12    1    1    0    0    0 -0.74873007329E-03  0.37900318357E-02  0.74180310570E-03  0.39338543295E-02  0.00000000000E+00 0.  1.
         14    1    1    0    0    0  0.37478217502E-02  0.19257503047E-02 -0.13608646661E-02  0.44279379791E-02  0.00000000000E+00 0.  1.
     999901    1    1    0    0    0 -0.33058796737E-02 -0.35905251786E-02 -0.17466265695E-01  0.90018269876E+00  0.90000000000E+00 0. -1.
     999903    1    1    0    0    0 -0.22782710467E-02 -0.52180363848E-03  0.14755831152E-01  0.24963920986E-01  0.20000000000E-01 0.  0.
</event>
<event>
 7    1  0.5676831E-066  0.9118800E+02  0.7957747E-01            NaN
     999900   -1    0    0    0    0  0.00000000000E+00  0.00000000000E+00  0.99999998245E-14  0.93827000000E+00  0.93827000000E+00 0. -1.
        -11    1    1    0    0    0 -0.38192195882E-02 -0.43584236996E-03  0.30117230903E-02  0.49099891860E-02  0.51100000000E-03 0. -1.
        -14    1    1    0    0    0 -0.80369620157E-03  0.12878643913E-02 -0.48145667926E-03  0.15925836898E-02  0.00000000000E+00 0. -1.
         12    1    1    0    0    0  0.59008916251E-02 -0.10077208769E-03  0.37177592204E-03  0.59134502890E-02  0.00000000000E+00 0.  1.
         14    1    1    0    0    0 -0.19724163608E-03 -0.16036189322E-02  0.10811041194E-02  0.19440380808E-02  0.00000000000E+00 0.  1.
     999901    1    1    0    0    0  0.88635399537E-02  0.85515459867E-02 -0.68559671146E-02  0.90011037966E+00  0.90000000000E+00 0.  1.
     999903    1    1    0    0    0 -0.99442741529E-02 -0.76991769882E-02  0.28728206621E-02  0.23799559098E-01  0.20000000000E-01 0.  0.
</event>
<event>
 7    1  0.5676831E-066  0.9118800E+02  0.7957747E-01            NaN
     999900   -1    0    0    0    0  0.00000000000E+00  0.00000000000E+00  0.99999998245E-14  0.93827000000E+00  0.93827000000E+00 0.  1.
        -11    1    1    0    0    0  0.21320720480E-02  0.18201001851E-02 -0.62634669177E-03  0.29175207077E-02  0.51100000000E-03 0. -1.
        -14    1    1    0    0    0  0.14769606727E-02 -0.36732069218E-02  0.31241799731E-02  0.50432491930E-02  0.00000000000E+00 0. -1.
         12    1    1    0    0    0  0.25476058879E-02 -0.13239061295E-02  0.15257048180E-02  0.32512764249E-02  0.00000000000E+00 0.  1.
         14    1    1    0    0    0 -0.10521619374E-02  0.41449915142E-02 -0.90715366196E-03  0.43716046438E-02  0.00000000000E+00 0.  1.
     999901    1    1    0    0    0 -0.94129673122E-02 -0.34948432922E-02 -0.12249752121E-01  0.90013936383E+00  0.90000000000E+00 0. -1.
     999903    1    1    0    0    0  0.43084906411E-02  0.25268646441E-02  0.91333676838E-02  0.22546985204E-01  0.20000000000E-01 0.  0.
</event>
<event>
 7    1  0.5676831E-066  0.9118800E+02  0.7957747E-01            NaN
     999900   -1    0    0    0    0  0.00000000000E+00  0.00000000000E+00  0.99999998245E-14  0.93827000000E+00  0.93827000000E+00 0.  1.
        -11    1    1    0    0    0  0.10035686041E-03 -0.28535951081E-02 -0.29486884606E-02  0.41362980040E-02  0.51100000000E-03 0. -1.
        -14    1    1    0    0    0 -0.43522996602E-03  0.19480967195E-02  0.14382408906E-02  0.24602932368E-02  0.00000000000E+00 0. -1.
         12    1    1    0    0    0 -0.19796805578E-02  0.11902737296E-03 -0.31070405390E-02  0.36860552814E-02  0.00000000000E+00 0.  1.
         14    1    1    0    0    0 -0.64980988403E-04  0.67447045366E-03  0.16971933113E-02  0.18274567184E-02  0.00000000000E+00 0.  1.
     999901    1    1    0    0    0 -0.67701288800E-02  0.78600013901E-02  0.14386751785E-01  0.90017475686E+00  0.90000000000E+00 0.  1.
     999903    1    1    0    0    0  0.91496635318E-02 -0.77480008282E-02 -0.11466456987E-01  0.25985139896E-01  0.20000000000E-01 0.  0.
</event>
<event>
 7    1  0.5676831E-066  0.9118800E+02  0.7957747E-01            NaN
     999900   -1    0    0    0    0  0.00000000000E+00  0.00000000000E+00  0.99999998245E-14  0.93827000000E+00  0.93827000000E+00 0.  1.
        -11    1    1    0    0    0 -0.26017772854E-02 -0.14712848961E-02  0.39631693504E-02  0.49901659880E-02  0.51100000000E-03 0. -1.
        -14    1    1    0    0    0 -0.12494143601E-02  0.98946552774E-03  0.27438116631E-03  0.16172084894E-02  0.00000000000E+00 0. -1.
         12    1    1    0    0    0  0.98360056029E-03 -0.17126654800E-02  0.49717886651E-03  0.20366344625E-02  0.00000000000E+00 0.  1.
         14    1    1    0    0    0  0.15445695998E-02  0.29445753713E-02 -0.55555486113E-03  0.33711808865E-02  0.00000000000E+00 0.  1.
     999901    1    1    0    0    0  0.17014831041E-03  0.60669135706E-02  0.11208588048E-01  0.90009025594E+00  0.90000000000E+00 0.  1.
     999903    1    1    0    0    0  0.11528731749E-02 -0.68170040936E-02 -0.15387762570E-01  0.26164554234E-01  0.20000000000E-01 0.  0.
</event>
<event>
 7    1  0.5676831E-066  0.9118800E+02  0.7957747E-01            NaN
     999900   -1    0    0    0    0  0.00000000000E+00  0.00000000000E+00  0.99999998245E-14  0.93827000000E+00  0.93827000000E+00 0.  1.
        -11    1    1    0    0    0 -0.12299178457E-02  0.13570587461E-02  0.52364316354E-05  0.19014349233E-02  0.51100000000E-03 0. -1.
        -14    1    1    0    0    0  0.19117162293E-02  0.18361761574E-02 -0.19799216366E-02  0.33085180231E-02  0.00000000000E+00 0. -1.
         12    1    1    0    0    0 -0.21254521402E-02  0.34012444836E-02  0.43582005040E-02  0.59228306130E-02  0.00000000000E+00 0.  1.
         14    1    1    0    0    0  0.33230161392E-02 -0.29933043473E-02 -0.13022006194E-02  0.46581148150E-02  0.00000000000E+00 0.  1.
     999901    1    1    0    0    0  0.75350581468E-02  0.17805050211E-04  0.38865620704E-03  0.90003162637E+00  0.90000000000E+00 0.  1.
     999903    1    1    0    0    0 -0.94144205294E-02 -0.36189800901E-02 -0.14699708867E-02  0.22447475252E-01  0.20000000000E-01 0.  0.
</event>
<event>
 7    1  0.5676831E-066  0.9118800E+02  0.7957747E-01            NaN
     999900   -1    0    0    0    0  0.00000000000E+00  0.00000000000E+00  0.99999998245E-14  0.93827000000E+00  0.93827000000E+00 0. -1.
        -11    1    1    0    0    0  0.23649788408E-02  0.11589153518E-02 -0.23091736897E-02  0.35397194577E-02  0.51100000000E-03 0. -1.
        -14    1    1    0    0    0 -0.81380525116E-02  0.23068819873E-02  0.27917850603E-02  0.89075062171E-02  0.00000000000E+00 0. -1.
         12    1    1    0    0    0 -0.81720049950E-03  0.54596578645E-03 -0.22814985514E-02  0.24841761082E-02  0.00000000000E+00 0.  1.
         14    1    1    0    0    0  0.41356564120E-03  0.33283135141E-03  0.53385274927E-03  0.75286918251E-03  0.00000000000E+00 0.  1.
     999901    1    1    0    0    0  0.39597015450E-02 -0.93762870934E-02  0.99153559489E-02  0.90011216428E+00  0.90000000000E+00 0. -1.
     999903    1    1    0    0    0  0.22170069841E-02  0.50316926165E-02 -0.86503215173E-02  0.22473564757E-01  0.20000000000E-01 0.  0.
</event>
<event>
 7    1  0.5676831E-066  0.9118800E+02  0.7957747E-01            NaN
     999900   -1    0    0    0    0  0.00000000000E+00  0.00000000000E+00  0.99999998245E-14  0.93827000000E+00  0.93827000000E+00 0.  1.
        -11    1    1    0    0    0  0.25541530461E-02  0.67367447648E-03 -0.25553685699E-02  0.37106016509E-02  0.51100000000E-03 0. -1.
        -14    1    1    0    0    0  0.59018887084E-03  0.22443371601E-03  0.31117624552E-02  0.31751785735E-02  0.00000000000E+00 0. -1.
         12    1    1    0    0    0 -0.12087255270E-02 -0.27492857954E-02  0.98243965967E-03  0.31598698500E-02  0.00000000000E+00 0.  1.
         14    1    1    0    0    0 -0.60461050525E-02 -0.79613963817E-03 -0.92827012097E-03  0.61685419709E-02  0.00000000000E+00 0.  1.
     999901    1    1    0    0    0  0.12601509905E-01  0.20241299666E-02 -0.37173470804E-02  0.90009816899E+00  0.90000000000E+00 0.  1.
     999903    1    1    0    0    0 -0.84910212422E-02  0.62318727443E-03  0.31067836565E-02  0.21957638962E-01  0.20000000000E-01 0.  0.
</event>
<event>
 7    1  0.5676831E-066  0.9118800E+02  0.7957747E-01            NaN
     999900   -1    0    0    0    0  0.00000000000E+00  0.00000000000E+00  0.99999998245E-14  0.93827000000E+00  0.93827000000E+00 0. -1.
        -11    1    1    0    0    0 -0.20475942943E-02  0.24738955986E-03  0.56708766452E-03  0.21992165440E-02  0.51100000000E-03 0. -1.
        -14    1    1    0    0    0 -0.21470390884E-04 -0.78161348997E-03 -0.12982223454E-02  0.15155071374E-02  0.00000000000E+00 0. -1.
         12    1    1    0    0    0  0.17472915760E-02 -0.25749833252E-02  0.70722006790E-03  0.31911952621E-02  0.00000000000E+00 0.  1.
         14    1    1    0    0    0 -0.34197767052E-02  0.19505806811E-02 -0.32366056153E-02  0.50965923533E-02  0.00000000000E+00 0.  1.
     999901    1    1    0    0    0 -0.33651672329E-03 -0.13613756458E-01  0.10098950441E-01  0.90015967273E+00  0.90000000000E+00 0.  1.
     999903    1    1    0    0    0  0.40780665376E-02  0.14772383032E-01 -0.68384302125E-02  0.26107815974E-01  0.20000000000E-01 0.  0.
</event>
<event>
 7    1  0.5676831E-066  0.9118800E+02  0.7957747E-01            NaN
     999900   -1    0    0    0    0  0.00000000000E+00  0.00000000000E+00  0.99999998245E-14  0.93827000000E+00  0.93827000000E+00 0.  1.
        -11    1    1    0    0    0 -0.69924101648E-03  0.18300276960E-02 -0.23425177093E-02  0.30961992160E-02  0.51100000000E-03 0. -1.
        -14    1    1    0    0    0  0.69626282331E-03 -0.18760467551E-02  0.17979518182E-02  0.26901606061E-02  0.00000000000E+00 0. -1.
         12    1    1    0    0    0 -0.13049172796E-02 -0.45079417494E-03  0.54397419851E-03  0.14838909742E-02  0.00000000000E+00 0.  1.
         14    1    1    0    0    0 -0.33999660016E-02  0.22753528394E-02 -0.41373469714E-02  0.58184739681E-02  0.00000000000E+00 0.  1.
     999901    1    1    0    0    0  0.16952839391E-01 -0.94698053176E-02  0.77217241924E-02  0.90024257898E+00  0.90000000000E+00 0.  1.
     999903    1    1    0    0    0 -0.12244977916E-01  0.76912657122E-02 -0.35837855285E-02  0.24938696260E-01  0.20000000000E-01 0.  0.
</event>
<event>
 7    1  0.5676831E-066  0.9118800E+02  0.7957747E-01            NaN
     999900   -1    0    0    0    0  0.00000000000E+00  0.00000000000E+00  0.99999998245E-14  0.93827000000E+00  0.93827000000E+00 0.  1.
        -11    1    1    0    0    0 -0.11053030420E-02  0.23669455793E-02  0.33104504633E-02  0.42478617515E-02  0.51100000000E-03 0. -1.
        -14    1    1    0    0    0 -0.13138567281E-02 -0.66825166495E-03 -0.39998475198E-02  0.42628112756E-02  0.00000000000E+00 0. -1.
         12    1    1    0    0    0  0.37210096184E-02  0.21447080637E-02 -0.23243896786E-02  0.48834898011E-02  0.00000000000E+00 0.  1.
         14    1    1    0    0    0 -0.19468901214E-02 -0.19324633575E-02 -0.25795447450E-02  0.37654809605E-02  0.00000000000E+00 0.  1.
     999901    1    1    0    0    0 -0.38575844681E-02 -0.19129229726E-02  0.10330461456E-01  0.90006958546E+00  0.90000000000E+00 0.  1.
     999903    1    1    0    0    0  0.45026247410E-02  0.19843520475E-05 -0.47371299761E-02  0.21040770754E-01  0.20000000000E-01 0.  0.
</event>
<event>
 7    1  0.5676831E-066  0.9118800E+02  0.7957747E-01            NaN
     999900   -1    0    0    0    0  0.00000000000E+00  0.00000000000E+00  0.99999998245E-14  0.93827000000E+00  0.93827000000E+00 0. -1.
        -11    1    1    0    0    0  0.47842866799E-02  0.58491396873E-02 -0.35597816443E-02  0.83686916822E-02  0.51100000000E-03 0. -1.
        -14    1    1    0    0    0 -0.27152523608E-02  0.46396938797E-03  0.58022068889E-03  0.28150522239E-02  0.00000000000E+00 0. -1.
         12    1    1    0    0    0  0.85410886523E-03  0.19881165089E-02 -0.97754266651E-03  0.23743838931E-02  0.00000000000E+00 0.  1.
         14    1    1    0    0    0  0.24583279629E-03 -0.96785730038E-03 -0.40374412446E-04  0.99940562877E-03  0.00000000000E+00 0.  1.
     999901    1    1    0    0    0 -0.59339041501E-02 -0.13621652060E-01  0.14196675537E-01  0.90023458399E+00  0.90000000000E+00 0. -1.
     999903    1    1    0    0    0  0.27649281695E-02  0.62882837766E-02 -0.10199197502E-01  0.23477882578E-01  0.20000000000E-01 0.  0.
</event>
<event>
 7    1  0.5676831E-066  0.9118800E+02  0.7957747E-01            NaN
     999900   -1    0    0    0    0  0.00000000000E+00  0.00000000000E+00  0.99999998245E-14  0.93827000000E+00  0.93827000000E+00 0. -1.
        -11    1    1    0    0    0 -0.10393118570E-02  0.39849553696E-03  0.17192943478E-03  0.12367896181E-02  0.51100000000E-03 0. -1.
        -14    1    1    0    0    0  0.77840583701E-03 -0.33229154261E-03 -0.13816175996E-02  0.16202470515E-02  0.00000000000E+00 0. -1.
         12    1    1    0    0    0 -0.86168980652E-02  0.19650633695E-02  0.69332847568E-03  0.88652755562E-02  0.00000000000E+00 0.  1.
         14    1    1    0    0    0 -0.23374606900E-04  0.37804484983E-02 -0.36338019700E-02  0.52437442708E-02  0.00000000000E+00 0.  1.
     999901    1    1    0    0    0  0.20360927843E-02 -0.39501774151E-02  0.55848378453E-02  0.90002829955E+00  0.90000000000E+00 0. -1.
     999903    1    1    0    0    0  0.68650859078E-02 -0.18615384470E-02 -0.14346761862E-02  0.21275643954E-01  0.20000000000E-01 0.  0.
</event>
<event>
 7    1  0.5676831E-066  0.9118800E+02  0.7957747E-01            NaN
     999900   -1    0    0    0    0  0.00000000000E+00  0.00000000000E+00  0.99999998245E-14  0.93827000000E+00  0.93827000000E+00 0.  1.
        -11    1    1    0    0    0 -0.37240497477E-02 -0.14755571130E-02  0.21528053390E-02  0.45761891509E-02  0.51100000000E-03 0. -1.
        -14    1    1    0    0    0 -0.14361379637E-02  0.44437823562E-02 -0.73405626040E-02  0.87002042058E-02  0.00000000000E+00 0. -1.
         12    1    1    0    0    0  0.13246878409E-02  0.65053388499E-03  0.32585224137E-03  0.15113477080E-02  0.00000000000E+00 0.  1.
         14    1    1    0    0    0  0.90345238157E-03  0.97077054842E-03 -0.12653373104E-02  0.18329484915E-02  0.00000000000E+00 0.  1.
     999901    1    1    0    0    0  0.45134908893E-02 -0.77634799722E-02  0.13198862003E-01  0.90014157396E+00  0.90000000000E+00 0.  1.
     999903    1    1    0    0    0 -0.15814434004E-02  0.31739502956E-02 -0.70716196695E-02  0.21507736479E-01  0.20000000000E-01 0.  0.
</event>
<event>
 7    1  0.5676831E-066  0.9118800E+02  0.7957747E-01            NaN
     999900   -1    0    0    0    0  0.00000000000E+00  0.00000000000E+00  0.99999998245E-14  0.93827000000E+00  0.93827000000E+00 0.  1.
        -11    1    1    0    0    0 -0.16434239466E-03 -0.31613977263E-03  0.75773941333E-03  0.98093975199E-03  0.51100000000E-03 0. -1.
        -14    1    1    0    0    0 -0.42689201902E-02  0.27157572431E-02 -0.13151041035E-02  0.52276682945E-02  0.00000000000E+00 0. -1.
         12    1    1    0    0    0  0.54235249210E-03 -0.16458639496E-02 -0.97411996408E-03  0.19879446851E-02  0.00000000000E+00 0.  1.
         14    1    1    0    0    0 -0.37973840463E-02 -0.29486980691E-03  0.21734582359E-02  0.43853157813E-02  0.00000000000E+00 0.  1.
     999901    1    1    0    0    0  0.22691594728E-01 -0.14469846030E-02  0.36880811219E-02  0.90029473184E+00  0.90000000000E+00 0. -1.
     999903    1    1    0    0    0 -0.15003300589E-01  0.98810088913E-03 -0.43300547035E-02  0.25393399648E-01  0.20000000000E-01 0.  0.
</event>
<event>
 7    1  0.5676831E-066  0.9118800E+02  0.7957747E-01            NaN
     999900   -1    0    0    0    0  0.00000000000E+00  0.00000000000E+00  0.99999998245E-14  0.93827000000E+00  0.93827000000E+00 0.  1.
        -11    1    1    0    0    0  0.13869648747E-02 -0.34413385433E-02  0.75844574867E-04  0.37461121089E-02  0.51100000000E-03 0. -1.
        -14    1    1    0    0    0 -0.43762582423E-02  0.12835903425E-02 -0.27151687413E-02  0.53076719627E-02  0.00000000000E+00 0. -1.
         12    1    1    0    0    0  0.28232914315E-02 -0.61160680600E-03  0.63634156637E-03  0.29580344795E-02  0.00000000000E+00 0.  1.
         14    1    1    0    0    0 -0.33533441015E-02  0.44644808020E-03 -0.23007330773E-02  0.40911618452E-02  0.00000000000E+00 0.  1.
     999901    1    1    0    0    0 -0.51205863569E-02  0.32934708478E-02  0.79531839533E-02  0.90005573188E+00  0.90000000000E+00 0. -1.
     999903    1    1    0    0    0  0.86399323944E-02 -0.97056392116E-03 -0.36494682760E-02  0.22111287724E-01  0.20000000000E-01 0.  0.
</event>
<event>
 7    1  0.5676831E-066  0.9118800E+02  0.7957747E-01            NaN
     999900   -1    0    0    0    0  0.00000000000E+00  0.00000000000E+00  0.99999998245E-14  0.93827000000E+00  0.93827000000E+00 0. -1.
        -11    1    1    0    0    0 -0.42570384362E-02 -0.46073452617E-02  0.28542498440E-02  0.69107068943E-02  0.51100000000E-03 0. -1.
        -14    1    1    0    0    0 -0.18447420524E-02  0.29064105842E-02  0.14945877714E-02  0.37528773402E-02  0.00000000000E+00 0. -1.
         12    1    1    0    0    0  0.14625135718E-02 -0.25768802850E-02  0.23472186871E-02  0.37800388246E-02  0.00000000000E+00 0.  1.
         14    1    1    0    0    0 -0.10014136376E-02  0.84234110228E-03  0.14876823355E-02  0.19813042516E-02  0.00000000000E+00 0.  1.
     999901    1    1    0    0    0  0.88970731580E-02  0.63523354125E-02 -0.75508053443E-03  0.90006670876E+00  0.90000000000E+00 0. -1.
     999903    1    1    0    0    0 -0.32563926036E-02 -0.29168615524E-02 -0.74286581035E-02  0.21778363927E-01  0.20000000000E-01 0.  0.
</event>
<event>
 7    1  0.5676831E-066  0.9118800E+02  0.7957747E-01            NaN
     999900   -1    0    0    0    0  0.00000000000E+00  0.00000000000E+00  0.99999998245E-14  0.93827000000E+00  0.93827000000E+00 0. -1.
        -11    1    1    0    0    0 -0.47368413175E-02 -0.25799296378E-02 -0.43827060355E-03  0.54357064606E-02  0.51100000000E-03 0. -1.
        -14    1    1    0    0    0  0.20903913905E-02 -0.23551676554E-02 -0.77091881620E-03  0.32420466794E-02  0.00000000000E+00 0. -1.
         12    1    1    0    0    0 -0.22916497523E-03  0.13822449502E-02 -0.15521109747E-02  0.20909725407E-02  0.00000000000E+00 0.  1.
         14    1    1    0    0    0  0.12611983436E-02  0.95873615902E-03  0.34937536637E-02  0.38361583579E-02  0.00000000000E+00 0.  1.
     999901    1    1    0    0    0 -0.47432123743E-02 -0.75364452396E-02  0.30957883833E-02  0.90004937641E+00  0.90000000000E+00 0.  1.
     999903    1    1    0    0    0  0.63576289329E-02  0.10130561424E-01 -0.38282416525E-02  0.23615739551E-01  0.20000000000E-01 0.  0.
</event>
<event>
 7    1  0.5676831E-066  0.9118800E+02  0.7957747E-01            NaN
     999900   -1    0    0    0    0  0.00000000000E+00  0.00000000000E+00  0.99999998245E-14  0.93827000000E+00  0.93827000000E+00 0. -1.
        -11    1    1    0    0    0  0.17635827219E-02 -0.29385205770E-02  0.98108013807E-03  0.36012173547E-02  0.51100000000E-03 0. -1.
        -14    1    1    0    0    0 -0.35419454540E-02 -0.16643876425E-02 -0.22928773483E-02  0.45357304106E-02  0.00000000000E+00 0. -1.
         12    1    1    0    0    0 -0.27379452037E-02 -0.39217906681E-04  0.68297421510E-03  0.28221154762E-02  0.00000000000E+00 0.  1.
         14    1    1    0    0    0  0.23448812424E-02 -0.69710326485E-03 -0.40525342740E-02  0.47336513438E-02  0.00000000000E+00 0.  1.
     999901    1    1    0    0    0  0.10646355176E-01  0.50384473351E-02  0.10310814885E-01  0.90013612511E+00  0.90000000000E+00 0. -1.
     999903    1    1    0    0    0 -0.84749284827E-02  0.30078205591E-03 -0.56294576158E-02  0.22441160302E-01  0.20000000000E-01 0.  0.
</event>
<event>
 7    1  0.5676831E-066  0.9118800E+02  0.7957747E-01            NaN
     999900   -1    0    0    0    0  0.00000000000E+00  0.00000000000E+00  0.99999998245E-14  0.93827000000E+00  0.93827000000E+00 0. -1.
        -11    1    1    0    0    0  0.86019481463E-03 -0.25440719018E-02 -0.31554737059E-03  0.27518953657E-02  0.51100000000E-03 0. -1.
        -14    1    1    0    0    0 -0.13731206649E-02  0.12019719003E-02 -0.10455242984E-02  0.21031685306E-02  0.00000000000E+00 0. -1.
         12    1    1    0    0    0  0.47316472445E-02  0.25927310939E-02 -0.12224638920E-02  0.55321928870E-02  0.00000000000E+00 0.  1.
         14    1    1    0    0    0 -0.29140231998E-02 -0.26317066471E-02 -0.18563453758E-02  0.43432049502E-02  0.00000000000E+00 0.  1.
     999901    1    1    0    0    0 -0.12072230607E-02  0.81734457507E-02  0.14475928071E-01  0.90015432849E+00  0.90000000000E+00 0. -1.
     999903    1    1    0    0    0 -0.97475133668E-04 -0.67923701960E-02 -0.10036047134E-01  0.23385209778E-01  0.20000000000E-01 0.  0.
</event>
<event>
 7    1  0.5676831E-066  0.9118800E+02  0.7957747E-01            NaN
     999900   -1    0    0    0    0  0.00000000000E+00  0.00000000000E+00  0.99999998245E-14  0.93827000000E+00  0.93827000000E+00 0. -1.
        -11    1    1    0    0    0  0.28634067604E-02 -0.33809521469E-02 -0.92152603622E-03  0.45541483211E-02  0.51100000000E-03 0. -1.
        -14    1    1    0    0    0 -0.10890703156E-02 -0.13616931942E-02  0.42116053034E-02  0.45582783745E-02  0.00000000000E+00 0. -1.
         12    1    1    0    0    0  0.30047362949E-02 -0.98915710416E-03 -0.19472555165E-02  0.37146569189E-02  0.00000000000E+00 0.  1.
         14    1    1    0    0    0 -0.28957885196E-04 -0.21442819730E-02  0.30804395240E-03  0.21664890527E-02  0.00000000000E+00 0.  1.
     999901    1    1    0    0    0 -0.93525643915E-02  0.12171893182E-01 -0.11284657395E-01  0.90020162682E+00  0.90000000000E+00 0.  1.
     999903    1    1    0    0    0  0.46024495369E-02 -0.42958087642E-02  0.96337896923E-02  0.23074800509E-01  0.20000000000E-01 0.  0.
</event>
<event>
 7    1  0.5676831E-066  0.9118800E+02  0.7957747E-01            NaN
     999900   -1    0    0    0    0  0.00000000000E+00  0.00000000000E+00  0.99999998245E-14  0.93827000000E+00  0.93827000000E+00 0.  1.
        -11    1    1    0    0    0 -0.54776918045E-02 -0.54936336398E-02  0.25535352436E-02  0.81833233661E-02  0.51100000000E-03 0. -1.
        -14    1    1    0    0    0  0.71719179751E-03  0.25852010240E-02 -0.13695929808E-02  0.30122107068E-02  0.00000000000E+00 0. -1.
         12    1    1    0    0    0  0.16097693118E-02  0.18298919361E-02 -0.85000793648E-03  0.25811577300E-02  0.00000000000E+00 0.  1.
         14    1    1    0    0    0 -0.25921811408E-02  0.58655977397E-03  0.76264877015E-03  0.27649753311E-02  0.00000000000E+00 0.  1.
     999901    1    1    0    0    0  0.95740449424E-02 -0.42917465075E-02 -0.66500533534E-02  0.90008572071E+00  0.90000000000E+00 0. -1.
     999903    1    1    0    0    0 -0.38311331065E-02  0.47837274133E-02  0.55534702570E-02  0.21642612151E-01  0.20000000000E-01 0.  0.
</event>
<event>
 7    1  0.5676831E-066  0.9118800E+02  0.7957747E-01            NaN
     999900   -1    0    0    0    0  0.00000000000E+00  0.00000000000E+00  0.99999998245E-14  0.93827000000E+00  0.93827000000E+00 0.  1.
        -11    1    1    0    0    0  0.29097610191E-02 -0.79530660542E-03 -0.44094811940E-02  0.53669234376E-02  0.51100000000E-03 0. -1.
        -14    1    1    0    0    0 -0.21377186622E-02  0.31298167388E-02  0.72624756581E-05  0.37902040368E-02  0.00000000000E+00 0. -1.
         12    1    1    0    0    0  0.95964781182E-03  0.40145762464E-03 -0.13094621718E-02  0.16723586118E-02  0.00000000000E+00 0.  1.
         14    1    1    0    0    0  0.14479571420E-03 -0.23956414392E-02  0.47962419288E-03  0.24474687067E-02  0.00000000000E+00 0.  1.
     999901    1    1    0    0    0  0.21143861899E-02  0.13620490611E-01  0.78500077958E-02  0.90013977304E+00  0.90000000000E+00 0. -1.
     999903    1    1    0    0    0 -0.39908720728E-02 -0.13960816930E-01 -0.26179510986E-02  0.24853272163E-01  0.20000000000E-01 0.  0.
</event>
<event>
 7    1  0.5676831E-066  0.9118800E+02  0.7957747E-01            NaN
     999900   -1    0    0    0    0  0.00000000000E+00  0.00000000000E+00  0.99999998245E-14  0.93827000000E+00  0.93827000000E+00 0.  1.
        -11    1    1    0    0    0 -0.26596831196E-03  0.92395536618E-04  0.13329404153E-02  0.14550351298E-02  0.51100000000E-03 0. -1.
        -14    1    1    0    0    0  0.25548755236E-03 -0.73214849302E-03 -0.40370999698E-03  0.87424085177E-03  0.00000000000E+00 0. -1.
         12    1    1    0    0    0 -0.42160122391E-03 -0.64211154541E-03 -0.17900338180E-02  0.19478901145E-02  0.00000000000E+00 0.  1.
         14    1    1    0    0    0 -0.25038298601E-02 -0.19509383138E-02 -0.81821093316E-03  0.32779251675E-02  0.00000000000E+00 0.  1.
     999901    1    1    0    0    0 -0.16638878098E-01 -0.76481919589E-02 -0.37927904840E-02  0.90019427479E+00  0.90000000000E+00 0.  1.
     999903    1    1    0    0    0  0.19574789942E-01  0.10880994775E-01  0.54718048168E-02  0.30520633947E-01  0.20000000000E-01 0.  0.
</event>
<event>
 7    1  0.5676831E-066  0.9118800E+02  0.7957747E-01            NaN
     999900   -1    0    0    0    0  0.00000000000E+00  0.00000000000E+00  0.99999998245E-14  0.93827000000E+00  0.93827000000E+00 0. -1.
        -11    1    1    0    0    0 -0.39039272531E-03  0.28218298517E-02 -0.62343825330E-03  0.29605618466E-02  0.51100000000E-03 0. -1.
        -14    1    1    0    0    0  0.78520813412E-03 -0.48374565620E-02  0.11618293605E-02  0.50366045374E-02  0.00000000000E+00 0. -1.
         12    1    1    0    0    0  0.21403880465E-02 -0.34675916372E-03  0.10684353977E-02  0.24172416318E-02  0.00000000000E+00 0.  1.
         14    1    1    0    0    0  0.14379036262E-02  0.81098137262E-03 -0.49557120754E-02  0.52234413751E-02  0.00000000000E+00 0.  1.
     999901    1    1    0    0    0 -0.70347756001E-02  0.11059469610E-01  0.49932497178E-03  0.90009557785E+00  0.90000000000E+00 0.  1.
     999903    1    1    0    0    0  0.30616685185E-02 -0.95080651082E-02  0.28495605986E-02  0.22536572761E-01  0.20000000000E-01 0.  0.
</event>
<event>
 7    1  0.5676831E-066  0.9118800E+02  0.7957747E-01            NaN
     999900   -1    0    0    0    0  0.00000000000E+00  0.00000000000E+00  0.99999998245E-14  0.93827000000E+00  0.93827000000E+00 0.  1.
        -11    1    1    0    0    0 -0.22156673648E-02  0.15811222457E-02  0.30788451747E-02  0.41412000721E-02  0.51100000000E-03 0. -1.
        -14    1    1    0    0    0  0.66017530533E-02 -0.27182396668E-02 -0.72185982017E-03  0.71758659312E-02  0.00000000000E+00 0. -1.
         12    1    1    0    0    0  0.10663937659E-02  0.12406791256E-03  0.61959896613E-03  0.12395528991E-02  0.00000000000E+00 0.  1.
         14    1    1    0    0    0 -0.26719280780E-02 -0.68357308071E-03 -0.10775212895E-02  0.29610004965E-02  0.00000000000E+00 0.  1.
     999901    1    1    0    0    0 -0.50674236218E-02  0.76526417778E-02 -0.10391360100E-01  0.90010678371E+00  0.90000000000E+00 0. -1.
     999903    1    1    0    0    0  0.22868722454E-02 -0.59560191886E-02  0.84922970688E-02  0.22645596895E-01  0.20000000000E-01 0.  0.
</event>
<event>
 7    1  0.5676831E-066  0.9118800E+02  0.7957747E-01            NaN
     999900   -1    0    0    0    0  0.00000000000E+00  0.00000000000E+00  0.99999998245E-14  0.93827000000E+00  0.93827000000E+00 0. -1.
        -11    1    1    0    0    0 -0.77757324729E-03 -0.26716135224E-02 -0.88124531417E-03  0.29630817187E-02  0.51100000000E-03 0. -1.
        -14    1    1    0    0    0  0.20284933261E-02  0.42256559784E-02 -0.25006744879E-03  0.46939841660E-02  0.00000000000E+00 0. -1.
         12    1    1    0    0    0  0.22344325967E-02  0.16766802481E-02  0.93683909780E-03  0.29464577341E-02  0.00000000000E+00 0.  1.
         14    1    1    0    0    0 -0.28395581613E-02  0.48026309709E-05 -0.25124624856E-02  0.37915143885E-02  0.00000000000E+00 0.  1.
     999901    1    1    0    0    0 -0.55985014757E-02 -0.14579281204E-01  0.57843401700E-02  0.90015407417E+00  0.90000000000E+00 0. -1.
     999903    1    1    0    0    0  0.49527069614E-02  0.11343755869E-01 -0.30774040192E-02  0.23720887820E-01  0.20000000000E-01 0.  0.
</event>
<event>
 7    1  0.5676831E-066  0.9118800E+02  0.7957747E-01            NaN
     999900   -1    0    0    0    0  0.00000000000E+00  0.00000000000E+00  0.99999998245E-14  0.93827000000E+00  0.93827000000E+00 0.  1.
        -11    1    1    0    0    0  0.17038377901E-02 -0.54832795608E-02  0.17325651784E-02  0.60193289538E-02  0.51100000000E-03 0. -1.
        -14    1    1    0    0    0  0.11792496798E-02  0.87138217156E-04  0.25057722294E-02  0.27707611485E-02  0.00000000000E+00 0. -1.
         12    1    1    0    0    0 -0.80642141029E-03 -0.36859962214E-02 -0.28245244702E-02  0.47132602429E-02  0.00000000000E+00 0.  1.
         14    1    1    0    0    0 -0.55827333574E-03 -0.11636087232E-03  0.10847645264E-02  0.12255297009E-02  0.00000000000E+00 0.  1.
     999901    1    1    0    0    0  0.13479500875E-02  0.16552544576E-01 -0.11512903064E-01  0.90022683288E+00  0.90000000000E+00 0. -1.
     999903    1    1    0    0    0 -0.28663428114E-02 -0.73540461384E-02  0.90143255996E-02  0.23314287073E-01  0.20000000000E-01 0.  0.
</event>
<event>
 7    1  0.5676831E-066  0.9118800E+02  0.7957747E-01            NaN
     999900   -1    0    0    0    0  0.00000000000E+00  0.00000000000E+00  0.99999998245E-14  0.93827000000E+00  0.93827000000E+00 0.  1.
        -11    1    1    0    0    0  0.18648048052E-02  0.31707226367E-02 -0.24422229582E-02  0.44448344151E-02  0.51100000000E-03 0. -1.
        -14    1    1    0    0    0  0.53246232851E-03 -0.84421103659E-03  0.48678385339E-03  0.11104804931E-02  0.00000000000E+00 0. -1.
         12    1    1    0    0    0 -0.46269917874E-02  0.24294255280E-02 -0.32200425222E-02  0.61383902810E-02  0.00000000000E+00 0.  1.
         14    1    1    0    0    0 -0.56311744104E-03 -0.10710119182E-02  0.33161723608E-02  0.35300378054E-02  0.00000000000E+00 0.  1.
     999901    1    1    0    0    0 -0.68549466031E-02 -0.46068796516E-02  0.76856243425E-02  0.90007070970E+00  0.90000000000E+00 0.  1.
     999903    1    1    0    0    0  0.96477886978E-02  0.92195444180E-03 -0.58263150764E-02  0.22975547308E-01  0.20000000000E-01 0.  0.
</event>
<event>
 7    1  0.5676831E-066  0.9118800E+02  0.7957747E-01            NaN
     999900   -1    0    0    0    0  0.00000000000E+00  0.00000000000E+00  0.99999998245E-14  0.93827000000E+00  0.93827000000E+00 0.  1.
        -11    1    1    0    0    0  0.32841542897E-02  0.29714736768E-03  0.52361572407E-03  0.33777596692E-02  0.51100000000E-03 0. -1.
        -14    1    1    0    0    0 -0.59965529366E-04  0.38217891011E-02  0.33610402805E-02  0.50898192075E-02  0.00000000000E+00 0. -1.
         12    1    1    0    0    0  0.22256622033E-03 -0.33734599111E-02 -0.56570865129E-02  0.65903258879E-02  0.00000000000E+00 0.  1.
         14    1    1    0    0    0 -0.13051802545E-02 -0.20152782984E-03  0.77602881028E-03  0.15317733766E-02  0.00000000000E+00 0.  1.
     999901    1    1    0    0    0  0.34873952974E-02  0.54516839165E-02 -0.18438331293E-03  0.90002328680E+00  0.90000000000E+00 0. -1.
     999903    1    1    0    0    0 -0.56289700236E-02 -0.59956326443E-02  0.11807850109E-02  0.21657035060E-01  0.20000000000E-01 0.  0.
</event>
<event>
 7    1  0.5676831E-066  0.9118800E+02  0.7957747E-01            NaN
     999900   -1    0    0    0    0  0.00000000000E+00  0.00000000000E+00  0.99999998245E-14  0.93827000000E+00  0.93827000000E+00 0. -1.
        -11    1    1    0    0    0 -0.61061836338E-02 -0.17103305668E-02 -0.70712404796E-03  0.64009260765E-02  0.51100000000E-03 0. -1.
        -14    1    1    0    0    0  0.29657281609E-02  0.15910976273E-02  0.17124181827E-02  0.37761767989E-02  0.00000000000E+00 0. -1.
         12    1    1    0    0    0 -0.42712976848E-04 -0.11811109986E-03 -0.83124440389E-03  0.84067942125E-03  0.00000000000E+00 0.  1.
         14    1    1    0    0    0 -0.24587235592E-02  0.37935655514E-02  0.16540996848E-02  0.48137830134E-02  0.00000000000E+00 0.  1.
     999901    1    1    0    0    0 -0.14672674701E-02  0.29917335389E-02  0.12941825576E-02  0.90000709900E+00  0.90000000000E+00 0. -1.
     999903    1    1    0    0    0  0.71091594790E-02 -0.65479550509E-02 -0.31223319733E-02  0.22431335689E-01  0.20000000000E-01 0.  0.
</event>
<event>
 7    1  0.5676831E-066  0.9118800E+02  0.7957747E-01            NaN
     999900   -1    0    0    0    0  0.00000000000E+00  0.00000000000E+00  0.99999998245E-14  0.93827000000E+00  0.93827000000E+00 0. -1.
        -11    1    1    0    0    0  0.59322718932E-03 -0.14979723732E-02 -0.24636186212E-02  0.29877043762E-02  0.51100000000E-03 0. -1.
        -14    1    1    0    0    0  0.60949364120E-02 -0.21594575002E-02  0.23447997592E-02  0.68781968910E-02  0.00000000000E+00 0. -1.
         12    1    1    0    0    0 -0.10983519053E-02  0.15982553241E-02  0.82525448795E-03  0.21075677827E-02  0.00000000000E+00 0.  1.
         14    1    1    0    0    0  0.13029368411E-02 -0.41933814985E-02  0.24993033609E-02  0.50525844964E-02  0.00000000000E+00 0.  1.
     999901    1    1    0    0    0 -0.78882558253E-02  0.69423582987E-02 -0.99085923696E-02  0.90011588205E+00  0.90000000000E+00 0.  1.
     999903    1    1    0    0    0  0.99550728819E-03 -0.68980225098E-03  0.67028533828E-02  0.21128064402E-01  0.20000000000E-01 0.  0.
</event>
<event>
 7    1  0.5676831E-066  0.9118800E+02  0.7957747E-01            NaN
     999900   -1    0    0    0    0  0.00000000000E+00  0.00000000000E+00  0.99999998245E-14  0.93827000000E+00  0.93827000000E+00 0.  1.
        -11    1    1    0    0    0 -0.22171836819E-02 -0.52100701149E-02  0.52046845731E-02  0.77078269692E-02  0.51100000000E-03 0. -1.
        -14    1    1    0    0    0  0.39413761103E-02 -0.36156859638E-03  0.63068266553E-03  0.40078595432E-02  0.00000000000E+00 0. -1.
         12    1    1    0    0    0  0.21524708895E-02 -0.67916775333E-04  0.19587887847E-02  0.29111161298E-02  0.00000000000E+00 0.  1.
         14    1    1    0    0    0  0.12544965617E-03 -0.12006007280E-04 -0.11893643611E-02  0.11960223007E-02  0.00000000000E+00 0.  1.
     999901    1    1    0    0    0  0.47542652548E-02  0.83916020785E-02 -0.24543145319E-02  0.90005502370E+00  0.90000000000E+00 0. -1.
     999903    1    1    0    0    0 -0.87563782289E-02 -0.27400405846E-02 -0.41504771304E-02  0.22392151359E-01  0.20000000000E-01 0.  0.
</event>
<event>
 7    1  0.5676831E-066  0.9118800E+02  0.7957747E-01            NaN
     999900   -1    0    0    0    0  0.00000000000E+00  0.00000000000E+00  0.99999998245E-14  0.93827000000E+00  0.93827000000E+00 0. -1.
        -11    1    1    0    0    0 -0.81783101347E-03 -0.92173236543E-03 -0.34763977431E-02  0.37235601766E-02  0.51100000000E-03 0. -1.
        -14    1    1    0    0    0  0.19721095315E-03 -0.16948269267E-02  0.12392360518E-02  0.21087997685E-02  0.00000000000E+00 0. -1.
         12    1    1    0    0    0  0.20044731869E-02 -0.16878955525E-02 -0.22079613935E-03  0.26297633141E-02  0.00000000000E+00 0.  1.
         14    1    1    0    0    0 -0.57442323172E-02  0.66748159436E-03  0.11351666993E-02  0.58932452883E-02  0.00000000000E+00 0.  1.
     999901    1    1    0    0    0  0.20126595279E-02 -0.87911711331E-02 -0.17908641574E-02  0.90004696693E+00  0.90000000000E+00 0. -1.
     999903    1    1    0    0    0  0.23477196627E-02  0.12428144383E-01  0.31136552887E-02  0.23867664521E-01  0.20000000000E-01 0.  0.
</event>
<event>
 7    1  0.5676831E-066  0.9118800E+02  0.7957747E-01            NaN
     999900   -1    0    0    0    0  0.00000000000E+00  0.00000000000E+00  0.99999998245E-14  0.93827000000E+00  0.93827000000E+00 0. -1.
        -11    1    1    0    0    0 -0.32558059615E-02  0.25468845490E-03  0.32906524057E-02  0.46641883456E-02  0.51100000000E-03 0. -1.
        -14    1    1    0    0    0 -0.17867522558E-03  0.26427367431E-03 -0.57744171194E-03  0.65970019089E-03  0.00000000000E+00 0. -1.
         12    1    1    0    0    0  0.54762813785E-03 -0.88414377276E-03 -0.84788201707E-03  0.13418311008E-02  0.00000000000E+00 0.  1.
         14    1    1    0    0    0 -0.51752118257E-02  0.19989667120E-02 -0.32649221903E-02  0.64372666765E-02  0.00000000000E+00 0.  1.
     999901    1    1    0    0    0 -0.43466024225E-02 -0.86260329414E-03  0.10084109210E-01  0.90006740097E+00  0.90000000000E+00 0. -1.
     999903    1    1    0    0    0  0.12408667297E-01 -0.77118177434E-03 -0.86845156969E-02  0.25099612712E-01  0.20000000000E-01 0.  0.
</event>
<event>
 7    1  0.5676831E-066  0.9118800E+02  0.7957747E-01            NaN
     999900   -1    0    0    0    0  0.00000000000E+00  0.00000000000E+00  0.99999998245E-14  0.93827000000E+00  0.93827000000E+00 0. -1.
        -11    1    1    0    0    0 -0.17583608720E-02 -0.67872070748E-03 -0.39562881397E-02  0.44120099274E-02  0.51100000000E-03 0. -1.
        -14    1    1    0    0    0  0.56136991945E-03 -0.39485288682E-02 -0.23901722740E-02  0.46496171788E-02  0.00000000000E+00 0. -1.
         12    1    1    0    0    0  0.23167977018E-02  0.20641355007E-02  0.18586534322E-02  0.36170152802E-02  0.00000000000E+00 0.  1.
         14    1    1    0    0    0 -0.21707928456E-02 -0.79611484788E-03 -0.20050617828E-03  0.23208496628E-02  0.00000000000E+00 0.  1.
     999901    1    1    0    0    0 -0.36780187880E-02 -0.19973016274E-02 -0.47679246756E-02  0.90002236091E+00  0.90000000000E+00 0.  1.
     999903    1    1    0    0    0  0.47290048844E-02  0.53565305503E-02  0.94562378354E-02  0.23248147039E-01  0.20000000000E-01 0.  0.
</event>
<event>
 7    1  0.5676831E-066  0.9118800E+02  0.7957747E-01            NaN
     999900   -1    0    0    0    0  0.00000000000E+00  0.00000000000E+00  0.99999998245E-14  0.93827000000E+00  0.93827000000E+00 0. -1.
        -11    1    1    0    0    0 -0.88077427597E-03 -0.26416396165E-02 -0.36507454739E-02  0.46198578662E-02  0.51100000000E-03 0. -1.
        -14    1    1    0    0    0 -0.48237580134E-03 -0.66853908101E-03  0.40002022397E-02  0.40842684627E-02  0.00000000000E+00 0. -1.
         12    1    1    0    0    0  0.18824384598E-02 -0.20916309078E-02 -0.12681764600E-02  0.30865459567E-02  0.00000000000E+00 0.  1.
         14    1    1    0    0    0 -0.28361934729E-02 -0.36983051888E-02  0.30017101255E-03  0.46702845012E-02  0.00000000000E+00 0.  1.
     999901    1    1    0    0    0  0.50923719114E-02  0.11219088212E-02  0.24817669340E-02  0.90001852764E+00  0.90000000000E+00 0.  1.
     999903    1    1    0    0    0 -0.27754668209E-02  0.79782059729E-02 -0.18632182525E-02  0.21790515572E-01  0.20000000000E-01 0.  0.
</event>
<event>
 7    1  0.5676831E-066  0.9118800E+02  0.7957747E-01            NaN
     999900   -1    0    0    0    0  0.00000000000E+00  0.00000000000E+00  0.99999998245E-14  0.93827000000E+00  0.93827000000E+00 0.  1.
        -11    1    1    0    0    0  0.11016474872E-02  0.17844781980E-02  0.45321330467E-02  0.50198944788E-02  0.51100000000E-03 0. -1.
        -14    1    1    0    0    0  0.52297945491E-03 -0.65264398294E-03 -0.31198003512E-02  0.32299544749E-02  0.00000000000E+00 0. -1.
         12    1    1    0    0    0  0.66343172688E-03  0.52394641070E-03  0.81996735150E-03  0.11777130190E-02  0.00000000000E+00 0.  1.
         14    1    1    0    0    0 -0.52190734750E-02  0.27013700893E-02 -0.13474266056E-02  0.60292360009E-02  0.00000000000E+00 0.  1.
     999901    1    1    0    0    0 -0.31615878775E-02 -0.83501991497E-02 -0.88461221593E-02  0.90008775980E+00  0.90000000000E+00 0. -1.
     999903    1    1    0    0    0  0.60926026835E-02  0.39930484346E-02  0.79612487179E-02  0.22725442227E-01  0.20000000000E-01 0.  0.
</event>
<event>
 7    1  0.5676831E-066  0.9118800E+02  0.7957747E-01            NaN
     999900   -1    0    0    0    0  0.00000000000E+00  0.00000000000E+00  0.99999998245E-14  0.93827000000E+00  0.93827000000E+00 0.  1.
        -11    1    1    0    0    0 -0.21067298095E-02 -0.17266619252E-02 -0.43842434326E-02  0.51867507527E-02  0.51100000000E-03 0. -1.
        -14    1    1    0    0    0  0.91447139794E-03 -0.50211627439E-03  0.11376726123E-02  0.15435924538E-02  0.00000000000E+00 0. -1.
         12    1    1    0    0    0  0.17388375574E-02  0.14867877791E-02  0.47859584562E-02  0.53046670297E-02  0.00000000000E+00 0.  1.
         14    1    1    0    0    0 -0.15801571383E-02 -0.22085666455E-02  0.49059188292E-03  0.27595912025E-02  0.00000000000E+00 0.  1.
     999901    1    1    0    0    0 -0.81774000788E-02 -0.47144447533E-02  0.24531357952E-03  0.90004952977E+00  0.90000000000E+00 0. -1.
     999903    1    1    0    0    0  0.92109780712E-02  0.76650018193E-02 -0.22752930984E-02  0.23425868791E-01  0.20000000000E-01 0.  0.
</event>
<event>
 7    1  0.5676831E-066  0.9118800E+02  0.7957747E-01            NaN
     999900   -1    0    0    0    0  0.00000000000E+00  0.00000000000E+00  0.99999998245E-14  0.93827000000E+00  0.93827000000E+00 0. -1.
        -11    1    1    0    0    0 -0.10431146963E-02 -0.12681657892E-02 -0.14580873078E-02  0.22546557023E-02  0.51100000000E-03 0. -1.
        -14    1    1    0    0    0  0.13784201960E-02 -0.54597692684E-02 -0.40788111304E-03  0.56458382640E-02  0.00000000000E+00 0. -1.
         12    1    1    0    0    0 -0.14707283246E-02 -0.14922586111E-02 -0.13610831768E-03  0.20996197373E-02  0.00000000000E+00 0.  1.
         14    1    1    0    0    0 -0.83337971643E-03  0.62147018545E-04 -0.39380105209E-02  0.40257062569E-02  0.00000000000E+00 0.  1.
     999901    1    1    0    0    0 -0.53180874528E-02 -0.29615175747E-02  0.87638773992E-02  0.90006325233E+00  0.90000000000E+00 0. -1.
     999903    1    1    0    0    0  0.72868899941E-02  0.11119564225E-01 -0.28237901397E-02  0.24180927714E-01  0.20000000000E-01 0.  0.
</event>
<event>
 7    1  0.5676831E-066  0.9118800E+02  0.7957747E-01            NaN
     999900   -1    0    0    0    0  0.00000000000E+00  0.00000000000E+00  0.99999998245E-14  0.93827000000E+00  0.93827000000E+00 0. -1.
        -11    1    1    0    0    0 -0.52263487108E-02 -0.18042015719E-02  0.13018627551E-02  0.57031422736E-02  0.51100000000E-03 0. -1.
        -14    1    1    0    0    0  0.65785349923E-02 -0.31385330501E-02 -0.35317724038E-02  0.80994400216E-02  0.00000000000E+00 0. -1.
         12    1    1    0    0    0  0.47943854144E-03 -0.45325287445E-03 -0.21064741714E-03  0.69258343726E-03  0.00000000000E+00 0.  1.
         14    1    1    0    0    0  0.17525848622E-02 -0.48686518373E-03  0.23350343757E-02  0.29598947518E-02  0.00000000000E+00 0.  1.
     999901    1    1    0    0    0 -0.46210922700E-02  0.10220907883E-01  0.33011084830E-02  0.90007595167E+00  0.90000000000E+00 0.  1.
     999903    1    1    0    0    0  0.10368825849E-02 -0.43380552029E-02 -0.31955857928E-02  0.20738987849E-01  0.20000000000E-01 0.  0.
</event>
<event>
 7    1  0.5676831E-066  0.9118800E+02  0.7957747E-01            NaN
     999900   -1    0    0    0    0  0.00000000000E+00  0.00000000000E+00  0.99999998245E-14  0.93827000000E+00  0.93827000000E+00 0.  1.
        -11    1    1    0    0    0  0.28275437688E-02  0.18563338076E-03  0.13360729845E-02  0.31742204612E-02  0.51100000000E-03 0. -1.
        -14    1    1    0    0    0  0.11856765377E-02 -0.19977230965E-02  0.27786041558E-03  0.23396437405E-02  0.00000000000E+00 0. -1.
         12    1    1    0    0    0  0.44731143929E-02  0.70090292293E-02  0.32138825805E-02  0.89142741909E-02  0.00000000000E+00 0.  1.
         14    1    1    0    0    0 -0.10825016173E-03 -0.17802072132E-03 -0.36503378506E-03  0.42030838555E-03  0.00000000000E+00 0.  1.
     999901    1    1    0    0    0 -0.15126622107E-01 -0.11099813790E-02 -0.13251530174E-01  0.90022533280E+00  0.90000000000E+00 0. -1.
     999903    1    1    0    0    0  0.67485375695E-02 -0.39089374132E-02  0.87887479786E-02  0.23196220426E-01  0.20000000000E-01 0.  0.
</event>
<event>
 7    1  0.5676831E-066  0.9118800E+02  0.7957747E-01            NaN
     999900   -1    0    0    0    0  0.00000000000E+00  0.00000000000E+00  0.99999998245E-14  0.93827000000E+00  0.93827000000E+00 0. -1.
        -11    1    1    0    0    0 -0.21988361921E-02  0.36159440236E-02 -0.79803327955E-03  0.43368087226E-02  0.51100000000E-03 0. -1.
        -14    1    1    0    0    0  0.19899480190E-02 -0.12022686028E-02  0.34530052143E-02  0.41627620544E-02  0.00000000000E+00 0. -1.
         12    1    1    0    0    0 -0.13777236067E-02  0.17637442271E-02 -0.40545248451E-02  0.46312080233E-02  0.00000000000E+00 0.  1.
         14    1    1    0    0    0  0.10257910206E-02 -0.11862697729E-02  0.24496027052E-02  0.29086142070E-02  0.00000000000E+00 0.  1.
     999901    1    1    0    0    0 -0.39659282875E-02 -0.10546051369E-01 -0.46512713667E-02  0.90008254183E+00  0.90000000000E+00 0.  1.
     999903    1    1    0    0    0  0.45267490467E-02  0.75549014945E-02  0.36012215720E-02  0.22148065160E-01  0.20000000000E-01 0.  0.
</event>
<event>
 7    1  0.5676831E-066  0.9118800E+02  0.7957747E-01            NaN
     999900   -1    0    0    0    0  0.00000000000E+00  0.00000000000E+00  0.99999998245E-14  0.93827000000E+00  0.93827000000E+00 0.  1.
        -11    1    1    0    0    0  0.25731713812E-02  0.10484671122E-02 -0.41036234969E-02  0.49821020711E-02  0.51100000000E-03 0. -1.
        -14    1    1    0    0    0 -0.20965993071E-02 -0.18795422190E-03 -0.17905508941E-02  0.27635354075E-02  0.00000000000E+00 0. -1.
         12    1    1    0    0    0  0.63067458353E-03  0.96153437701E-03  0.33477858398E-02  0.35397695996E-02  0.00000000000E+00 0.  1.
         14    1    1    0    0    0  0.15768513413E-03 -0.14703405518E-02 -0.71013249663E-03  0.16404432640E-02  0.00000000000E+00 0.  1.
     999901    1    1    0    0    0  0.10974938414E-01 -0.85249270603E-02  0.75779099355E-02  0.90013918278E+00  0.90000000000E+00 0.  1.
     999903    1    1    0    0    0 -0.12239870206E-01  0.81732203447E-02 -0.43213888877E-02  0.25204966879E-01  0.20000000000E-01 0.  0.
</event>
<event>
 7    1  0.5676831E-066  0.9118800E+02  0.7957747E-01            NaN
     999900   -1    0    0    0    0  0.00000000000E+00  0.00000000000E+00  0.99999998245E-14  0.93827000000E+00  0.93827000000E+00 0. -1.
        -11    1    1    0    0    0 -0.20565883051E-02 -0.67051673302E-03  0.80802933802E-03  0.23649906040E-02  0.51100000000E-03 0. -1.
        -14    1    1    0    0    0 -0.31671103984E-02  0.34426662494E-02  0.40174008666E-02  0.61662021458E-02  0.00000000000E+00 0. -1.
         12    1    1    0    0    0  0.25719346519E-03 -0.31250370485E-03  0.75110743161E-03  0.85321123874E-03  0.00000000000E+00 0.  1.
         14    1    1    0    0    0  0.33947857516E-02 -0.51647476754E-02 -0.12637893080E-02  0.63084350091E-02  0.00000000000E+00 0.  1.
     999901    1    1    0    0    0  0.54347440387E-02 -0.69060387368E-02 -0.44087417633E-02  0.90005370219E+00  0.90000000000E+00 0. -1.
     999903    1    1    0    0    0 -0.38630245520E-02  0.96111406007E-02  0.95993435059E-04  0.22523458817E-01  0.20000000000E-01 0.  0.
</event>
<event>
 7    1  0.5676831E-066  0.9118800E+02  0.7957747E-01            NaN
     999900   -1    0    0    0    0  0.00000000000E+00  0.00000000000E+00  0.99999998245E-14  0.93827000000E+00  0.93827000000E+00 0.  1.
        -11    1    1    0    0    0 -0.17515274164E-03 -0.15563682002E-02 -0.50325657336E-03  0.17225993835E-02  0.51100000000E-03 0. -1.
        -14    1    1    0    0    0  0.79335715792E-03  0.14341566405E-02 -0.46570639199E-03  0.17038495512E-02  0.00000000000E+00 0. -1.
         12    1    1    0    0    0  0.15479430327E-02 -0.13434512824E-02 -0.40832804978E-02  0.45688257358E-02  0.00000000000E+00 0.  1.
         14    1    1    0    0    0 -0.21333043323E-02  0.17958773843E-02  0.20765822753E-02  0.34768314454E-02  0.00000000000E+00 0.  1.
     999901    1    1    0    0    0 -0.85549239679E-02 -0.67708297689E-03 -0.12470197572E-01  0.90012729710E+00  0.90000000000E+00 0. -1.
     999903    1    1    0    0    0  0.85220808512E-02  0.34686843467E-03  0.15445858760E-01  0.26670596779E-01  0.20000000000E-01 0.  0.
</event>
<event>
 7    1  0.5676831E-066  0.9118800E+02  0.7957747E-01            NaN
     999900   -1    0    0    0    0  0.00000000000E+00  0.00000000000E+00  0.99999998245E-14  0.93827000000E+00  0.93827000000E+00 0. -1.
        -11    1    1    0    0    0 -0.44052007515E-02 -0.20919284656E-02  0.11320251646E-02  0.50323513728E-02  0.51100000000E-03 0. -1.
        -14    1    1    0    0    0  0.85864989628E-03  0.93096934405E-03 -0.40191008427E-03  0.13287269395E-02  0.00000000000E+00 0. -1.
         12    1    1    0    0    0 -0.44952459136E-02 -0.66652038562E-02  0.10718035774E-02  0.81105450604E-02  0.00000000000E+00 0.  1.
         14    1    1    0    0    0 -0.94978196905E-05 -0.21718339575E-02 -0.35608788714E-03  0.22008524555E-02  0.00000000000E+00 0.  1.
     999901    1    1    0    0    0  0.21176307130E-02  0.14548654218E-01 -0.36906193541E-02  0.90012764004E+00  0.90000000000E+00 0.  1.
     999903    1    1    0    0    0  0.59336638755E-02 -0.45506572825E-02  0.22447885835E-02  0.21469884128E-01  0.20000000000E-01 0.  0.
</event>
<event>
 7    1  0.5676831E-066  0.9118800E+02  0.7957747E-01            NaN
     999900   -1    0    0    0    0  0.00000000000E+00  0.00000000000E+00  0.99999998245E-14  0.93827000000E+00  0.93827000000E+00 0. -1.
        -11    1    1    0    0    0 -0.37513394062E-02 -0.38830986685E-02  0.10156187455E-02  0.55175723870E-02  0.51100000000E-03 0. -1.
        -14    1    1    0    0    0  0.33051048492E-02 -0.88635462554E-03 -0.29705871251E-02  0.45314159436E-02  0.00000000000E+00 0. -1.
         12    1    1    0    0    0  0.12176952570E-02  0.33605591590E-03 -0.38644086874E-02  0.40656327700E-02  0.00000000000E+00 0.  1.
         14    1    1    0    0    0 -0.43360280533E-03  0.11461751442E-02  0.12013951932E-02  0.17161233243E-02  0.00000000000E+00 0.  1.
     999901    1    1    0    0    0  0.70281024493E-02  0.95695391945E-02  0.68789503227E-02  0.90010459962E+00  0.90000000000E+00 0. -1.
     999903    1    1    0    0    0 -0.73659603440E-02 -0.62823169606E-02 -0.22609684489E-02  0.22334655952E-01  0.20000000000E-01 0.  0.
</event>
<event>
 7    1  0.5676831E-066  0.9118800E+02  0.7957747E-01            NaN
     999900   -1    0    0    0    0  0.00000000000E+00  0.00000000000E+00  0.99999998245E-14  0.93827000000E+00  0.93827000000E+00 0.  1.
        -11    1    1    0    0    0 -0.17678851951E-02 -0.26390319321E-03 -0.11021606091E-02  0.21612362126E-02  0.51100000000E-03 0. -1.
        -14    1    1    0    0    0 -0.48909044792E-02  0.35065213838E-02  0.30205764974E-03  0.60256018507E-02  0.00000000000E+00 0. -1.
         12    1    1    0    0    0 -0.22305927879E-02  0.84763761734E-03  0.10507187946E-02  0.26073058319E-02  0.00000000000E+00 0.  1.
         14    1    1    0    0    0  0.36973751722E-02 -0.39178545278E-03 -0.26809113342E-03  0.37277274392E-02  0.00000000000E+00 0.  1.
     999901    1    1    0    0    0 -0.75040504904E-02 -0.26652601086E-02  0.22448120282E-03  0.90003525752E+00  0.90000000000E+00 0.  1.
     999903    1    1    0    0    0  0.12696057780E-01 -0.10332102466E-02 -0.20700590462E-03  0.23712871147E-01  0.20000000000E-01 0.  0.
</event>
<event>
 7    1  0.6104616E-066  0.9118800E+02  0.7957747E-01            NaN
     999900   -1    0    0    0    0  0.00000000000E+00  0.00000000000E+00  0.99999998245E-14  0.93827000000E+00  0.93827000000E+00 0. -1.
        -11    1    1    0    0    0  0.40261873662E-02 -0.12951328441E-02 -0.32820715818E-02  0.53777940329E-02  0.51100000000E-03 0. -1.
        -14    1    1    0    0    0  0.11650577687E-02 -0.15926682418E-02  0.32275035527E-02  0.37829526716E-02  0.00000000000E+00 0. -1.
         12    1    1    0    0    0  0.33459147841E-02 -0.21212100883E-02  0.35105083374E-02  0.52932359448E-02  0.00000000000E+00 0.  1.
         14    1    1    0    0    0 -0.13476416481E-02  0.44135975431E-03 -0.38401744114E-03  0.14691514012E-02  0.00000000000E+00 0.  1.
     999901    1    1    0    0    0 -0.11239775386E-01  0.13039802382E-01 -0.11125941419E-02  0.90016532196E+00  0.90000000000E+00 0.  1.
     999903    1    1    0    0    0  0.40502571155E-02 -0.84721509621E-02 -0.19593287253E-02  0.22181543988E-01  0.20000000000E-01 0.  0.
</event>
<event>
 7    1  0.5676831E-066  0.9118800E+02  0.7957747E-01            NaN
     999900   -1    0    0    0    0  0.00000000000E+00  0.00000000000E+00  0.99999998245E-14  0.93827000000E+00  0.93827000000E+00 0. -1.
        -11    1    1    0    0    0  0.51653714317E-02  0.34975996914E-02  0.42008998687E-02  0.75380996502E-02  0.51100000000E-03 0. -1.
        -14    1    1    0    0    0  0.84009001778E-03  0.15199351486E-02 -0.56942441233E-03  0.18276209276E-02  0.00000000000E+00 0. -1.
         12    1    1    0    0    0 -0.82858658184E-03 -0.66151896511E-03 -0.14234137509E-02  0.17748999327E-02  0.00000000000E+00 0.  1.
         14    1    1    0    0    0  0.26934590743E-02  0.12755557263E-02 -0.15734955722E-02  0.33701116468E-02  0.00000000000E+00 0.  1.
     999901    1    1    0    0    0 -0.18503333037E-01 -0.10469872199E-01  0.33494716929E-02  0.90025730240E+00  0.90000000000E+00 0.  1.
     999903    1    1    0    0    0  0.10632999095E-01  0.48383005983E-02 -0.39840378261E-02  0.23501965446E-01  0.20000000000E-01 0.  0.
</event>
<event>
 7    1  0.5676831E-066  0.9118800E+02  0.7957747E-01            NaN
     999900   -1    0    0    0    0  0.00000000000E+00  0.00000000000E+00  0.99999998245E-14  0.93827000000E+00  0.93827000000E+00 0. -1.
        -11    1    1    0    0    0 -0.92418770796E-03 -0.31997169863E-02 -0.17077201016E-02  0.37775310267E-02  0.51100000000E-03 0. -1.
        -14    1    1    0    0    0 -0.19140085815E-02  0.18185229343E-02 -0.33727631544E-03  0.26616178962E-02  0.00000000000E+00 0. -1.
         12    1    1    0    0    0 -0.44549750556E-02 -0.19864126376E-03 -0.91250621965E-03  0.45518049934E-02  0.00000000000E+00 0.  1.
         14    1    1    0    0    0  0.40742936051E-02 -0.32704027393E-02  0.78247827105E-03  0.52827714982E-02  0.00000000000E+00 0.  1.
     999901    1    1    0    0    0  0.22544675879E-02  0.13138870880E-01  0.52100009232E-02  0.90011380206E+00  0.90000000000E+00 0. -1.
     999903    1    1    0    0    0  0.96441015202E-03 -0.82886328253E-02 -0.30349765576E-02  0.21882472524E-01  0.20000000000E-01 0.  0.
</event>
<event>
 7    1  0.5676831E-066  0.9118800E+02  0.7957747E-01            NaN
     999900   -1    0    0    0    0  0.00000000000E+00  0.00000000000E+00  0.99999998245E-14  0.93827000000E+00  0.93827000000E+00 0. -1.
        -11    1    1    0    0    0 -0.75520702936E-03  0.13780553266E-02 -0.21293733726E-02  0.26953155845E-02  0.51100000000E-03 0. -1.
        -14    1    1    0    0    0  0.13823137530E-03 -0.54028307280E-02  0.59458044301E-03  0.54372064235E-02  0.00000000000E+00 0. -1.
         12    1    1    0    0    0  0.37576639600E-02  0.15335986958E-02  0.28816343380E-02  0.49775274840E-02  0.00000000000E+00 0.  1.
         14    1    1    0    0    0 -0.11369469459E-02  0.11364499921E-02 -0.29882791084E-03  0.16350734120E-02  0.00000000000E+00 0.  1.
     999901    1    1    0    0    0  0.16426343031E-02 -0.61475708318E-02 -0.10001912988E-01  0.90007806836E+00  0.90000000000E+00 0.  1.
     999903    1    1    0    0    0 -0.36463756631E-02  0.75022975453E-02  0.89538994908E-02  0.23446808739E-01  0.20000000000E-01 0.  0.
</event>
<event>
 7    1  0.5676831E-066  0.9118800E+02  0.7957747E-01            NaN
     999900   -1    0    0    0    0  0.00000000000E+00  0.00000000000E+00  0.99999998245E-14  0.93827000000E+00  0.93827000000E+00 0. -1.
        -11    1    1    0    0    0  0.24665008139E-02 -0.12336171304E-02  0.43469721553E-03  0.28382248252E-02  0.51100000000E-03 0. -1.
        -14    1    1    0    0    0 -0.53811469411E-02 -0.97881288718E-03  0.40661801074E-02  0.68153237440E-02  0.00000000000E+00 0. -1.
         12    1    1    0    0    0  0.78123748775E-03 -0.20425581323E-02 -0.22592065573E-02  0.31442630305E-02  0.00000000000E+00 0.  1.
         14    1    1    0    0    0 -0.22623311999E-02  0.10187834227E-02  0.18839602966E-02  0.31153440451E-02  0.00000000000E+00 0.  1.
     999901    1    1    0    0    0  0.71697824208E-02 -0.54773211656E-02 -0.35942401810E-03  0.90004529664E+00  0.90000000000E+00 0.  1.
     999903    1    1    0    0    0 -0.27740425815E-02  0.87135258927E-02 -0.37662070441E-02  0.22311547710E-01  0.20000000000E-01 0.  0.
</event>
<event>
 7    1  0.5676831E-066  0.9118800E+02  0.7957747E-01            NaN
     999900   -1    0    0    0    0  0.00000000000E+00  0.00000000000E+00  0.99999998245E-14  0.93827000000E+00  0.93827000000E+00 0. -1.
        -11    1    1    0    0    0  0.57011434693E-03  0.81763775380E-03  0.92206756623E-04  0.11239150106E-02  0.51100000000E-03 0. -1.
        -14    1    1    0    0    0 -0.22247806428E-02 -0.18194821763E-02  0.17274694023E-02  0.33532543647E-02  0.00000000000E+00 0. -1.
         12    1    1    0    0    0  0.27048572816E-02  0.31432220905E-03  0.25119248744E-03  0.27346204546E-02  0.00000000000E+00 0.  1.
         14    1    1    0    0    0 -0.27898692675E-02 -0.37154434284E-02  0.49183841682E-02  0.67659731912E-02  0.00000000000E+00 0.  1.
     999901    1    1    0    0    0 -0.40977006793E-02  0.84769299288E-02  0.46922468933E-02  0.90006147939E+00  0.90000000000E+00 0. -1.
     999903    1    1    0    0    0  0.58373789610E-02 -0.40739642870E-02 -0.11681499708E-01  0.24230757594E-01  0.20000000000E-01 0.  0.
</event>
<event>
 7    1  0.5676831E-066  0.9118800E+02  0.7957747E-01            NaN
     999900   -1    0    0    0    0  0.00000000000E+00  0.00000000000E+00  0.99999998245E-14  0.93827000000E+00  0.93827000000E+00 0.  1.
        -11    1    1    0    0    0  0.16769612621E-02  0.21308024784E-03 -0.56450029657E-03  0.18540182985E-02  0.51100000000E-03 0. -1.
        -14    1    1    0    0    0 -0.10125762640E-02  0.45620686453E-05  0.35128073585E-02  0.36558373926E-02  0.00000000000E+00 0. -1.
         12    1    1    0    0    0  0.42178908605E-03 -0.25255079307E-02  0.20883685107E-03  0.25689899127E-02  0.00000000000E+00 0.  1.
         14    1    1    0    0    0  0.11857667901E-02  0.22708727504E-03 -0.29444116795E-02  0.31823217388E-02  0.00000000000E+00 0.  1.
     999901    1    1    0    0    0  0.11014377149E-01  0.13885371087E-01 -0.22274690216E-02  0.90017725013E+00  0.90000000000E+00 0.  1.
     999903    1    1    0    0    0 -0.13286318023E-01 -0.11804592748E-01  0.20147367881E-02  0.26831582527E-01  0.20000000000E-01 0.  0.
</event>
<event>
 7    1  0.5676831E-066  0.9118800E+02  0.7957747E-01            NaN
     999900   -1    0    0    0    0  0.00000000000E+00  0.00000000000E+00  0.99999998245E-14  0.93827000000E+00  0.93827000000E+00 0.  1.
        -11    1    1    0    0    0  0.22453809882E-02  0.40929381051E-02  0.49058074955E-02  0.67913140332E-02  0.51100000000E-03 0. -1.
        -14    1    1    0    0    0 -0.21963329661E-02 -0.12002437726E-02 -0.51610369438E-03  0.25555482064E-02  0.00000000000E+00 0. -1.
         12    1    1    0    0    0 -0.10120085227E-02  0.15584664579E-02  0.13074483079E-02  0.22720915537E-02  0.00000000000E+00 0.  1.
         14    1    1    0    0    0  0.27816680480E-02 -0.20770197001E-02  0.93522298048E-03  0.35953205680E-02  0.00000000000E+00 0.  1.
     999901    1    1    0    0    0 -0.99396302583E-02  0.48872138017E-02 -0.35618975142E-02  0.90007520143E+00  0.90000000000E+00 0.  1.
     999903    1    1    0    0    0  0.81209227109E-02 -0.72613548920E-02 -0.30704775753E-02  0.22980524213E-01  0.20000000000E-01 0.  0.
</event>
<event>
 7    1  0.5676831E-066  0.9118800E+02  0.7957747E-01            NaN
     999900   -1    0    0    0    0  0.00000000000E+00  0.00000000000E+00  0.99999998245E-14  0.93827000000E+00  0.93827000000E+00 0. -1.
        -11    1    1    0    0    0  0.23559353552E-03 -0.10785239477E-02 -0.25217605369E-02  0.27998420358E-02  0.51100000000E-03 0. -1.
        -14    1    1    0    0    0 -0.37917925355E-02  0.17789813455E-03  0.19490186299E-02  0.42670847189E-02  0.00000000000E+00 0. -1.
         12    1    1    0    0    0 -0.22388974642E-02 -0.15469734475E-02 -0.67162579970E-03  0.28030108664E-02  0.00000000000E+00 0.  1.
         14    1    1    0    0    0 -0.54641686905E-03  0.27421154645E-02 -0.16068691380E-02  0.32248716319E-02  0.00000000000E+00 0.  1.
     999901    1    1    0    0    0  0.11311639765E-01  0.79317246675E-02  0.14271826768E-01  0.90021916803E+00  0.90000000000E+00 0. -1.
     999903    1    1    0    0    0 -0.49701264314E-02 -0.82262408712E-02 -0.11420589924E-01  0.24956022716E-01  0.20000000000E-01 0.  0.
</event>
<event>
 7    1  0.5676831E-066  0.9118800E+02  0.7957747E-01            NaN
     999900   -1    0    0    0    0  0.00000000000E+00  0.00000000000E+00  0.99999998245E-14  0.93827000000E+00  0.93827000000E+00 0. -1.
        -11    1    1    0    0    0  0.39218923188E-03 -0.38555135392E-02  0.14972967514E-04  0.39089822504E-02  0.51100000000E-03 0. -1.
        -14    1    1    0    0    0 -0.36404421689E-03 -0.42405811062E-03  0.26586789496E-02  0.27167861951E-02  0.00000000000E+00 0. -1.
         12    1    1    0    0    0  0.50336441072E-02 -0.16106227428E-03 -0.51826689796E-03  0.50628168673E-02  0.00000000000E+00 0.  1.
         14    1    1    0    0    0 -0.29354562621E-02  0.21869091994E-02 -0.13823884637E-04  0.36605554787E-02  0.00000000000E+00 0.  1.
     999901    1    1    0    0    0 -0.28579319702E-02 -0.40758739765E-02  0.69635138062E-02  0.90004070522E+00  0.90000000000E+00 0. -1.
     999903    1    1    0    0    0  0.73159911007E-03  0.63295987011E-02 -0.91050749407E-02  0.22880153991E-01  0.20000000000E-01 0.  0.
</event>
<event>
 7    1  0.5676831E-066  0.9118800E+02  0.7957747E-01            NaN
     999900   -1    0    0    0    0  0.00000000000E+00  0.00000000000E+00  0.99999998245E-14  0.93827000000E+00  0.93827000000E+00 0. -1.
        -11    1    1    0    0    0 -0.24049474647E-02 -0.42922056174E-02 -0.31798136017E-02  0.58804027847E-02  0.51100000000E-03 0. -1.
        -14    1    1    0    0    0 -0.32233074823E-02 -0.72987212601E-03  0.33110401376E-02  0.46781846093E-02  0.00000000000E+00 0. -1.
         12    1    1    0    0    0 -0.37418829746E-02  0.11110518168E-02 -0.23088747753E-02  0.45350884294E-02  0.00000000000E+00 0.  1.
         14    1    1    0    0    0  0.10371434487E-03 -0.11404272184E-02  0.10861344824E-02  0.15782962395E-02  0.00000000000E+00 0.  1.
     999901    1    1    0    0    0  0.64215325493E-02  0.68284477155E-02  0.82666729227E-02  0.90008677452E+00  0.90000000000E+00 0. -1.
     999903    1    1    0    0    0  0.28448910274E-02 -0.17769945705E-02 -0.71751591658E-02  0.21511253420E-01  0.20000000000E-01 0.  0.
</event>
<event>
 7    1  0.5676831E-066  0.9118800E+02  0.7957747E-01            NaN
     999900   -1    0    0    0    0  0.00000000000E+00  0.00000000000E+00  0.99999998245E-14  0.93827000000E+00  0.93827000000E+00 0. -1.
        -11    1    1    0    0    0 -0.25265485101E-02  0.41954504530E-02 -0.45561178806E-02  0.67085455219E-02  0.51100000000E-03 0. -1.
        -14    1    1    0    0    0  0.91418781860E-03 -0.69395099202E-03 -0.14523395918E-02  0.18511071382E-02  0.00000000000E+00 0. -1.
         12    1    1    0    0    0  0.16177762988E-02 -0.27471232920E-02 -0.19132979461E-02  0.37181441022E-02  0.00000000000E+00 0.  1.
         14    1    1    0    0    0  0.21252820690E-02 -0.61520267999E-03  0.25917817261E-02  0.34077310231E-02  0.00000000000E+00 0.  1.
     999901    1    1    0    0    0  0.33247741132E-02 -0.45084425914E-02 -0.24334081807E-02  0.90002072290E+00  0.90000000000E+00 0.  1.
     999903    1    1    0    0    0 -0.54554717895E-02  0.43692691024E-02  0.77633818732E-02  0.22563749313E-01  0.20000000000E-01 0.  0.
</event>
<event>
 7    1  0.5676831E-066  0.9118800E+02  0.7957747E-01            NaN
     999900   -1    0    0    0    0  0.00000000000E+00  0.00000000000E+00  0.99999998245E-14  0.93827000000E+00  0.93827000000E+00 0.  1.
        -11    1    1    0    0    0 -0.23160955630E-02 -0.93626522444E-03  0.29037628236E-02  0.38644340806E-02  0.51100000000E-03 0. -1.
        -14    1    1    0    0    0  0.11563915383E-02  0.13228063173E-02 -0.21716800199E-02  0.27934301587E-02  0.00000000000E+00 0. -1.
         12    1    1    0    0    0 -0.97199225356E-03  0.83962340120E-03 -0.65735269963E-03  0.14428613823E-02  0.00000000000E+00 0.  1.
         14    1    1    0    0    0  0.61101233175E-02  0.12518424382E-02 -0.19481855697E-02  0.65342286048E-02  0.00000000000E+00 0.  1.
     999901    1    1    0    0    0 -0.97344322702E-02 -0.11715732323E-01  0.75806932176E-02  0.90016081034E+00  0.90000000000E+00 0. -1.
     999903    1    1    0    0    0  0.57560052310E-02  0.92377253906E-02 -0.57072377520E-02  0.23474235437E-01  0.20000000000E-01 0.  0.
</event>
<event>
 7    1  0.5676831E-066  0.9118800E+02  0.7957747E-01            NaN
     999900   -1    0    0    0    0  0.00000000000E+00  0.00000000000E+00  0.99999998245E-14  0.93827000000E+00  0.93827000000E+00 0. -1.
        -11    1    1    0    0    0 -0.14430679333E-02 -0.30700329299E-02  0.19886453492E-03  0.34363083904E-02  0.51100000000E-03 0. -1.
        -14    1    1    0    0    0  0.35246392043E-02  0.25928396558E-02  0.33410083222E-02  0.55052916008E-02  0.00000000000E+00 0. -1.
         12    1    1    0    0    0 -0.20116344075E-02 -0.22631026797E-02 -0.45270063643E-02  0.54462917063E-02  0.00000000000E+00 0.  1.
         14    1    1    0    0    0  0.29520142274E-02 -0.18311109188E-02 -0.33640132948E-03  0.34900603219E-02  0.00000000000E+00 0.  1.
     999901    1    1    0    0    0 -0.36970660408E-02  0.21802941924E-02 -0.17061852559E-02  0.90001185162E+00  0.90000000000E+00 0. -1.
     999903    1    1    0    0    0  0.67511494985E-03  0.23911126802E-02  0.30297200926E-02  0.20380196365E-01  0.20000000000E-01 0.  0.
</event>
<event>
 7    1  0.5676831E-066  0.9118800E+02  0.7957747E-01            NaN
     999900   -1    0    0    0    0  0.00000000000E+00  0.00000000000E+00  0.99999998245E-14  0.93827000000E+00  0.93827000000E+00 0.  1.
        -11    1    1    0    0    0 -0.12461727461E-02  0.33887624640E-03  0.24782396481E-02  0.28408759876E-02  0.51100000000E-03 0. -1.
        -14    1    1    0    0    0  0.57910180060E-03  0.87774271521E-03  0.60942378187E-03  0.12153964437E-02  0.00000000000E+00 0. -1.
         12    1    1    0    0    0 -0.33251723677E-02 -0.39203209808E-03 -0.18360968444E-02  0.38186007990E-02  0.00000000000E+00 0.  1.
         14    1    1    0    0    0  0.60673512635E-02  0.29684991295E-02 -0.96976374757E-03  0.68238684162E-02  0.00000000000E+00 0.  1.
     999901    1    1    0    0    0  0.40442036295E-02 -0.11637747043E-01  0.68885412401E-02  0.90011068472E+00  0.90000000000E+00 0.  1.
     999903    1    1    0    0    0 -0.61193115797E-02  0.78446610501E-02 -0.71703440781E-02  0.23460573637E-01  0.20000000000E-01 0.  0.
</event>
<event>
 7    1  0.5676831E-066  0.9118800E+02  0.7957747E-01            NaN
     999900   -1    0    0    0    0  0.00000000000E+00  0.00000000000E+00  0.99999998245E-14  0.93827000000E+00  0.93827000000E+00 0. -1.
        -11    1    1    0    0    0 -0.65805002423E-03 -0.34060554906E-02  0.57509319216E-03  0.35533219695E-02  0.51100000000E-03 0. -1.
        -14    1    1    0    0    0  0.15583428848E-02  0.12899837854E-02  0.71244613606E-03  0.21447774266E-02  0.00000000000E+00 0. -1.
         12    1    1    0    0    0 -0.35314487789E-02 -0.41596431208E-02 -0.79651667129E-02  0.96549283858E-02  0.00000000000E+00 0.  1.
         14    1    1    0    0    0  0.12047392413E-02  0.11900447142E-02  0.12397825806E-02  0.20987291175E-02  0.00000000000E+00 0.  1.
     999901    1    1    0    0    0 -0.12132550586E-02  0.99059778462E-02  0.48424618123E-02  0.90006835842E+00  0.90000000000E+00 0.  1.
     999903    1    1    0    0    0  0.26396717357E-02 -0.48203077344E-02  0.59538299176E-03  0.20749884685E-01  0.20000000000E-01 0.  0.
</event>
<event>
 7    1  0.5676831E-066  0.9118800E+02  0.7957747E-01            NaN
     999900   -1    0    0    0    0  0.00000000000E+00  0.00000000000E+00  0.99999998245E-14  0.93827000000E+00  0.93827000000E+00 0. -1.
        -11    1    1    0    0    0  0.24449116420E-02 -0.16755007965E-03 -0.60004898536E-02  0.65017432623E-02  0.51100000000E-03 0. -1.
        -14    1    1    0    0    0 -0.12725050356E-02 -0.21534262873E-03  0.83218617096E-03  0.15356351574E-02  0.00000000000E+00 0. -1.
         12    1    1    0    0    0 -0.11752391642E-02 -0.29831225269E-02  0.17383694036E-03  0.32109852671E-02  0.00000000000E+00 0.  1.
         14    1    1    0    0    0  0.31448465767E-02 -0.10294156716E-02  0.18609670329E-02  0.37964397682E-02  0.00000000000E+00 0.  1.
     999901    1    1    0    0    0 -0.87122479693E-02 -0.53245900095E-03  0.11989998191E-01  0.90012218439E+00  0.90000000000E+00 0. -1.
     999903    1    1    0    0    0  0.55702339505E-02  0.49278899078E-02 -0.88564984815E-02  0.23103012153E-01  0.20000000000E-01 0.  0.
</event>
<event>
 7    1  0.5676831E-066  0.9118800E+02  0.7957747E-01            NaN
     999900   -1    0    0    0    0  0.00000000000E+00  0.00000000000E+00  0.99999998245E-14  0.93827000000E+00  0.93827000000E+00 0. -1.
        -11    1    1    0    0    0  0.35000962645E-02 -0.49684447430E-02 -0.36906415535E-02  0.71286796184E-02  0.51100000000E-03 0. -1.
        -14    1    1    0    0    0 -0.22820552663E-02  0.75059382655E-03 -0.14277195602E-03  0.24065641821E-02  0.00000000000E+00 0. -1.
         12    1    1    0    0    0 -0.42318606853E-02 -0.21028488737E-02  0.19409706317E-02  0.51086187212E-02  0.00000000000E+00 0.  1.
         14    1    1    0    0    0  0.23963797330E-03  0.53128917304E-03  0.10621422757E-02  0.12115447815E-02  0.00000000000E+00 0.  1.
     999901    1    1    0    0    0  0.28300316704E-02  0.12261427509E-01  0.82401068605E-02  0.90012568625E+00  0.90000000000E+00 0. -1.
     999903    1    1    0    0    0 -0.55849956541E-04 -0.64720168914E-02 -0.74098062584E-02  0.22288906448E-01  0.20000000000E-01 0.  0.
</event>
<event>
 7    1  0.5676831E-066  0.9118800E+02  0.7957747E-01            NaN
     999900   -1    0    0    0    0  0.00000000000E+00  0.00000000000E+00  0.99999998245E-14  0.93827000000E+00  0.93827000000E+00 0. -1.
        -11    1    1    0    0    0  0.13822361465E-02 -0.13235298808E-02  0.27190190020E-02  0.33639996200E-02  0.51100000000E-03 0. -1.
        -14    1    1    0    0    0 -0.65127982576E-03 -0.14651752528E-02 -0.14044497837E-02  0.21315213177E-02  0.00000000000E+00 0. -1.
         12    1    1    0    0    0 -0.11707654903E-02 -0.21751492180E-02 -0.10699702159E-02  0.26919885246E-02  0.00000000000E+00 0.  1.
         14    1    1    0    0    0  0.49126958957E-02 -0.55455259986E-04  0.29392720484E-02  0.57251180271E-02  0.00000000000E+00 0.  1.
     999901    1    1    0    0    0 -0.37885207368E-02  0.16750236790E-02 -0.16372345519E-01  0.90015843733E+00  0.90000000000E+00 0.  1.
     999903    1    1    0    0    0 -0.68436598925E-03  0.33442859326E-02  0.13188474468E-01  0.24198935183E-01  0.20000000000E-01 0.  0.
</event>
<event>
 7    1  0.5676831E-066  0.9118800E+02  0.7957747E-01            NaN
     999900   -1    0    0    0    0  0.00000000000E+00  0.00000000000E+00  0.99999998245E-14  0.93827000000E+00  0.93827000000E+00 0.  1.
        -11    1    1    0    0    0 -0.11427326767E-02  0.10942833883E-02  0.40989836357E-03  0.17124344580E-02  0.51100000000E-03 0. -1.
        -14    1    1    0    0    0  0.85106744646E-03 -0.41166426251E-02 -0.10634872273E-02  0.43361350744E-02  0.00000000000E+00 0. -1.
         12    1    1    0    0    0 -0.18214905738E-02  0.15698620714E-02 -0.11020726497E-02  0.26451576435E-02  0.00000000000E+00 0.  1.
         14    1    1    0    0    0 -0.39421721697E-03  0.21735429745E-02  0.48526231356E-02  0.53317583940E-02  0.00000000000E+00 0.  1.
     999901    1    1    0    0    0  0.46782549621E-02  0.84435963770E-02 -0.12702023711E-01  0.90014138989E+00  0.90000000000E+00 0. -1.
     999903    1    1    0    0    0 -0.21708819411E-02 -0.91646421862E-02  0.96050620885E-02  0.24103124539E-01  0.20000000000E-01 0.  0.
</event>
<event>
 7    1  0.5676831E-066  0.9118800E+02  0.7957747E-01            NaN
     999900   -1    0    0    0    0  0.00000000000E+00  0.00000000000E+00  0.99999998245E-14  0.93827000000E+00  0.93827000000E+00 0.  1.
        -11    1    1    0    0    0 -0.31071843845E-03 -0.12201800588E-02 -0.55471311488E-03  0.14677237355E-02  0.51100000000E-03 0. -1.
        -14    1    1    0    0    0  0.14164774461E-02  0.59142906726E-03 -0.12192851018E-02  0.19603195802E-02  0.00000000000E+00 0. -1.
         12    1    1    0    0    0  0.22555001982E-02 -0.35459069445E-02  0.23431500813E-02  0.48115579085E-02  0.00000000000E+00 0.  1.
         14    1    1    0    0    0 -0.15330258400E-02 -0.86700802236E-03 -0.38175911920E-02  0.42042685031E-02  0.00000000000E+00 0.  1.
     999901    1    1    0    0    0  0.94220391492E-02  0.13470213680E-01  0.10882275191E-01  0.90021588821E+00  0.90000000000E+00 0.  1.
     999903    1    1    0    0    0 -0.11250272515E-01 -0.84285477215E-02 -0.76338358633E-02  0.25610242059E-01  0.20000000000E-01 0.  0.
</event>
<event>
 7    1  0.5676831E-066  0.9118800E+02  0.7957747E-01            NaN
     999900   -1    0    0    0    0  0.00000000000E+00  0.00000000000E+00  0.99999998245E-14  0.93827000000E+00  0.93827000000E+00 0.  1.
        -11    1    1    0    0    0  0.16778016430E-02 -0.87749931449E-03 -0.15077887465E-02  0.24737767289E-02  0.51100000000E-03 0. -1.
        -14    1    1    0    0    0 -0.14796527330E-03 -0.35712036292E-02  0.16859110322E-02  0.39519216960E-02  0.00000000000E+00 0. -1.
         12    1    1    0    0    0 -0.32463364466E-02  0.35257827855E-02 -0.18890044757E-02  0.51515223463E-02  0.00000000000E+00 0.  1.
         14    1    1    0    0    0 -0.91321716249E-03  0.48478153137E-02  0.32512948530E-02  0.59081466741E-02  0.00000000000E+00 0.  1.
     999901    1    1    0    0    0  0.23192525128E-04 -0.37670123172E-02 -0.64292472092E-02  0.90003084733E+00  0.90000000000E+00 0. -1.
     999903    1    1    0    0    0  0.26065247143E-02 -0.15788283831E-03  0.48888345462E-02  0.20753785228E-01  0.20000000000E-01 0.  0.
</event>
<event>
 7    1  0.5676831E-066  0.9118800E+02  0.7957747E-01            NaN
     999900   -1    0    0    0    0  0.00000000000E+00  0.00000000000E+00  0.99999998245E-14  0.93827000000E+00  0.93827000000E+00 0. -1.
        -11    1    1    0    0    0 -0.36028443293E-04 -0.12611371836E-04  0.37265907062E-02  0.37616560697E-02  0.51100000000E-03 0. -1.
        -14    1    1    0    0    0  0.68290465063E-03 -0.12781879290E-02  0.93924739228E-03  0.17269362489E-02  0.00000000000E+00 0. -1.
         12    1    1    0    0    0  0.13104864009E-02  0.45988015140E-03  0.17084118467E-02  0.22017119245E-02  0.00000000000E+00 0.  1.
         14    1    1    0    0    0  0.57119115687E-02  0.32734789515E-02 -0.60358623710E-02  0.89315862407E-02  0.00000000000E+00 0.  1.
     999901    1    1    0    0    0 -0.53453263361E-02  0.51116481674E-02 -0.25081692314E-02  0.90003388401E+00  0.90000000000E+00 0. -1.
     999903    1    1    0    0    0 -0.23239478408E-02 -0.75542079694E-02  0.21697816571E-02  0.21614225502E-01  0.20000000000E-01 0.  0.
</event>
<event>
 7    1  0.5676831E-066  0.9118800E+02  0.7957747E-01            NaN
     999900   -1    0    0    0    0  0.00000000000E+00  0.00000000000E+00  0.99999998245E-14  0.93827000000E+00  0.93827000000E+00 0.  1.
        -11    1    1    0    0    0 -0.59857642544E-03 -0.31367364236E-02 -0.91990251713E-03  0.33622538228E-02  0.51100000000E-03 0. -1.
        -14    1    1    0    0    0 -0.11298309838E-02  0.21326750603E-02  0.23715123020E-02  0.33836210726E-02  0.00000000000E+00 0. -1.
         12    1    1    0    0    0 -0.26853171773E-02 -0.13743135380E-02 -0.28198961726E-02  0.41293438302E-02  0.00000000000E+00 0.  1.
         14    1    1    0    0    0  0.11750597940E-02 -0.61642400156E-02  0.46409077236E-03  0.62923763980E-02  0.00000000000E+00 0.  1.
     999901    1    1    0    0    0  0.13964754837E-02  0.80622382963E-02 -0.53761310493E-02  0.90005324988E+00  0.90000000000E+00 0. -1.
     999903    1    1    0    0    0  0.18421893089E-02  0.48037662060E-03  0.62803266647E-02  0.21049154999E-01  0.20000000000E-01 0.  0.
</event>
<event>
 7    1  0.5676831E-066  0.9118800E+02  0.7957747E-01            NaN
     999900   -1    0    0    0    0  0.00000000000E+00  0.00000000000E+00  0.99999998245E-14  0.93827000000E+00  0.93827000000E+00 0.  1.
        -11    1    1    0    0    0  0.41763515681E-02 -0.38520992948E-02  0.52950835476E-03  0.57290558991E-02  0.51100000000E-03 0. -1.
        -14    1    1    0    0    0 -0.12433196037E-02  0.55664658895E-03 -0.99553163206E-03  0.16872410297E-02  0.00000000000E+00 0. -1.
         12    1    1    0    0    0 -0.20224657695E-02 -0.19634458447E-02 -0.24230103157E-02  0.37170507615E-02  0.00000000000E+00 0.  1.
         14    1    1    0    0    0 -0.18651303709E-02  0.21460738193E-02 -0.28763362686E-03  0.28578098680E-02  0.00000000000E+00 0.  1.
     999901    1    1    0    0    0  0.44444855728E-02 -0.95544556043E-02  0.67282425700E-02  0.90008683488E+00  0.90000000000E+00 0.  1.
     999903    1    1    0    0    0 -0.34899213968E-02  0.12667280336E-01 -0.35515753501E-02  0.24192007563E-01  0.20000000000E-01 0.  0.
</event>
<event>
 7    1  0.5676831E-066  0.9118800E+02  0.7957747E-01            NaN
     999900   -1    0    0    0    0  0.00000000000E+00  0.00000000000E+00  0.99999998245E-14  0.93827000000E+00  0.93827000000E+00 0.  1.
        -11    1    1    0    0    0 -0.35129483773E-02  0.34197385786E-02  0.15621609522E-02  0.51707722912E-02  0.51100000000E-03 0. -1.
        -14    1    1    0    0    0  0.12980484312E-02 -0.17291931946E-03  0.12084068178E-02  0.17818748155E-02  0.00000000000E+00 0. -1.
         12    1    1    0    0    0 -0.21923955095E-02 -0.40292277786E-02 -0.21228599164E-02  0.50544840278E-02  0.00000000000E+00 0.  1.
         14    1    1    0    0    0  0.25381011410E-02  0.19530299026E-02  0.10948069760E-02  0.33845066874E-02  0.00000000000E+00 0.  1.
     999901    1    1    0    0    0 -0.30214673970E-02 -0.10636363384E-01  0.86106282811E-03  0.90006833236E+00  0.90000000000E+00 0.  1.
     999903    1    1    0    0    0  0.48906617116E-02  0.94657420010E-02 -0.26035776576E-02  0.22810029816E-01  0.20000000000E-01 0.  0.
</event>
<event>
 7    1  0.5676831E-066  0.9118800E+02  0.7957747E-01            NaN
     999900   -1    0    0    0    0  0.00000000000E+00  0.00000000000E+00  0.99999998245E-14  0.93827000000E+00  0.93827000000E+00 0.  1.
        -11    1    1    0    0    0 -0.19048936631E-02  0.17295173879E-02 -0.29928440117E-03  0.26401784818E-02  0.51100000000E-03 0. -1.
        -14    1    1    0    0    0 -0.29594732989E-02  0.85007684527E-03  0.17278421296E-02  0.35308003731E-02  0.00000000000E+00 0. -1.
         12    1    1    0    0    0 -0.27924631628E-03 -0.28359660665E-02  0.21175810599E-02  0.35503283765E-02  0.00000000000E+00 0.  1.
         14    1    1    0    0    0 -0.99535485487E-03  0.21924879175E-03 -0.12241184129E-02  0.15928801614E-02  0.00000000000E+00 0.  1.
     999901    1    1    0    0    0 -0.46950737256E-02 -0.42877293255E-03 -0.16473214364E-01  0.90016309320E+00  0.90000000000E+00 0. -1.
     999903    1    1    0    0    0  0.10834041859E-01  0.46589597420E-03  0.14151193989E-01  0.26792719410E-01  0.20000000000E-01 0.  0.
</event>
<event>
 7    1  0.5676831E-066  0.9118800E+02  0.7957747E-01            NaN
     999900   -1    0    0    0    0  0.00000000000E+00  0.00000000000E+00  0.99999998245E-14  0.93827000000E+00  0.93827000000E+00 0. -1.
        -11    1    1    0    0    0 -0.88735063062E-03  0.22084201160E-02 -0.17669169154E-02  0.30079273489E-02  0.51100000000E-03 0. -1.
        -14    1    1    0    0    0 -0.26614799072E-02  0.23681942891E-02  0.84503030566E-03  0.36614062469E-02  0.00000000000E+00 0. -1.
         12    1    1    0    0    0 -0.16109763335E-02  0.20390283656E-03  0.10013821788E-02  0.19077702645E-02  0.00000000000E+00 0.  1.
         14    1    1    0    0    0  0.25458437609E-02 -0.16064695764E-02 -0.70817339961E-02  0.76949997626E-02  0.00000000000E+00 0.  1.
     999901    1    1    0    0    0 -0.46527694141E-02 -0.45705428444E-02  0.11964510903E-01  0.90010315389E+00  0.90000000000E+00 0. -1.
     999903    1    1    0    0    0  0.72667325244E-02  0.13964951791E-02 -0.49622724758E-02  0.21894742485E-01  0.20000000000E-01 0.  0.
</event>
<event>
 7    1  0.5676831E-066  0.9118800E+02  0.7957747E-01            NaN
     999900   -1    0    0    0    0  0.00000000000E+00  0.00000000000E+00  0.99999998245E-14  0.93827000000E+00  0.93827000000E+00 0.  1.
        -11    1    1    0    0    0 -0.59247468322E-03  0.79276013584E-03  0.13734657064E-02  0.17683393141E-02  0.51100000000E-03 0.  1.
        -14    1    1    0    0    0 -0.22644210049E-02  0.28571255959E-02 -0.46787461572E-02  0.59313939982E-02  0.00000000000E+00 0. -1.
         12    1    1    0    0    0 -0.13826423927E-02 -0.17928316916E-03 -0.16334740755E-02  0.21475753761E-02  0.00000000000E+00 0.  1.
         14    1    1    0    0    0 -0.19833018371E-02 -0.39968428228E-03  0.14421182852E-02  0.24845399677E-02  0.00000000000E+00 0.  1.
     999901    1    1    0    0    0  0.87579112606E-02 -0.10789615553E-01 -0.10575443875E-01  0.90016940452E+00  0.90000000000E+00 0.  1.
     999903    1    1    0    0    0 -0.25350713427E-02  0.77186972722E-02  0.14072080116E-01  0.25768746828E-01  0.20000000000E-01 0.  0.
</event>
<event>
 7    1  0.5676831E-066  0.9118800E+02  0.7957747E-01            NaN
     999900   -1    0    0    0    0  0.00000000000E+00  0.00000000000E+00  0.99999998245E-14  0.93827000000E+00  0.93827000000E+00 0.  1.
        -11    1    1    0    0    0 -0.11932342803E-04 -0.44480614408E-04 -0.83063375762E-03  0.97631672379E-03  0.51100000000E-03 0. -1.
        -14    1    1    0    0    0  0.82245576108E-02 -0.48264471536E-03  0.17704704050E-02  0.84267941277E-02  0.00000000000E+00 0. -1.
         12    1    1    0    0    0  0.66904679207E-03 -0.25279093256E-03  0.71995132763E-03  0.10148185945E-02  0.00000000000E+00 0.  1.
         14    1    1    0    0    0  0.14811911410E-02  0.29535949021E-02 -0.14196809754E-02  0.35962680814E-02  0.00000000000E+00 0.  1.
     999901    1    1    0    0    0 -0.20386882163E-01 -0.78285075693E-02 -0.67134664774E-02  0.90028994281E+00  0.90000000000E+00 0. -1.
     999903    1    1    0    0    0  0.10024018962E-01  0.56548289296E-02  0.64733594777E-02  0.23965859661E-01  0.20000000000E-01 0.  0.
</event>
<event>
 7    1  0.5676831E-066  0.9118800E+02  0.7957747E-01            NaN
     999900   -1    0    0    0    0  0.00000000000E+00  0.00000000000E+00  0.99999998245E-14  0.93827000000E+00  0.93827000000E+00 0. -1.
        -11    1    1    0    0    0  0.65013626495E-03  0.92801255012E-03 -0.30257894162E-02  0.32711476652E-02  0.51100000000E-03 0. -1.
        -14    1    1    0    0    0  0.52435387441E-02  0.22460887611E-02  0.34590290979E-02  0.66711689818E-02  0.00000000000E+00 0. -1.
         12    1    1    0    0    0 -0.34357248437E-03 -0.16791690102E-02 -0.55895656211E-03  0.18027986730E-02  0.00000000000E+00 0.  1.
         14    1    1    0    0    0  0.14318394515E-02  0.14767646584E-02  0.28548383169E-02  0.35186787132E-02  0.00000000000E+00 0.  1.
     999901    1    1    0    0    0 -0.39045660686E-02 -0.12497357706E-01 -0.75513382342E-02  0.90012690899E+00  0.90000000000E+00 0. -1.
     999903    1    1    0    0    0 -0.30773759076E-02  0.95256607462E-02  0.48222167976E-02  0.22879296973E-01  0.20000000000E-01 0.  0.
</event>
<event>
 7    1  0.5676831E-066  0.9118800E+02  0.7957747E-01            NaN
     999900   -1    0    0    0    0  0.00000000000E+00  0.00000000000E+00  0.99999998245E-14  0.93827000000E+00  0.93827000000E+00 0.  1.
        -11    1    1    0    0    0  0.12922866385E-02  0.32495098485E-03 -0.36236014287E-02  0.38945097525E-02  0.51100000000E-03 0. -1.
        -14    1    1    0    0    0  0.41956647839E-02  0.84455529974E-03  0.11814493605E-02  0.44398985602E-02  0.00000000000E+00 0. -1.
         12    1    1    0    0    0 -0.78869065644E-03 -0.26557315472E-02 -0.35898131069E-03  0.27935301293E-02  0.00000000000E+00 0.  1.
         14    1    1    0    0    0 -0.69076035996E-03  0.43298214115E-02  0.23970559768E-02  0.49970371908E-02  0.00000000000E+00 0.  1.
     999901    1    1    0    0    0  0.51581811219E-02 -0.32651674876E-02  0.26635862753E-02  0.90002464569E+00  0.90000000000E+00 0.  1.
     999903    1    1    0    0    0 -0.91666815279E-02  0.42157133872E-03 -0.22595088732E-02  0.22120378681E-01  0.20000000000E-01 0.  0.
</event>
<event>
 7    1  0.5676831E-066  0.9118800E+02  0.7957747E-01            NaN
     999900   -1    0    0    0    0  0.00000000000E+00  0.00000000000E+00  0.99999998245E-14  0.93827000000E+00  0.93827000000E+00 0. -1.
        -11    1    1    0    0    0  0.13696256781E-02 -0.41124776690E-03 -0.12746195312E-02  0.19826182621E-02  0.51100000000E-03 0. -1.
        -14    1    1    0    0    0  0.94926015911E-04 -0.34766470894E-03  0.24653359443E-04  0.36123328539E-03  0.00000000000E+00 0. -1.
         12    1    1    0    0    0 -0.82364296768E-03  0.93466495588E-03  0.15351562784E-02  0.19770410003E-02  0.00000000000E+00 0.  1.
         14    1    1    0    0    0 -0.59096638706E-02 -0.56175278743E-02  0.27235477479E-02  0.85964212796E-02  0.00000000000E+00 0.  1.
     999901    1    1    0    0    0  0.12797860488E-01 -0.78322088742E-02 -0.11350281805E-02  0.90012577844E+00  0.90000000000E+00 0.  1.
     999903    1    1    0    0    0 -0.75291053441E-02  0.13273984268E-01 -0.18737096740E-02  0.25226907729E-01  0.20000000000E-01 0.  0.
</event>
<event>
 7    1  0.5676831E-066  0.9118800E+02  0.7957747E-01            NaN
     999900   -1    0    0    0    0  0.00000000000E+00  0.00000000000E+00  0.99999998245E-14  0.93827000000E+00  0.93827000000E+00 0.  1.
        -11    1    1    0    0    0  0.87019127179E-03 -0.15683065667E-02  0.15751466697E-02  0.24411117073E-02  0.51100000000E-03 0. -1.
        -14    1    1    0    0    0  0.12481150919E-03  0.88374576960E-03  0.32572842263E-03  0.95009657583E-03  0.00000000000E+00 0. -1.
         12    1    1    0    0    0 -0.20243017361E-03 -0.50771195476E-02  0.20257892776E-02  0.54700953440E-02  0.00000000000E+00 0.  1.
         14    1    1    0    0    0  0.27516022109E-03  0.11332202359E-02 -0.59690336327E-02  0.60818799526E-02  0.00000000000E+00 0.  1.
     999901    1    1    0    0    0 -0.73855905396E-03 -0.70669066639E-02 -0.39456215404E-03  0.90002813418E+00  0.90000000000E+00 0. -1.
     999903    1    1    0    0    0 -0.32917377450E-03  0.11695366773E-01  0.24369314168E-02  0.23298682239E-01  0.20000000000E-01 0.  0.
</event>
<event>
 7    1  0.5676831E-066  0.9118800E+02  0.7957747E-01            NaN
     999900   -1    0    0    0    0  0.00000000000E+00  0.00000000000E+00  0.99999998245E-14  0.93827000000E+00  0.93827000000E+00 0.  1.
        -11    1    1    0    0    0 -0.24077545592E-02 -0.23877340919E-02  0.23837338701E-02  0.41763458040E-02  0.51100000000E-03 0. -1.
        -14    1    1    0    0    0 -0.13063272660E-02  0.21276336095E-02 -0.12215044471E-02  0.27794583675E-02  0.00000000000E+00 0. -1.
         12    1    1    0    0    0 -0.88817389743E-03  0.64805528310E-03 -0.56529897824E-03  0.12362813017E-02  0.00000000000E+00 0.  1.
         14    1    1    0    0    0  0.74701981252E-02 -0.24496439847E-02  0.42092921511E-02  0.89175532572E-02  0.00000000000E+00 0.  1.
     999901    1    1    0    0    0 -0.41060884895E-02  0.86361737896E-02 -0.52618355334E-02  0.90006618111E+00  0.90000000000E+00 0.  1.
     999903    1    1    0    0    0  0.12381460868E-02 -0.65744846056E-02  0.45561293751E-03  0.21094180162E-01  0.20000000000E-01 0.  0.
</event>
<event>
 7    1  0.5676831E-066  0.9118800E+02  0.7957747E-01            NaN
     999900   -1    0    0    0    0  0.00000000000E+00  0.00000000000E+00  0.99999998245E-14  0.93827000000E+00  0.93827000000E+00 0. -1.
        -11    1    1    0    0    0  0.36847784703E-02 -0.33543559613E-02  0.35216540472E-02  0.61231090565E-02  0.51100000000E-03 0. -1.
        -14    1    1    0    0    0  0.27422659517E-03 -0.24070154586E-02 -0.31575346939E-02  0.39798177077E-02  0.00000000000E+00 0. -1.
         12    1    1    0    0    0 -0.66483203959E-03  0.33709013138E-02 -0.19526941398E-03  0.34413816197E-02  0.00000000000E+00 0.  1.
         14    1    1    0    0    0  0.20408973328E-02 -0.19208616999E-02 -0.18360887694E-02  0.33505512326E-02  0.00000000000E+00 0.  1.
     999901    1    1    0    0    0 -0.28615561223E-02  0.11026254746E-01  0.51243724025E-04  0.90007209124E+00  0.90000000000E+00 0. -1.
     999903    1    1    0    0    0 -0.24735142364E-02 -0.67149229402E-02  0.16159951060E-02  0.21303049147E-01  0.20000000000E-01 0.  0.
</event>
<event>
 7    1  0.5676831E-066  0.9118800E+02  0.7957747E-01            NaN
     999900   -1    0    0    0    0  0.00000000000E+00  0.00000000000E+00  0.99999998245E-14  0.93827000000E+00  0.93827000000E+00 0.  1.
        -11    1    1    0    0    0 -0.37745538257E-02  0.31446834577E-02  0.17399294588E-02  0.52368660622E-02  0.51100000000E-03 0. -1.
        -14    1    1    0    0    0 -0.55619705667E-02 -0.18265766281E-03 -0.26178198989E-02  0.61499480835E-02  0.00000000000E+00 0. -1.
         12    1    1    0    0    0  0.15905893079E-02  0.34606375724E-05 -0.10112754571E-03  0.15938045999E-02  0.00000000000E+00 0.  1.
         14    1    1    0    0    0 -0.36679088274E-02  0.14631234754E-02 -0.17041380151E-02  0.43009733602E-02  0.00000000000E+00 0.  1.
     999901    1    1    0    0    0  0.61706599498E-02 -0.23429143164E-02 -0.83902290388E-04  0.90002420708E+00  0.90000000000E+00 0. -1.
     999903    1    1    0    0    0  0.52431839620E-02 -0.20856955915E-02  0.27670582913E-02  0.20964200813E-01  0.20000000000E-01 0.  0.
</event>
<event>
 7    1  0.5676831E-066  0.9118800E+02  0.7957747E-01            NaN
     999900   -1    0    0    0    0  0.00000000000E+00  0.00000000000E+00  0.99999998245E-14  0.93827000000E+00  0.93827000000E+00 0. -1.
        -11    1    1    0    0    0 -0.44112298051E-02  0.48181881440E-02 -0.21468243391E-02  0.68952056624E-02  0.51100000000E-03 0. -1.
        -14    1    1    0    0    0  0.10002131282E-02 -0.70657059405E-03 -0.49847182457E-03  0.13221733873E-02  0.00000000000E+00 0. -1.
         12    1    1    0    0    0 -0.12307286051E-02 -0.16526584705E-02 -0.11760688510E-03  0.20639293348E-02  0.00000000000E+00 0.  1.
         14    1    1    0    0    0  0.80059220734E-03 -0.93404086367E-03  0.44189938681E-02  0.45870346656E-02  0.00000000000E+00 0.  1.
     999901    1    1    0    0    0 -0.45893695356E-02 -0.66218522242E-02 -0.85131185018E-02  0.90007632145E+00  0.90000000000E+00 0.  1.
     999903    1    1    0    0    0  0.84305226103E-02  0.50969340084E-02  0.68570276825E-02  0.23325335505E-01  0.20000000000E-01 0.  0.
</event>
<event>
 7    1  0.5676831E-066  0.9118800E+02  0.7957747E-01            NaN
     999900   -1    0    0    0    0  0.00000000000E+00  0.00000000000E+00  0.99999998245E-14  0.93827000000E+00  0.93827000000E+00 0.  1.
        -11    1    1    0    0    0 -0.14763791757E-02  0.39109470549E-02 -0.13511731078E-02  0.44228940869E-02  0.51100000000E-03 0. -1.
        -14    1    1    0    0    0 -0.17581356012E-02 -0.24629230924E-02  0.37678563464E-02  0.48325740965E-02  0.00000000000E+00 0. -1.
         12    1    1    0    0    0 -0.21185360371E-02 -0.17738146105E-02  0.21429376527E-02  0.34966834281E-02  0.00000000000E+00 0.  1.
         14    1    1    0    0    0 -0.13487953257E-02  0.22557745570E-03 -0.28729114795E-02  0.31817847803E-02  0.00000000000E+00 0.  1.
     999901    1    1    0    0    0  0.12003049851E-01  0.37631134324E-02 -0.88644995192E-02  0.90013155349E+00  0.90000000000E+00 0.  1.
     999903    1    1    0    0    0 -0.53012037114E-02 -0.36629002401E-02  0.71777901074E-02  0.22204510123E-01  0.20000000000E-01 0.  0.
</event>
<event>
 7    1  0.5676831E-066  0.9118800E+02  0.7957747E-01            NaN
     999900   -1    0    0    0    0  0.00000000000E+00  0.00000000000E+00  0.99999998245E-14  0.93827000000E+00  0.93827000000E+00 0. -1.
        -11    1    1    0    0    0 -0.31343546077E-02 -0.11251086125E-02  0.26730721608E-03  0.33797370230E-02  0.51100000000E-03 0. -1.
        -14    1    1    0    0    0  0.72015122537E-03 -0.10888484427E-02  0.63108510438E-03  0.14499921129E-02  0.00000000000E+00 0. -1.
         12    1    1    0    0    0  0.49530306651E-02  0.14924518665E-03 -0.67970114467E-02  0.84115486981E-02  0.00000000000E+00 0.  1.
         14    1    1    0    0    0 -0.72727553350E-03 -0.17915749479E-03  0.17292669013E-02  0.18845134984E-02  0.00000000000E+00 0.  1.
     999901    1    1    0    0    0 -0.14082372291E-02  0.72897063047E-02  0.14335495688E-01  0.90014478246E+00  0.90000000000E+00 0. -1.
     999903    1    1    0    0    0 -0.40331452017E-03 -0.50458369414E-02 -0.10166143463E-01  0.22999426209E-01  0.20000000000E-01 0.  0.
</event>
<event>
 7    1  0.5676831E-066  0.9118800E+02  0.7957747E-01            NaN
     999900   -1    0    0    0    0  0.00000000000E+00  0.00000000000E+00  0.99999998245E-14  0.93827000000E+00  0.93827000000E+00 0.  1.
        -11    1    1    0    0    0  0.10708988718E-02 -0.36393010632E-02  0.22934685289E-02  0.44623374497E-02  0.51100000000E-03 0. -1.
        -14    1    1    0    0    0 -0.23652445667E-02 -0.17569937234E-02  0.12899521870E-03  0.29492454240E-02  0.00000000000E+00 0. -1.
         12    1    1    0    0    0  0.19416093058E-03  0.10331191416E-03 -0.22248308605E-02  0.22356753290E-02  0.00000000000E+00 0.  1.
         14    1    1    0    0    0  0.76415400612E-03  0.32399088911E-02  0.45312448941E-02  0.56225546914E-02  0.00000000000E+00 0.  1.
     999901    1    1    0    0    0  0.76802454892E-02 -0.50417760484E-02 -0.92457039704E-02  0.90009437767E+00  0.90000000000E+00 0. -1.
     999903    1    1    0    0    0 -0.73442147309E-02  0.70948500297E-02  0.45168261893E-02  0.22905809433E-01  0.20000000000E-01 0.  0.
</event>
<event>
 7    1  0.5676831E-066  0.9118800E+02  0.7957747E-01            NaN
     999900   -1    0    0    0    0  0.00000000000E+00  0.00000000000E+00  0.99999998245E-14  0.93827000000E+00  0.93827000000E+00 0.  1.
        -11    1    1    0    0    0 -0.10906541741E-02  0.30263243224E-02  0.19007007688E-02  0.37712000536E-02  0.51100000000E-03 0. -1.
        -14    1    1    0    0    0  0.12053612564E-02 -0.18868425172E-03 -0.30201379744E-03  0.12568650839E-02  0.00000000000E+00 0. -1.
         12    1    1    0    0    0 -0.80609967704E-03  0.43820014938E-03 -0.89579367997E-02  0.90048013730E-02  0.00000000000E+00 0.  1.
         14    1    1    0    0    0  0.12391956646E-02 -0.16375907848E-02  0.22432354320E-02  0.30412850371E-02  0.00000000000E+00 0.  1.
     999901    1    1    0    0    0  0.71124860126E-04 -0.75512634096E-02  0.15781308558E-02  0.90003306447E+00  0.90000000000E+00 0.  1.
     999903    1    1    0    0    0 -0.61892792990E-03  0.59130139744E-02  0.35378835406E-02  0.21162783985E-01  0.20000000000E-01 0.  0.
</event>
<event>
 7    1  0.5676831E-066  0.9118800E+02  0.7957747E-01            NaN
     999900   -1    0    0    0    0  0.00000000000E+00  0.00000000000E+00  0.99999998245E-14  0.93827000000E+00  0.93827000000E+00 0. -1.
        -11    1    1    0    0    0 -0.75678913748E-03 -0.64712157838E-03  0.70966341430E-02  0.71843464069E-02  0.51100000000E-03 0. -1.
        -14    1    1    0    0    0  0.13832077787E-02  0.13536731767E-02 -0.12424465219E-02  0.22998626455E-02  0.00000000000E+00 0. -1.
         12    1    1    0    0    0  0.13190910029E-02 -0.54787465019E-03 -0.85332270354E-03  0.16638291206E-02  0.00000000000E+00 0.  1.
         14    1    1    0    0    0  0.73415637506E-03  0.30208662903E-02 -0.27886536145E-02  0.41762671979E-02  0.00000000000E+00 0.  1.
     999901    1    1    0    0    0 -0.13445567822E-01 -0.13650369205E-02 -0.37315634293E-02  0.90010919959E+00  0.90000000000E+00 0. -1.
     999903    1    1    0    0    0  0.10765901803E-01 -0.18145063178E-02  0.15193521263E-02  0.22836495040E-01  0.20000000000E-01 0.  0.
</event>
<event>
 7    1  0.5676831E-066  0.9118800E+02  0.7957747E-01            NaN
     999900   -1    0    0    0    0  0.00000000000E+00  0.00000000000E+00  0.99999998245E-14  0.93827000000E+00  0.93827000000E+00 0.  1.
        -11    1    1    0    0    0 -0.42743259689E-02  0.84269614946E-04 -0.29352707996E-03  0.43155814212E-02  0.51100000000E-03 0. -1.
        -14    1    1    0    0    0  0.42447076421E-04  0.35682208444E-03  0.56887036459E-02  0.57000414845E-02  0.00000000000E+00 0. -1.
         12    1    1    0    0    0 -0.16209806149E-02  0.48513923202E-03  0.50966926873E-03  0.17671165756E-02  0.00000000000E+00 0.  1.
         14    1    1    0    0    0  0.18408685788E-02 -0.10463565490E-02  0.21741797250E-02  0.30349162474E-02  0.00000000000E+00 0.  1.
     999901    1    1    0    0    0 -0.20309115418E-02  0.10151244904E-01 -0.10741506717E-01  0.90012363170E+00  0.90000000000E+00 0. -1.
     999903    1    1    0    0    0  0.60429024703E-02 -0.10031119287E-01  0.26624811576E-02  0.23328712573E-01  0.20000000000E-01 0.  0.
</event>
<event>
 7    1  0.5676831E-066  0.9118800E+02  0.7957747E-01            NaN
     999900   -1    0    0    0    0  0.00000000000E+00  0.00000000000E+00  0.99999998245E-14  0.93827000000E+00  0.93827000000E+00 0.  1.
        -11    1    1    0    0    0  0.24333676216E-02  0.78760830723E-03 -0.30081425734E-03  0.26254932955E-02  0.51100000000E-03 0. -1.
        -14    1    1    0    0    0 -0.36340540880E-02 -0.31933328782E-03  0.27903657260E-03  0.36587134722E-02  0.00000000000E+00 0. -1.
         12    1    1    0    0    0 -0.31724140805E-02 -0.92011777036E-03  0.33336796565E-02  0.46929998787E-02  0.00000000000E+00 0.  1.
         14    1    1    0    0    0 -0.77311366849E-03 -0.37091508533E-02 -0.27495233075E-02  0.46813868901E-02  0.00000000000E+00 0.  1.
     999901    1    1    0    0    0  0.74631845697E-02  0.40965380209E-02  0.95277138703E-02  0.90009069436E+00  0.90000000000E+00 0.  1.
     999903    1    1    0    0    0 -0.23169703544E-02  0.64455583308E-04 -0.10090092535E-01  0.22520712100E-01  0.20000000000E-01 0.  0.
</event>
<event>
 7    1  0.5676831E-066  0.9118800E+02  0.7957747E-01            NaN
     999900   -1    0    0    0    0  0.00000000000E+00  0.00000000000E+00  0.99999998245E-14  0.93827000000E+00  0.93827000000E+00 0. -1.
        -11    1    1    0    0    0  0.38042302735E-03 -0.58867368286E-03  0.10112149375E-04  0.86745699617E-03  0.51100000000E-03 0. -1.
        -14    1    1    0    0    0  0.22059400866E-02  0.24347403892E-02 -0.16851445847E-02  0.36924036480E-02  0.00000000000E+00 0. -1.
         12    1    1    0    0    0  0.26201708486E-02 -0.65723761014E-03  0.21029391887E-02  0.34233915615E-02  0.00000000000E+00 0.  1.
         14    1    1    0    0    0 -0.38575669797E-02  0.28331166228E-02 -0.25010422612E-02  0.54002393645E-02  0.00000000000E+00 0.  1.
     999901    1    1    0    0    0  0.53055012341E-02  0.57649381680E-02  0.10699837346E-01  0.90009769991E+00  0.90000000000E+00 0. -1.
     999903    1    1    0    0    0 -0.66544682170E-02 -0.97868838869E-02 -0.86267018380E-02  0.24788808525E-01  0.20000000000E-01 0.  0.
</event>
<event>
 7    1  0.5676831E-066  0.9118800E+02  0.7957747E-01            NaN
     999900   -1    0    0    0    0  0.00000000000E+00  0.00000000000E+00  0.99999998245E-14  0.93827000000E+00  0.93827000000E+00 0. -1.
        -11    1    1    0    0    0  0.13076396441E-02  0.51149936740E-03  0.83770149547E-04  0.14965598817E-02  0.51100000000E-03 0. -1.
        -14    1    1    0    0    0  0.89126928450E-03 -0.16754099735E-02 -0.33285712693E-02  0.38315461907E-02  0.00000000000E+00 0. -1.
         12    1    1    0    0    0  0.19510155565E-02 -0.22145160487E-03 -0.52209836493E-02  0.55780079582E-02  0.00000000000E+00 0.  1.
         14    1    1    0    0    0  0.41706438520E-02  0.24128848399E-02  0.29911500967E-02  0.56712663746E-02  0.00000000000E+00 0.  1.
     999901    1    1    0    0    0 -0.10862998836E-02  0.10792675118E-02  0.17781741287E-02  0.90000305931E+00  0.90000000000E+00 0. -1.
     999903    1    1    0    0    0 -0.72342684535E-02 -0.21067901408E-02  0.36964605436E-02  0.21689560284E-01  0.20000000000E-01 0.  0.
</event>
<event>
 7    1  0.5676831E-066  0.9118800E+02  0.7957747E-01            NaN
     999900   -1    0    0    0    0  0.00000000000E+00  0.00000000000E+00  0.99999998245E-14  0.93827000000E+00  0.93827000000E+00 0. -1.
        -11    1    1    0    0    0  0.48312363233E-02  0.24251044367E-02  0.16810264167E-02  0.56840959487E-02  0.51100000000E-03 0. -1.
        -14    1    1    0    0    0 -0.95910295577E-03  0.12505078122E-02 -0.36229521271E-02  0.39508771664E-02  0.00000000000E+00 0. -1.
         12    1    1    0    0    0 -0.31349150068E-02  0.19306815709E-02  0.74176570077E-03  0.37557209405E-02  0.00000000000E+00 0.  1.
         14    1    1    0    0    0  0.46146248770E-03 -0.27160855738E-02 -0.97990864617E-03  0.29240877939E-02  0.00000000000E+00 0.  1.
     999901    1    1    0    0    0  0.61754012997E-02 -0.35326958146E-02 -0.28995943201E-02  0.90003279005E+00  0.90000000000E+00 0.  1.
     999903    1    1    0    0    0 -0.73740821481E-02  0.64248756852E-03  0.50796629759E-02  0.21922428099E-01  0.20000000000E-01 0.  0.
</event>
<event>
 7    1  0.5676831E-066  0.9118800E+02  0.7957747E-01            NaN
     999900   -1    0    0    0    0  0.00000000000E+00  0.00000000000E+00  0.99999998245E-14  0.93827000000E+00  0.93827000000E+00 0. -1.
        -11    1    1    0    0    0  0.24232266816E-02  0.21701878203E-02 -0.20660726815E-02  0.38873538623E-02  0.51100000000E-03 0. -1.
        -14    1    1    0    0    0  0.22657764211E-02 -0.26855025554E-02  0.10175670218E-02  0.36580198754E-02  0.00000000000E+00 0. -1.
         12    1    1    0    0    0 -0.39590719927E-02 -0.36872328503E-02 -0.10401280214E-03  0.54111695407E-02  0.00000000000E+00 0.  1.
         14    1    1    0    0    0 -0.16271488850E-02  0.45842566028E-03 -0.14630463546E-02  0.22356815998E-02  0.00000000000E+00 0.  1.
     999901    1    1    0    0    0  0.37657226920E-02  0.11592061124E-01 -0.50211250047E-02  0.90009653274E+00  0.90000000000E+00 0. -1.
     999903    1    1    0    0    0 -0.28685049170E-02 -0.78479391988E-02  0.76366898212E-02  0.22981242385E-01  0.20000000000E-01 0.  0.
</event>
<event>
 7    1  0.5676831E-066  0.9118800E+02  0.7957747E-01            NaN
     999900   -1    0    0    0    0  0.00000000000E+00  0.00000000000E+00  0.99999998245E-14  0.93827000000E+00  0.93827000000E+00 0.  1.
        -11    1    1    0    0    0 -0.45647796642E-02 -0.30845228634E-02 -0.60087642646E-02  0.81681003706E-02  0.51100000000E-03 0. -1.
        -14    1    1    0    0    0  0.30900884641E-02 -0.32462085053E-02 -0.14600986395E-02  0.47136402507E-02  0.00000000000E+00 0. -1.
         12    1    1    0    0    0  0.16940626819E-02  0.26384844664E-02 -0.99448280533E-03  0.32894444364E-02  0.00000000000E+00 0.  1.
         14    1    1    0    0    0 -0.62206192452E-04 -0.14746388650E-03 -0.56764278538E-03  0.58977414321E-03  0.00000000000E+00 0.  1.
     999901    1    1    0    0    0 -0.75268308815E-02  0.19378883419E-02  0.99771982671E-02  0.90008885844E+00  0.90000000000E+00 0.  1.
     999903    1    1    0    0    0  0.73696655921E-02  0.19018224469E-02 -0.94620977233E-03  0.21420182364E-01  0.20000000000E-01 0.  0.
</event>
<event>
 7    1  0.5676831E-066  0.9118800E+02  0.7957747E-01            NaN
     999900   -1    0    0    0    0  0.00000000000E+00  0.00000000000E+00  0.99999998245E-14  0.93827000000E+00  0.93827000000E+00 0.  1.
        -11    1    1    0    0    0  0.84632801205E-03 -0.49570147868E-03 -0.12926274987E-02  0.17011754496E-02  0.51100000000E-03 0. -1.
        -14    1    1    0    0    0 -0.68268611042E-03 -0.26428737594E-03 -0.37725692140E-04  0.73302890139E-03  0.00000000000E+00 0. -1.
         12    1    1    0    0    0 -0.48672345841E-03  0.11673125978E-02 -0.23353630427E-02  0.26558311254E-02  0.00000000000E+00 0.  1.
         14    1    1    0    0    0  0.12990364530E-02 -0.68127765231E-03  0.43398742906E-02  0.45810636105E-02  0.00000000000E+00 0.  1.
     999901    1    1    0    0    0 -0.13233683620E-01 -0.67396621360E-02  0.13663430236E-01  0.90022621754E+00  0.90000000000E+00 0.  1.
     999903    1    1    0    0    0  0.12257728723E-01  0.70136160452E-02 -0.14337588293E-01  0.28372683369E-01  0.20000000000E-01 0.  0.
</event>
<event>
 7    1  0.5676831E-066  0.9118800E+02  0.7957747E-01            NaN
     999900   -1    0    0    0    0  0.00000000000E+00  0.00000000000E+00  0.99999998245E-14  0.93827000000E+00  0.93827000000E+00 0.  1.
        -11    1    1    0    0    0 -0.24193703681E-02 -0.13836145332E-02  0.10702886096E-02  0.30289240437E-02  0.51100000000E-03 0. -1.
        -14    1    1    0    0    0 -0.14991526439E-02 -0.14029712375E-02 -0.19368819489E-02  0.28226403644E-02  0.00000000000E+00 0. -1.
         12    1    1    0    0    0 -0.29891063963E-03  0.22825708519E-03 -0.17024382037E-02  0.17434863650E-02  0.00000000000E+00 0.  1.
         14    1    1    0    0    0 -0.46137446262E-02 -0.18332133434E-02  0.73201292063E-02  0.88448630422E-02  0.00000000000E+00 0.  1.
     999901    1    1    0    0    0  0.11814884339E-01  0.83304344138E-02  0.21026107299E-02  0.90011855253E+00  0.90000000000E+00 0.  1.
     999903    1    1    0    0    0 -0.29837060613E-02 -0.39388923849E-02 -0.68537083931E-02  0.21711533659E-01  0.20000000000E-01 0.  0.
</event>
<event>
 7    1  0.5676831E-066  0.9118800E+02  0.7957747E-01            NaN
     999900   -1    0    0    0    0  0.00000000000E+00  0.00000000000E+00  0.99999998245E-14  0.93827000000E+00  0.93827000000E+00 0.  1.
        -11    1    1    0    0    0  0.46455577657E-02 -0.66028567051E-02 -0.21016185417E-02  0.83580407464E-02  0.51100000000E-03 0. -1.
        -14    1    1    0    0    0 -0.11856406317E-02 -0.12235849168E-02  0.31422218482E-02  0.35744177007E-02  0.00000000000E+00 0. -1.
         12    1    1    0    0    0  0.12926362058E-02 -0.16153058364E-03  0.11446379251E-03  0.13077088551E-02  0.00000000000E+00 0.  1.
         14    1    1    0    0    0 -0.66117726037E-03 -0.42336201058E-03 -0.88615187196E-03  0.11839154961E-02  0.00000000000E+00 0.  1.
     999901    1    1    0    0    0  0.41481101137E-02  0.49596236882E-02 -0.95062242878E-02  0.90007342644E+00  0.90000000000E+00 0. -1.
     999903    1    1    0    0    0 -0.82394861931E-02  0.34517105280E-02  0.92373090608E-02  0.23772490761E-01  0.20000000000E-01 0.  0.
</event>
<event>
 7    1  0.5676831E-066  0.9118800E+02  0.7957747E-01            NaN
     999900   -1    0    0    0    0  0.00000000000E+00  0.00000000000E+00  0.99999998245E-14  0.93827000000E+00  0.93827000000E+00 0.  1.
        -11    1    1    0    0    0 -0.48066357870E-02  0.29250880996E-02 -0.29311296557E-02  0.63649454073E-02  0.51100000000E-03 0. -1.
        -14    1    1    0    0    0 -0.28841311269E-02 -0.85383237674E-03 -0.51667483386E-03  0.30519166058E-02  0.00000000000E+00 0. -1.
         12    1    1    0    0    0 -0.15572615087E-02 -0.15180003682E-02  0.45321294410E-02  0.50268862922E-02  0.00000000000E+00 0.  1.
         14    1    1    0    0    0  0.69817163494E-03  0.15089983323E-02  0.70777944145E-04  0.16641902284E-02  0.00000000000E+00 0.  1.
     999901    1    1    0    0    0 -0.28619655983E-03 -0.51467222738E-02  0.54950455483E-03  0.90001492911E+00  0.90000000000E+00 0.  1.
     999903    1    1    0    0    0  0.88360533475E-02  0.30844685869E-02 -0.17046074505E-02  0.22147132360E-01  0.20000000000E-01 0.  0.
</event>
<event>
 7    1  0.5676831E-066  0.9118800E+02  0.7957747E-01            NaN
     999900   -1    0    0    0    0  0.00000000000E+00  0.00000000000E+00  0.99999998245E-14  0.93827000000E+00  0.93827000000E+00 0.  1.
        -11    1    1    0    0    0 -0.37719194239E-02  0.32456108047E-02  0.16290020153E-03  0.50048999103E-02  0.51100000000E-03 0. -1.
        -14    1    1    0    0    0  0.12508439289E-02 -0.47100307738E-03  0.25224109315E-02  0.28546473233E-02  0.00000000000E+00 0. -1.
         12    1    1    0    0    0 -0.36744489886E-02  0.94999482572E-03  0.17902751741E-02  0.41963258617E-02  0.00000000000E+00 0.  1.
         14    1    1    0    0    0 -0.21986264521E-03 -0.40735202775E-02 -0.13449634788E-03  0.40816658734E-02  0.00000000000E+00 0.  1.
     999901    1    1    0    0    0  0.14197762144E-02 -0.50019527066E-02 -0.10093726401E-01  0.90007161860E+00  0.90000000000E+00 0. -1.
     999903    1    1    0    0    0  0.49956109145E-02  0.53508704311E-02  0.57526364417E-02  0.22060842432E-01  0.20000000000E-01 0.  0.
</event>
<event>
 7    1  0.5676831E-066  0.9118800E+02  0.7957747E-01            NaN
     999900   -1    0    0    0    0  0.00000000000E+00  0.00000000000E+00  0.99999998245E-14  0.93827000000E+00  0.93827000000E+00 0.  1.
        -11    1    1    0    0    0 -0.13918651952E-02 -0.20296095430E-02 -0.30104368753E-02  0.39217922942E-02  0.51100000000E-03 0. -1.
        -14    1    1    0    0    0  0.21425750566E-02 -0.14157424923E-02 -0.32073802082E-02  0.41088006130E-02  0.00000000000E+00 0. -1.
         12    1    1    0    0    0 -0.54317161515E-03 -0.21634343811E-02  0.11681234705E-02  0.25179349013E-02  0.00000000000E+00 0.  1.
         14    1    1    0    0    0  0.70486405044E-03  0.69157779934E-03  0.37462966064E-02  0.38742549536E-02  0.00000000000E+00 0.  1.
     999901    1    1    0    0    0  0.76900253957E-02  0.95859981266E-02  0.94603297256E-02  0.90013361546E+00  0.90000000000E+00 0.  1.
     999903    1    1    0    0    0 -0.86024276924E-02 -0.46687895095E-02 -0.81569327189E-02  0.23713601773E-01  0.20000000000E-01 0.  0.
</event>
<event>
 7    1  0.5676831E-066  0.9118800E+02  0.7957747E-01            NaN
     999900   -1    0    0    0    0  0.00000000000E+00  0.00000000000E+00  0.99999998245E-14  0.93827000000E+00  0.93827000000E+00 0.  1.
        -11    1    1    0    0    0  0.51717565079E-02  0.79283367677E-03 -0.30910015429E-02  0.60984475200E-02  0.51100000000E-03 0. -1.
        -14    1    1    0    0    0 -0.19823085889E-02  0.16808327624E-02  0.49083661882E-02  0.55539899851E-02  0.00000000000E+00 0. -1.
         12    1    1    0    0    0 -0.26478891852E-03 -0.13883254664E-03 -0.22442734532E-03  0.37383857573E-03  0.00000000000E+00 0.  1.
         14    1    1    0    0    0  0.28339272479E-02  0.36671073217E-03 -0.18809171745E-02  0.34210334440E-02  0.00000000000E+00 0.  1.
     999901    1    1    0    0    0 -0.10108740972E-01 -0.12407759347E-01  0.13913467463E-02  0.90014336357E+00  0.90000000000E+00 0.  1.
     999903    1    1    0    0    0  0.43501547234E-02  0.97062147222E-02 -0.11033668717E-02  0.22679326904E-01  0.20000000000E-01 0.  0.
</event>
<event>
 7    1  0.5676831E-066  0.9118800E+02  0.7957747E-01            NaN
     999900   -1    0    0    0    0  0.00000000000E+00  0.00000000000E+00  0.99999998245E-14  0.93827000000E+00  0.93827000000E+00 0. -1.
        -11    1    1    0    0    0  0.58807706220E-03  0.70128166203E-03 -0.31018189895E-03  0.10931442773E-02  0.51100000000E-03 0. -1.
        -14    1    1    0    0    0 -0.12542612377E-02 -0.50727991849E-03  0.54111330027E-03  0.14571574286E-02  0.00000000000E+00 0. -1.
         12    1    1    0    0    0 -0.54831184445E-02 -0.40324705092E-02 -0.21159705667E-03  0.68095653017E-02  0.00000000000E+00 0.  1.
         14    1    1    0    0    0 -0.12820337547E-02  0.69049531108E-03 -0.36136669418E-02  0.38960214436E-02  0.00000000000E+00 0.  1.
     999901    1    1    0    0    0  0.42558270162E-02  0.71179884845E-02 -0.10368869441E-01  0.90009793427E+00  0.90000000000E+00 0.  1.
     999903    1    1    0    0    0  0.31755093585E-02 -0.39700150299E-02  0.13963202038E-01  0.24916177279E-01  0.20000000000E-01 0.  0.
</event>
<event>
 7    1  0.5676831E-066  0.9118800E+02  0.7957747E-01            NaN
     999900   -1    0    0    0    0  0.00000000000E+00  0.00000000000E+00  0.99999998245E-14  0.93827000000E+00  0.93827000000E+00 0.  1.
        -11    1    1    0    0    0 -0.17417532925E-02 -0.15377526658E-02  0.10048503793E-02  0.25824858330E-02  0.51100000000E-03 0. -1.
        -14    1    1    0    0    0  0.43049916250E-02 -0.29850848447E-02 -0.89905446979E-03  0.53152594820E-02  0.00000000000E+00 0. -1.
         12    1    1    0    0    0 -0.40707580433E-02 -0.12736894049E-02 -0.36346006406E-04  0.42655218649E-02  0.00000000000E+00 0.  1.
         14    1    1    0    0    0  0.16217334699E-02 -0.14795957073E-02 -0.39995861651E-02  0.45624458788E-02  0.00000000000E+00 0.  1.
     999901    1    1    0    0    0  0.76424660689E-02  0.65110587456E-02  0.30509829629E-02  0.90006116996E+00  0.90000000000E+00 0.  1.
     999903    1    1    0    0    0 -0.77566798279E-02  0.76506387708E-03  0.87915329918E-03  0.21483116981E-01  0.20000000000E-01 0.  0.
</event>
<event>
 7    1  0.5676831E-066  0.9118800E+02  0.7957747E-01            NaN
     999900   -1    0    0    0    0  0.00000000000E+00  0.00000000000E+00  0.99999998245E-14  0.93827000000E+00  0.93827000000E+00 0.  1.
        -11    1    1    0    0    0 -0.35321239300E-03 -0.14301935599E-03  0.46548983763E-02  0.46983415611E-02  0.51100000000E-03 0. -1.
        -14    1    1    0    0    0  0.86241534374E-03  0.23798903732E-02 -0.82998543106E-03  0.26639283454E-02  0.00000000000E+00 0. -1.
         12    1    1    0    0    0  0.24202739816E-03 -0.29644585944E-02  0.46244909026E-02  0.54984095999E-02  0.00000000000E+00 0.  1.
         14    1    1    0    0    0 -0.46286534324E-03  0.53599690516E-03 -0.37103032899E-02  0.37772857333E-02  0.00000000000E+00 0.  1.
     999901    1    1    0    0    0  0.51969149415E-02 -0.52836708376E-02 -0.22008546977E-02  0.90003320431E+00  0.90000000000E+00 0. -1.
     999903    1    1    0    0    0 -0.54852799472E-02  0.54752615097E-02 -0.25382458603E-02  0.21598830449E-01  0.20000000000E-01 0.  0.
</event>
<event>
 7    1  0.5676831E-066  0.9118800E+02  0.7957747E-01            NaN
     999900   -1    0    0    0    0  0.00000000000E+00  0.00000000000E+00  0.99999998245E-14  0.93827000000E+00  0.93827000000E+00 0.  1.
        -11    1    1    0    0    0 -0.33503178322E-02  0.33441797683E-02  0.36708993160E-02  0.60120537828E-02  0.51100000000E-03 0. -1.
        -14    1    1    0    0    0 -0.23386808377E-03 -0.52463782094E-02  0.18554854277E-03  0.52548650656E-02  0.00000000000E+00 0. -1.
         12    1    1    0    0    0 -0.57526397597E-03  0.12221909296E-02 -0.35832111549E-02  0.38293709002E-02  0.00000000000E+00 0.  1.
         14    1    1    0    0    0  0.47581194419E-04  0.97698867155E-03  0.36562534560E-03  0.10442474456E-02  0.00000000000E+00 0.  1.
     999901    1    1    0    0    0  0.97207971723E-02 -0.58816636654E-02  0.42049350817E-02  0.90008153483E+00  0.90000000000E+00 0. -1.
     999903    1    1    0    0    0 -0.56089284748E-02  0.55846825053E-02 -0.48437971311E-02  0.22047927974E-01  0.20000000000E-01 0.  0.
</event>
<event>
 7    1  0.5676831E-066  0.9118800E+02  0.7957747E-01            NaN
     999900   -1    0    0    0    0  0.00000000000E+00  0.00000000000E+00  0.99999998245E-14  0.93827000000E+00  0.93827000000E+00 0. -1.
        -11    1    1    0    0    0  0.32058811851E-02  0.16117876913E-02 -0.23854188117E-02  0.43389950037E-02  0.51100000000E-03 0. -1.
        -14    1    1    0    0    0 -0.43147520148E-02 -0.39306978227E-02  0.50398863274E-04  0.58369521472E-02  0.00000000000E+00 0. -1.
         12    1    1    0    0    0  0.10293597137E-02  0.15273177468E-02 -0.36227412594E-02  0.40640540292E-02  0.00000000000E+00 0.  1.
         14    1    1    0    0    0  0.67244618834E-03 -0.86283716770E-03  0.21327229352E-02  0.23969102971E-02  0.00000000000E+00 0.  1.
     999901    1    1    0    0    0  0.28130262763E-03 -0.43414518743E-02 -0.17202034432E-02  0.90001215905E+00  0.90000000000E+00 0.  1.
     999903    1    1    0    0    0 -0.87423769991E-03  0.59958814266E-02  0.55452417159E-02  0.21620929474E-01  0.20000000000E-01 0.  0.
</event>
<event>
 7    1  0.5676831E-066  0.9118800E+02  0.7957747E-01            NaN
     999900   -1    0    0    0    0  0.00000000000E+00  0.00000000000E+00  0.99999998245E-14  0.93827000000E+00  0.93827000000E+00 0.  1.
        -11    1    1    0    0    0 -0.25895759324E-02  0.45547369926E-03  0.52202780346E-02  0.58673489379E-02  0.51100000000E-03 0. -1.
        -14    1    1    0    0    0  0.17623318362E-02 -0.19257943965E-02 -0.34053385839E-02  0.42907841275E-02  0.00000000000E+00 0. -1.
         12    1    1    0    0    0 -0.81453183086E-03  0.29852413585E-03 -0.17596458849E-03  0.88517924714E-03  0.00000000000E+00 0.  1.
         14    1    1    0    0    0 -0.18213297469E-02 -0.34369041636E-03  0.25021979566E-02  0.31138978408E-02  0.00000000000E+00 0.  1.
     999901    1    1    0    0    0  0.14051159009E-02  0.13853935019E-01 -0.83723606085E-02  0.90014665599E+00  0.90000000000E+00 0.  1.
     999903    1    1    0    0    0  0.20579897731E-02 -0.12338448041E-01  0.42311877898E-02  0.23966133858E-01  0.20000000000E-01 0.  0.
</event>
<event>
 7    1  0.5676831E-066  0.9118800E+02  0.7957747E-01            NaN
     999900   -1    0    0    0    0  0.00000000000E+00  0.00000000000E+00  0.99999998245E-14  0.93827000000E+00  0.93827000000E+00 0. -1.
        -11    1    1    0    0    0  0.10751007124E-02  0.46371658438E-03  0.77333224610E-03  0.14933313012E-02  0.51100000000E-03 0. -1.
        -14    1    1    0    0    0 -0.36378896884E-02  0.94737918578E-03  0.39308323527E-02  0.54390451085E-02  0.00000000000E+00 0. -1.
         12    1    1    0    0    0 -0.34266094047E-02  0.11420802631E-02 -0.55604705857E-02  0.66305981988E-02  0.00000000000E+00 0.  1.
         14    1    1    0    0    0 -0.14866216108E-02 -0.19517961498E-02 -0.32794805615E-03  0.24752983561E-02  0.00000000000E+00 0.  1.
     999901    1    1    0    0    0  0.12413870938E-02  0.12564514588E-02 -0.59554104789E-02  0.90002143676E+00  0.90000000000E+00 0.  1.
     999903    1    1    0    0    0  0.62346328978E-02 -0.18578313423E-02  0.71396645219E-02  0.22210290276E-01  0.20000000000E-01 0.  0.
</event>
<event>
 7    1  0.5676831E-066  0.9118800E+02  0.7957747E-01            NaN
     999900   -1    0    0    0    0  0.00000000000E+00  0.00000000000E+00  0.99999998245E-14  0.93827000000E+00  0.93827000000E+00 0.  1.
        -11    1    1    0    0    0  0.61702898468E-03  0.16952996033E-03 -0.17115267104E-02  0.18973428408E-02  0.51100000000E-03 0. -1.
        -14    1    1    0    0    0 -0.14519467156E-03  0.41405448868E-02 -0.53300974412E-03  0.41772350712E-02  0.00000000000E+00 0. -1.
         12    1    1    0    0    0  0.35300263574E-02 -0.62302787406E-03 -0.20487663496E-02  0.41287641457E-02  0.00000000000E+00 0.  1.
         14    1    1    0    0    0 -0.23127746553E-02 -0.44306878470E-03  0.24884680780E-03  0.23679445280E-02  0.00000000000E+00 0.  1.
     999901    1    1    0    0    0 -0.52515078186E-02  0.12184328055E-01  0.59610641278E-02  0.90011753148E+00  0.90000000000E+00 0.  1.
     999903    1    1    0    0    0  0.35624218034E-02 -0.15428306243E-01 -0.19166081316E-02  0.25581181938E-01  0.20000000000E-01 0.  0.
</event>
<event>
 7    1  0.5676831E-066  0.9118800E+02  0.7957747E-01            NaN
     999900   -1    0    0    0    0  0.00000000000E+00  0.00000000000E+00  0.99999998245E-14  0.93827000000E+00  0.93827000000E+00 0.  1.
        -11    1    1    0    0    0  0.18600572581E-02 -0.22540891178E-02 -0.92862840162E-03  0.31087300402E-02  0.51100000000E-03 0. -1.
        -14    1    1    0    0    0 -0.12703067552E-02  0.46480301675E-03 -0.37986825734E-03  0.14049985728E-02  0.00000000000E+00 0. -1.
         12    1    1    0    0    0 -0.45006742164E-02 -0.47643247799E-03 -0.16271224836E-02  0.48094265651E-02  0.00000000000E+00 0.  1.
         14    1    1    0    0    0  0.51725084678E-03 -0.24333872017E-02  0.16747506682E-02  0.29989517356E-02  0.00000000000E+00 0.  1.
     999901    1    1    0    0    0  0.44955587007E-02 -0.20981125074E-02  0.16018724758E-01  0.90015621515E+00  0.90000000000E+00 0.  1.
     999903    1    1    0    0    0 -0.11018858340E-02  0.67972182881E-02 -0.14757856284E-01  0.25791677940E-01  0.20000000000E-01 0.  0.
</event>
<event>
 7    1  0.5676831E-066  0.9118800E+02  0.7957747E-01            NaN
     999900   -1    0    0    0    0  0.00000000000E+00  0.00000000000E+00  0.99999998245E-14  0.93827000000E+00  0.93827000000E+00 0. -1.
        -11    1    1    0    0    0 -0.26538759326E-02 -0.98705534488E-03 -0.50289757429E-03  0.29208496520E-02  0.51100000000E-03 0. -1.
        -14    1    1    0    0    0  0.16162648453E-02 -0.45453087860E-04  0.24991379143E-02  0.29765866942E-02  0.00000000000E+00 0. -1.
         12    1    1    0    0    0 -0.46920609699E-02  0.26187844873E-02 -0.24085892198E-02  0.58885287098E-02  0.00000000000E+00 0.  1.
         14    1    1    0    0    0  0.43797650290E-02  0.12111096663E-02 -0.11020615771E-02  0.46758601404E-02  0.00000000000E+00 0.  1.
     999901    1    1    0    0    0 -0.68873538214E-03 -0.10643969725E-01  0.41051307488E-02  0.90007256404E+00  0.90000000000E+00 0. -1.
     999903    1    1    0    0    0  0.20386424103E-02  0.78465840044E-02 -0.25907202920E-02  0.21735610759E-01  0.20000000000E-01 0.  0.
</event>
<event>
 7    1  0.5676831E-066  0.9118800E+02  0.7957747E-01            NaN
     999900   -1    0    0    0    0  0.00000000000E+00  0.00000000000E+00  0.99999998245E-14  0.93827000000E+00  0.93827000000E+00 0.  1.
        -11    1    1    0    0    0 -0.14062696978E-02 -0.23991564662E-02 -0.36063515933E-02  0.45826235964E-02  0.51100000000E-03 0. -1.
        -14    1    1    0    0    0  0.14013090666E-02  0.17523588664E-02  0.73407530238E-04  0.22449537550E-02  0.00000000000E+00 0. -1.
         12    1    1    0    0    0 -0.84071871798E-03  0.44894612614E-03  0.18401760925E-02  0.20723437549E-02  0.00000000000E+00 0.  1.
         14    1    1    0    0    0  0.18601933573E-02 -0.14395173602E-02 -0.18240714825E-02  0.29765359615E-02  0.00000000000E+00 0.  1.
     999901    1    1    0    0    0 -0.16825223888E-01  0.69010917044E-02  0.63615182256E-02  0.90020618868E+00  0.90000000000E+00 0.  1.
     999903    1    1    0    0    0  0.15810709880E-01 -0.52637228705E-02 -0.28446787727E-02  0.26187354251E-01  0.20000000000E-01 0.  0.
</event>
<event>
 7    1  0.5676831E-066  0.9118800E+02  0.7957747E-01            NaN
     999900   -1    0    0    0    0  0.00000000000E+00  0.00000000000E+00  0.99999998245E-14  0.93827000000E+00  0.93827000000E+00 0.  1.
        -11    1    1    0    0    0  0.85149470260E-03 -0.34082498092E-02 -0.16562336279E-02  0.39173257231E-02  0.51100000000E-03 0. -1.
        -14    1    1    0    0    0  0.12985577154E-02  0.17971382021E-02 -0.45883918267E-03  0.22641756233E-02  0.00000000000E+00 0. -1.
         12    1    1    0    0    0 -0.84865976831E-03 -0.45596668318E-03 -0.42680913748E-02  0.43754694608E-02  0.00000000000E+00 0.  1.
         14    1    1    0    0    0  0.37574125133E-02 -0.28956537442E-02  0.27860905301E-02  0.55013870836E-02  0.00000000000E+00 0.  1.
     999901    1    1    0    0    0 -0.87262428225E-02 -0.12019917564E-03  0.10626685391E-01  0.90010504287E+00  0.90000000000E+00 0.  1.
     999903    1    1    0    0    0  0.36674376595E-02  0.50829312102E-02 -0.70296117352E-02  0.22106599237E-01  0.20000000000E-01 0.  0.
</event>
<event>
 7    1  0.5676831E-066  0.9118800E+02  0.7957747E-01            NaN
     999900   -1    0    0    0    0  0.00000000000E+00  0.00000000000E+00  0.99999998245E-14  0.93827000000E+00  0.93827000000E+00 0. -1.
        -11    1    1    0    0    0  0.54046033311E-04  0.55468943923E-03  0.70911847950E-03  0.10366153412E-02  0.51100000000E-03 0. -1.
        -14    1    1    0    0    0  0.52583767004E-02  0.19219156853E-02 -0.34709651054E-02  0.65872516414E-02  0.00000000000E+00 0. -1.
         12    1    1    0    0    0  0.42866748841E-02 -0.42490725600E-03  0.19502487059E-02  0.47285936337E-02  0.00000000000E+00 0.  1.
         14    1    1    0    0    0  0.23080442391E-02  0.31966849302E-02  0.13652635313E-02  0.41725061129E-02  0.00000000000E+00 0.  1.
     999901    1    1    0    0    0 -0.40953023957E-02 -0.24148852538E-02  0.12379718042E-02  0.90001340865E+00  0.90000000000E+00 0. -1.
     999903    1    1    0    0    0 -0.78118394611E-02 -0.28334975449E-02 -0.17916374154E-02  0.21731624622E-01  0.20000000000E-01 0.  0.
</event>
<event>
 7    1  0.5676831E-066  0.9118800E+02  0.7957747E-01            NaN
     999900   -1    0    0    0    0  0.00000000000E+00  0.00000000000E+00  0.99999998245E-14  0.93827000000E+00  0.93827000000E+00 0. -1.
        -11    1    1    0    0    0 -0.24279946522E-02 -0.81246672109E-03  0.36075390128E-03  0.26356260321E-02  0.51100000000E-03 0. -1.
        -14    1    1    0    0    0  0.23615194007E-02 -0.28241310804E-02 -0.50145793634E-02  0.62208115573E-02  0.00000000000E+00 0. -1.
         12    1    1    0    0    0 -0.25834257521E-03 -0.30598152963E-02  0.81015273976E-03  0.31757767546E-02  0.00000000000E+00 0.  1.
         14    1    1    0    0    0 -0.25192117739E-02  0.44497429429E-03 -0.62236596226E-03  0.26328253788E-02  0.00000000000E+00 0.  1.
     999901    1    1    0    0    0  0.79981239618E-02  0.40228469468E-02  0.15303449526E-01  0.90017462131E+00  0.90000000000E+00 0. -1.
     999903    1    1    0    0    0 -0.51540943612E-02  0.22285918567E-02 -0.10837410841E-01  0.23430338966E-01  0.20000000000E-01 0.  0.
</event>
<event>
 7    1  0.5676831E-066  0.9118800E+02  0.7957747E-01            NaN
     999900   -1    0    0    0    0  0.00000000000E+00  0.00000000000E+00  0.99999998245E-14  0.93827000000E+00  0.93827000000E+00 0. -1.
        -11    1    1    0    0    0  0.69410814676E-02 -0.83273788097E-03  0.18392539739E-02  0.72467951881E-02  0.51100000000E-03 0. -1.
        -14    1    1    0    0    0 -0.41020826542E-04 -0.31611001221E-03  0.49032299306E-03  0.58482893700E-03  0.00000000000E+00 0. -1.
         12    1    1    0    0    0 -0.38885717002E-02 -0.29611508059E-03  0.44219521969E-03  0.39248198202E-02  0.00000000000E+00 0.  1.
         14    1    1    0    0    0 -0.30433196004E-03 -0.18960165281E-02  0.32602290959E-02  0.37837270481E-02  0.00000000000E+00 0.  1.
     999901    1    1    0    0    0 -0.66415749428E-03  0.13631729749E-01 -0.68653239979E-02  0.90012965612E+00  0.90000000000E+00 0.  1.
     999903    1    1    0    0    0 -0.20429994865E-02 -0.10290750247E-01  0.83332271532E-03  0.22600172882E-01  0.20000000000E-01 0.  0.
</event>
<event>
 7    1  0.5676831E-066  0.9118800E+02  0.7957747E-01            NaN
     999900   -1    0    0    0    0  0.00000000000E+00  0.00000000000E+00  0.99999998245E-14  0.93827000000E+00  0.93827000000E+00 0.  1.
        -11    1    1    0    0    0  0.11841879356E-02  0.14524151261E-02  0.96724284751E-03  0.21699056411E-02  0.51100000000E-03 0. -1.
        -14    1    1    0    0    0 -0.30119921040E-02 -0.16764006631E-02  0.10349488456E-03  0.34486412990E-02  0.00000000000E+00 0. -1.
         12    1    1    0    0    0  0.13554184686E-02  0.58017108968E-03  0.21246670365E-02  0.25861105418E-02  0.00000000000E+00 0.  1.
         14    1    1    0    0    0  0.70489066121E-04 -0.72728451994E-02 -0.80774001939E-03  0.73179020178E-02  0.00000000000E+00 0.  1.
     999901    1    1    0    0    0  0.48299518928E-02 -0.26323634661E-02 -0.46969992679E-02  0.90002906596E+00  0.90000000000E+00 0. -1.
     999903    1    1    0    0    0 -0.44280552591E-02  0.95490231128E-02  0.23093345187E-02  0.22718374539E-01  0.20000000000E-01 0.  0.
</event>
<event>
 7    1  0.5676831E-066  0.9118800E+02  0.7957747E-01            NaN
     999900   -1    0    0    0    0  0.00000000000E+00  0.00000000000E+00  0.99999998245E-14  0.93827000000E+00  0.93827000000E+00 0. -1.
        -11    1    1    0    0    0  0.28747824063E-02  0.81978599743E-03  0.15871999650E-02  0.34229735164E-02  0.51100000000E-03 0. -1.
        -14    1    1    0    0    0 -0.31378649667E-02  0.87934709688E-03  0.33350614574E-02  0.46628406353E-02  0.00000000000E+00 0. -1.
         12    1    1    0    0    0  0.57264161837E-03  0.16169164070E-02 -0.30885978795E-03  0.17429089073E-02  0.00000000000E+00 0.  1.
         14    1    1    0    0    0 -0.33578559558E-02 -0.66067203052E-03  0.44516433115E-04  0.34225233184E-02  0.00000000000E+00 0.  1.
     999901    1    1    0    0    0  0.20696817173E-02 -0.16259714024E-01  0.10365662423E-02  0.90014984106E+00  0.90000000000E+00 0.  1.
     999903    1    1    0    0    0  0.97861518052E-03  0.13604336553E-01 -0.56944843098E-02  0.24868912567E-01  0.20000000000E-01 0.  0.
</event>
<event>
 7    1  0.5676831E-066  0.9118800E+02  0.7957747E-01            NaN
     999900   -1    0    0    0    0  0.00000000000E+00  0.00000000000E+00  0.99999998245E-14  0.93827000000E+00  0.93827000000E+00 0. -1.
        -11    1    1    0    0    0  0.12365036668E-02 -0.29526422253E-02 -0.20132770926E-02  0.38159458958E-02  0.51100000000E-03 0. -1.
        -14    1    1    0    0    0 -0.37275691128E-02  0.21195259787E-02  0.15892141308E-02  0.45730474979E-02  0.00000000000E+00 0. -1.
         12    1    1    0    0    0  0.76044080699E-03 -0.19398278591E-02  0.14837740502E-02  0.25578873658E-02  0.00000000000E+00 0.  1.
         14    1    1    0    0    0  0.15488324369E-02 -0.54810104180E-03  0.86245274872E-03  0.18555649850E-02  0.00000000000E+00 0. -1.
     999901    1    1    0    0    0 -0.10559851270E-01 -0.58065126621E-02 -0.85361482595E-02  0.90012115400E+00  0.90000000000E+00 0. -1.
     999903    1    1    0    0    0  0.10741643472E-01  0.91275578096E-02  0.66139844224E-02  0.25346400257E-01  0.20000000000E-01 0.  0.
</event>
<event>
 7    1  0.5676831E-066  0.9118800E+02  0.7957747E-01            NaN
     999900   -1    0    0    0    0  0.00000000000E+00  0.00000000000E+00  0.99999998245E-14  0.93827000000E+00  0.93827000000E+00 0. -1.
        -11    1    1    0    0    0 -0.85221122656E-03  0.24163140521E-02 -0.17572402894E-02  0.31486270036E-02  0.51100000000E-03 0. -1.
        -14    1    1    0    0    0 -0.23446092446E-02  0.23181322232E-02 -0.19926685792E-03  0.33031253071E-02  0.00000000000E+00 0. -1.
         12    1    1    0    0    0 -0.27421742269E-02  0.23137726024E-02  0.72458825395E-03  0.36603403235E-02  0.00000000000E+00 0.  1.
         14    1    1    0    0    0 -0.14179771122E-02 -0.32917591521E-03 -0.83770613279E-03  0.16795140484E-02  0.00000000000E+00 0.  1.
     999901    1    1    0    0    0  0.10105225367E-01 -0.49817744355E-02  0.18700425642E-01  0.90026476082E+00  0.90000000000E+00 0. -1.
     999903    1    1    0    0    0 -0.27482535569E-02 -0.17372685270E-02 -0.16630800616E-01  0.26213632497E-01  0.20000000000E-01 0.  0.
</event>
<event>
 7    1  0.5676831E-066  0.9118800E+02  0.7957747E-01            NaN
     999900   -1    0    0    0    0  0.00000000000E+00  0.00000000000E+00  0.99999998245E-14  0.93827000000E+00  0.93827000000E+00 0. -1.
        -11    1    1    0    0    0  0.14417690057E-02  0.33926970075E-02 -0.23838074055E-03  0.37292140228E-02  0.51100000000E-03 0. -1.
        -14    1    1    0    0    0  0.26111740433E-03 -0.22394802914E-03 -0.71553254124E-03  0.79392810516E-03  0.00000000000E+00 0. -1.
         12    1    1    0    0    0  0.28381658593E-02  0.51391435304E-03  0.55946729253E-03  0.29380771022E-02  0.00000000000E+00 0.  1.
         14    1    1    0    0    0  0.45322978810E-03 -0.34427130190E-02 -0.31092166958E-02  0.46609997461E-02  0.00000000000E+00 0.  1.
     999901    1    1    0    0    0  0.11686884506E-01 -0.12789467653E-02  0.35059991801E-02  0.90008361334E+00  0.90000000000E+00 0. -1.
     999903    1    1    0    0    0 -0.16681166563E-01  0.10389964529E-02 -0.23364950904E-05  0.26064167683E-01  0.20000000000E-01 0.  0.
</event>
<event>
 7    1  0.5676831E-066  0.9118800E+02  0.7957747E-01            NaN
     999900   -1    0    0    0    0  0.00000000000E+00  0.00000000000E+00  0.99999998245E-14  0.93827000000E+00  0.93827000000E+00 0. -1.
        -11    1    1    0    0    0  0.12883712825E-02 -0.10418028543E-02  0.13538792347E-02  0.21998553887E-02  0.51100000000E-03 0. -1.
        -14    1    1    0    0    0 -0.27647609520E-02 -0.12697531492E-02  0.96974835398E-03  0.31932096786E-02  0.00000000000E+00 0. -1.
         12    1    1    0    0    0 -0.67925384723E-02 -0.19424840452E-02 -0.37008391351E-02  0.79754644671E-02  0.00000000000E+00 0.  1.
         14    1    1    0    0    0  0.61342984921E-03  0.22959257347E-03 -0.55642208982E-03  0.85942682745E-03  0.00000000000E+00 0.  1.
     999901    1    1    0    0    0  0.10498395459E-01  0.16455191866E-01  0.41316026310E-02  0.90022111716E+00  0.90000000000E+00 0. -1.
     999903    1    1    0    0    0 -0.28428971665E-02 -0.12430744391E-01 -0.21979689948E-02  0.23820926475E-01  0.20000000000E-01 0.  0.
</event>
<event>
 7    1  0.5676831E-066  0.9118800E+02  0.7957747E-01            NaN
     999900   -1    0    0    0    0  0.00000000000E+00  0.00000000000E+00  0.99999998245E-14  0.93827000000E+00  0.93827000000E+00 0.  1.
        -11    1    1    0    0    0  0.27946130439E-02  0.91460218010E-03  0.15331312181E-03  0.29884753849E-02  0.51100000000E-03 0. -1.
        -14    1    1    0    0    0  0.46307338149E-02  0.82734691545E-02 -0.10273994403E-02  0.95367466740E-02  0.00000000000E+00 0. -1.
         12    1    1    0    0    0  0.15657337558E-02  0.10466023634E-03  0.11009364735E-02  0.19169082080E-02  0.00000000000E+00 0.  1.
         14    1    1    0    0    0 -0.12891618347E-02  0.29334213884E-02  0.44957050595E-03  0.32355854058E-02  0.00000000000E+00 0.  1.
     999901    1    1    0    0    0 -0.86052353407E-02 -0.16159367978E-01 -0.32988089999E-03  0.90018624966E+00  0.90000000000E+00 0. -1.
     999903    1    1    0    0    0  0.90331656084E-03  0.39332150187E-02 -0.34653976101E-03  0.20406034671E-01  0.20000000000E-01 0.  0.
</event>
<event>
 7    1  0.5676831E-066  0.9118800E+02  0.7957747E-01            NaN
     999900   -1    0    0    0    0  0.00000000000E+00  0.00000000000E+00  0.99999998245E-14  0.93827000000E+00  0.93827000000E+00 0.  1.
        -11    1    1    0    0    0  0.21919783402E-02  0.99962962506E-03 -0.26669326346E-02  0.36301073137E-02  0.51100000000E-03 0. -1.
        -14    1    1    0    0    0 -0.26472040894E-02 -0.24763602146E-02  0.23439191293E-02  0.43167124398E-02  0.00000000000E+00 0. -1.
         12    1    1    0    0    0  0.18428880539E-02  0.14895700818E-02  0.47168248187E-02  0.52785880478E-02  0.00000000000E+00 0.  1.
         14    1    1    0    0    0  0.93067258483E-04  0.10329989088E-03 -0.74890185996E-03  0.76169966385E-03  0.00000000000E+00 0.  1.
     999901    1    1    0    0    0  0.12026622292E-01  0.15860496183E-02 -0.35109155599E-02  0.90008859660E+00  0.90000000000E+00 0. -1.
     999903    1    1    0    0    0 -0.13507351855E-01 -0.17021890015E-02 -0.13399389350E-03  0.24194295937E-01  0.20000000000E-01 0.  0.
</event>
<event>
 7    1  0.5676831E-066  0.9118800E+02  0.7957747E-01            NaN
     999900   -1    0    0    0    0  0.00000000000E+00  0.00000000000E+00  0.99999998245E-14  0.93827000000E+00  0.93827000000E+00 0.  1.
        -11    1    1    0    0    0  0.30077430348E-02 -0.14111582745E-02 -0.29491634656E-02  0.44717526750E-02  0.51100000000E-03 0. -1.
        -14    1    1    0    0    0 -0.16301470774E-02  0.27499079904E-02  0.33895068759E-02  0.46591984624E-02  0.00000000000E+00 0. -1.
         12    1    1    0    0    0  0.20860221510E-02  0.11072993669E-02  0.33853172475E-02  0.41277079801E-02  0.00000000000E+00 0.  1.
         14    1    1    0    0    0 -0.15705204764E-02  0.11222426660E-02  0.82351015550E-03  0.20986024264E-02  0.00000000000E+00 0.  1.
     999901    1    1    0    0    0  0.42236325286E-02  0.25347770106E-02 -0.11459349739E-01  0.90008642966E+00  0.90000000000E+00 0. -1.
     999903    1    1    0    0    0 -0.61167301607E-02 -0.61030687593E-02  0.68101789256E-02  0.22826308794E-01  0.20000000000E-01 0.  0.
</event>
<event>
 7    1  0.5676831E-066  0.9118800E+02  0.7957747E-01            NaN
     999900   -1    0    0    0    0  0.00000000000E+00  0.00000000000E+00  0.99999998245E-14  0.93827000000E+00  0.93827000000E+00 0.  1.
        -11    1    1    0    0    0 -0.67201202058E-03 -0.35374666576E-02  0.22870926943E-03  0.36439949834E-02  0.51100000000E-03 0. -1.
        -14    1    1    0    0    0  0.11388454048E-02  0.22617488135E-02 -0.49128943020E-03  0.25795041879E-02  0.00000000000E+00 0. -1.
         12    1    1    0    0    0 -0.13169202635E-02  0.33164045824E-02 -0.18993401700E-02  0.40423151060E-02  0.00000000000E+00 0.  1.
         14    1    1    0    0    0 -0.43355485818E-02  0.29036866248E-02  0.31293027952E-02  0.60844813669E-02  0.00000000000E+00 0.  1.
     999901    1    1    0    0    0  0.22102997467E-02 -0.10714994507E-01  0.49334056876E-02  0.90008001590E+00  0.90000000000E+00 0. -1.
     999903    1    1    0    0    0  0.29753357144E-02  0.57706211436E-02 -0.59007881520E-02  0.21839688455E-01  0.20000000000E-01 0.  0.
</event>
<event>
 7    1  0.5676831E-066  0.9118800E+02  0.7957747E-01            NaN
     999900   -1    0    0    0    0  0.00000000000E+00  0.00000000000E+00  0.99999998245E-14  0.93827000000E+00  0.93827000000E+00 0. -1.
        -11    1    1    0    0    0 -0.23457915694E-02 -0.19786716998E-02 -0.32842444794E-03  0.31283962985E-02  0.51100000000E-03 0. -1.
        -14    1    1    0    0    0 -0.41214919970E-03  0.11336532024E-02 -0.17420585193E-03  0.12187633999E-02  0.00000000000E+00 0. -1.
         12    1    1    0    0    0 -0.26179450241E-02 -0.73439538102E-02 -0.12523207863E-03  0.77976263561E-02  0.00000000000E+00 0.  1.
         14    1    1    0    0    0  0.20639345440E-02  0.39974997561E-02  0.27505512801E-02  0.52730790290E-02  0.00000000000E+00 0.  1.
     999901    1    1    0    0    0  0.12114167754E-03 -0.69994822298E-03 -0.28343555312E-02  0.90000474342E+00  0.90000000000E+00 0.  1.
     999903    1    1    0    0    0  0.31908095716E-02  0.48914207745E-02  0.71166662960E-03  0.20847391499E-01  0.20000000000E-01 0.  0.
</event>
<event>
 7    1  0.5676831E-066  0.9118800E+02  0.7957747E-01            NaN
     999900   -1    0    0    0    0  0.00000000000E+00  0.00000000000E+00  0.99999998245E-14  0.93827000000E+00  0.93827000000E+00 0.  1.
        -11    1    1    0    0    0 -0.76165112372E-03  0.15052534736E-03 -0.54689806182E-03  0.10784195865E-02  0.51100000000E-03 0. -1.
        -14    1    1    0    0    0 -0.14094513970E-02  0.32728645751E-02 -0.34719800953E-02  0.49752227638E-02  0.00000000000E+00 0. -1.
         12    1    1    0    0    0 -0.44831006010E-03  0.28095945953E-02 -0.93880999048E-03  0.29960253500E-02  0.00000000000E+00 0.  1.
         14    1    1    0    0    0  0.38703476425E-02  0.11447687663E-03 -0.34105292886E-02  0.51598842873E-02  0.00000000000E+00 0.  1.
     999901    1    1    0    0    0 -0.76861097579E-02 -0.89533377371E-02  0.19194696405E-01  0.90028199744E+00  0.90000000000E+00 0.  1.
     999903    1    1    0    0    0  0.64351746962E-02  0.26058763427E-02 -0.10826478969E-01  0.23778450575E-01  0.20000000000E-01 0.  0.
</event>
<event>
 7    1  0.5676831E-066  0.9118800E+02  0.7957747E-01            NaN
     999900   -1    0    0    0    0  0.00000000000E+00  0.00000000000E+00  0.99999998245E-14  0.93827000000E+00  0.93827000000E+00 0.  1.
        -11    1    1    0    0    0  0.64452211481E-03 -0.11976993666E-02  0.55210595803E-03  0.15542955054E-02  0.51100000000E-03 0. -1.
        -14    1    1    0    0    0  0.10928468801E-02 -0.37121254955E-02  0.75961069909E-02  0.85249651855E-02  0.00000000000E+00 0. -1.
         12    1    1    0    0    0 -0.31569881968E-02 -0.10074772228E-02  0.25400587777E-03  0.33235679345E-02  0.00000000000E+00 0.  1.
         14    1    1    0    0    0  0.13551052095E-02  0.80170689452E-03 -0.14124939617E-02  0.21152265282E-02  0.00000000000E+00 0.  1.
     999901    1    1    0    0    0  0.13414025205E-02  0.15461653738E-01 -0.55261916373E-02  0.90015076564E+00  0.90000000000E+00 0.  1.
     999903    1    1    0    0    0 -0.12768885281E-02 -0.10346058548E-01 -0.14635332278E-02  0.22601179202E-01  0.20000000000E-01 0.  0.
</event>
<event>
 7    1  0.5676831E-066  0.9118800E+02  0.7957747E-01            NaN
     999900   -1    0    0    0    0  0.00000000000E+00  0.00000000000E+00  0.99999998245E-14  0.93827000000E+00  0.93827000000E+00 0. -1.
        -11    1    1    0    0    0 -0.71201363874E-02 -0.30558504651E-02 -0.35887880893E-02  0.85542436949E-02  0.51100000000E-03 0. -1.
        -14    1    1    0    0    0  0.93309611215E-03  0.13044411692E-02 -0.71562780271E-03  0.17562341161E-02  0.00000000000E+00 0. -1.
         12    1    1    0    0    0  0.39117740917E-03 -0.19269237937E-02  0.62534545241E-03  0.20632770068E-02  0.00000000000E+00 0.  1.
         14    1    1    0    0    0  0.18117333111E-02  0.14576267592E-02 -0.19601107090E-02  0.30412312229E-02  0.00000000000E+00 0.  1.
     999901    1    1    0    0    0  0.57225504098E-02  0.12774685604E-01  0.40367703392E-02  0.90011790099E+00  0.90000000000E+00 0.  1.
     999903    1    1    0    0    0 -0.17384208547E-02 -0.10553979274E-01  0.16024108094E-02  0.22737112965E-01  0.20000000000E-01 0.  0.
</event>
<event>
 7    1  0.5676831E-066  0.9118800E+02  0.7957747E-01            NaN
     999900   -1    0    0    0    0  0.00000000000E+00  0.00000000000E+00  0.99999998245E-14  0.93827000000E+00  0.93827000000E+00 0. -1.
        -11    1    1    0    0    0  0.70616492408E-03  0.58069159766E-03  0.16053067893E-02  0.19167687705E-02  0.51100000000E-03 0. -1.
        -14    1    1    0    0    0 -0.31447147191E-02 -0.15331444313E-02 -0.36518084474E-02  0.50572193395E-02  0.00000000000E+00 0. -1.
         12    1    1    0    0    0 -0.44889490932E-02  0.14941210007E-02  0.23304832683E-02  0.52739182578E-02  0.00000000000E+00 0.  1.
         14    1    1    0    0    0  0.20595470069E-02  0.36011250852E-02 -0.54685168533E-03  0.41843616621E-02  0.00000000000E+00 0.  1.
     999901    1    1    0    0    0 -0.17258580601E-02  0.15602056101E-02  0.11129485883E-02  0.90000369526E+00  0.90000000000E+00 0. -1.
     999903    1    1    0    0    0  0.65938099414E-02 -0.57029988624E-02 -0.85007851316E-03  0.21834036710E-01  0.20000000000E-01 0.  0.
</event>
<event>
 7    1  0.5676831E-066  0.9118800E+02  0.7957747E-01            NaN
     999900   -1    0    0    0    0  0.00000000000E+00  0.00000000000E+00  0.99999998245E-14  0.93827000000E+00  0.93827000000E+00 0. -1.
        -11    1    1    0    0    0 -0.56339661780E-02 -0.12558369264E-02 -0.17114203933E-02  0.60422497502E-02  0.51100000000E-03 0. -1.
        -14    1    1    0    0    0  0.20475605309E-02  0.47758341296E-03 -0.17281119492E-02  0.27215732496E-02  0.00000000000E+00 0. -1.
         12    1    1    0    0    0  0.15905447947E-02  0.17752720837E-03 -0.47688354728E-02  0.50302227009E-02  0.00000000000E+00 0.  1.
         14    1    1    0    0    0 -0.67445540269E-03  0.12607548393E-03  0.23136950958E-02  0.24132903088E-02  0.00000000000E+00 0.  1.
     999901    1    1    0    0    0  0.74251166194E-02  0.19813451622E-02 -0.18738723919E-02  0.90003476015E+00  0.90000000000E+00 0. -1.
     999903    1    1    0    0    0 -0.47548003643E-02 -0.15066943410E-02  0.77685451114E-02  0.22027903838E-01  0.20000000000E-01 0.  0.
</event>
<event>
 7    1  0.5676831E-066  0.9118800E+02  0.7957747E-01            NaN
     999900   -1    0    0    0    0  0.00000000000E+00  0.00000000000E+00  0.99999998245E-14  0.93827000000E+00  0.93827000000E+00 0.  1.
        -11    1    1    0    0    0  0.21956770489E-02  0.21346778280E-03  0.29449101249E-02  0.37148597337E-02  0.51100000000E-03 0. -1.
        -14    1    1    0    0    0  0.95256866638E-03  0.12336314218E-02 -0.29782715513E-02  0.33614483459E-02  0.00000000000E+00 0. -1.
         12    1    1    0    0    0  0.35091527975E-02  0.20447275189E-02 -0.20735328356E-02  0.45601099113E-02  0.00000000000E+00 0.  1.
         14    1    1    0    0    0 -0.29084210162E-04  0.52559748673E-03 -0.60848584911E-03  0.80458289685E-03  0.00000000000E+00 0.  1.
     999901    1    1    0    0    0 -0.20846674153E-02 -0.16285822539E-01  0.11893422838E-01  0.90022831957E+00  0.90000000000E+00 0.  1.
     999903    1    1    0    0    0 -0.45436468873E-02  0.12268398329E-01 -0.91780427272E-02  0.25600679540E-01  0.20000000000E-01 0.  0.
</event>
<event>
 7    1  0.5676831E-066  0.9118800E+02  0.7957747E-01            NaN
     999900   -1    0    0    0    0  0.00000000000E+00  0.00000000000E+00  0.99999998245E-14  0.93827000000E+00  0.93827000000E+00 0.  1.
        -11    1    1    0    0    0 -0.15617787176E-02 -0.28808590002E-04 -0.12006410975E-03  0.16478832143E-02  0.51100000000E-03 0. -1.
        -14    1    1    0    0    0  0.18375248320E-02  0.91593117824E-03 -0.66147733482E-03  0.21570766551E-02  0.00000000000E+00 0. -1.
         12    1    1    0    0    0  0.39656968993E-02  0.58627124233E-02  0.18682548320E-02  0.73204183606E-02  0.00000000000E+00 0.  1.
         14    1    1    0    0    0  0.28135957047E-02 -0.30739645985E-02  0.29913811848E-03  0.41779256523E-02  0.00000000000E+00 0.  1.
     999901    1    1    0    0    0 -0.47569239948E-02 -0.21678817691E-02  0.94285887272E-02  0.90006456786E+00  0.90000000000E+00 0.  1.
     999903    1    1    0    0    0 -0.22981147236E-02 -0.15079886440E-02 -0.10814440233E-01  0.22902128255E-01  0.20000000000E-01 0.  0.
</event>
<event>
 7    1  0.5676831E-066  0.9118800E+02  0.7957747E-01            NaN
     999900   -1    0    0    0    0  0.00000000000E+00  0.00000000000E+00  0.99999998245E-14  0.93827000000E+00  0.93827000000E+00 0. -1.
        -11    1    1    0    0    0 -0.16583770455E-02 -0.25644111467E-02  0.88886377306E-03  0.32214311666E-02  0.51100000000E-03 0. -1.
        -14    1    1    0    0    0 -0.96372236055E-04  0.61163505718E-03 -0.26956698542E-03  0.67531578590E-03  0.00000000000E+00 0. -1.
         12    1    1    0    0    0  0.42754586479E-02  0.43301723270E-02 -0.13690692740E-02  0.62373303350E-02  0.00000000000E+00 0.  1.
         14    1    1    0    0    0 -0.21800495025E-02 -0.34976262006E-02 -0.13562478353E-02  0.43388262310E-02  0.00000000000E+00 0.  1.
     999901    1    1    0    0    0 -0.11393855458E-01 -0.43384249307E-02  0.52190667764E-02  0.90009770610E+00  0.90000000000E+00 0.  1.
     999903    1    1    0    0    0  0.11053195595E-01  0.54586548937E-02 -0.31130464547E-02  0.23699390379E-01  0.20000000000E-01 0.  0.
</event>
<event>
 7    1  0.5676831E-066  0.9118800E+02  0.7957747E-01            NaN
     999900   -1    0    0    0    0  0.00000000000E+00  0.00000000000E+00  0.99999998245E-14  0.93827000000E+00  0.93827000000E+00 0. -1.
        -11    1    1    0    0    0 -0.25851029632E-03  0.45939402491E-03 -0.45264578561E-03  0.86248457995E-03  0.51100000000E-03 0. -1.
        -14    1    1    0    0    0 -0.17275745307E-02 -0.59881479096E-02  0.50163344891E-02  0.80003775444E-02  0.00000000000E+00 0. -1.
         12    1    1    0    0    0  0.25951190008E-03  0.11447695950E-02 -0.22239218776E-02  0.25146913070E-02  0.00000000000E+00 0.  1.
         14    1    1    0    0    0 -0.92969383149E-03 -0.29622591027E-02 -0.30029577594E-02  0.43193824694E-02  0.00000000000E+00 0.  1.
     999901    1    1    0    0    0  0.37497832220E-02  0.75471616139E-02  0.10841072901E-01  0.90010474356E+00  0.90000000000E+00 0. -1.
     999903    1    1    0    0    0 -0.10935164636E-02 -0.20091822156E-03 -0.10177881967E-01  0.22468320536E-01  0.20000000000E-01 0.  0.
</event>
<event>
 7    1  0.5676831E-066  0.9118800E+02  0.7957747E-01            NaN
     999900   -1    0    0    0    0  0.00000000000E+00  0.00000000000E+00  0.99999998245E-14  0.93827000000E+00  0.93827000000E+00 0.  1.
        -11    1    1    0    0    0 -0.76684400651E-02  0.46001452334E-02 -0.18467107888E-02  0.91453688245E-02  0.51100000000E-03 0. -1.
        -14    1    1    0    0    0 -0.14078749379E-03 -0.12310996905E-04 -0.26436973854E-02  0.26474721046E-02  0.00000000000E+00 0. -1.
         12    1    1    0    0    0 -0.11369800278E-02 -0.39425862976E-03  0.26417040098E-03  0.12320509127E-02  0.00000000000E+00 0.  1.
         14    1    1    0    0    0 -0.20938705837E-03  0.71451075918E-03 -0.19504577028E-02  0.20877389242E-02  0.00000000000E+00 0.  1.
     999901    1    1    0    0    0  0.94874459094E-02  0.59510521858E-02  0.23202264176E-02  0.90007266935E+00  0.90000000000E+00 0.  1.
     999903    1    1    0    0    0 -0.33185126440E-03 -0.10859138552E-01  0.38564690584E-02  0.23084699889E-01  0.20000000000E-01 0.  0.
</event>
<event>
 7    1  0.5676831E-066  0.9118800E+02  0.7957747E-01            NaN
     999900   -1    0    0    0    0  0.00000000000E+00  0.00000000000E+00  0.99999998245E-14  0.93827000000E+00  0.93827000000E+00 0.  1.
        -11    1    1    0    0    0  0.12728330038E-02  0.19837978744E-02  0.20212942236E-02  0.31467934792E-02  0.51100000000E-03 0. -1.
        -14    1    1    0    0    0  0.12132608807E-02 -0.45220729480E-02 -0.26950222895E-02  0.54022486848E-02  0.00000000000E+00 0. -1.
         12    1    1    0    0    0  0.55818500506E-03  0.21562603764E-02 -0.10701874615E-02  0.24710990497E-02  0.00000000000E+00 0.  1.
         14    1    1    0    0    0  0.20756624962E-02 -0.38423407494E-02 -0.28688744795E-02  0.52251696635E-02  0.00000000000E+00 0.  1.
     999901    1    1    0    0    0  0.35889053239E-02  0.60458919195E-02  0.65296842528E-02  0.90005114845E+00  0.90000000000E+00 0.  1.
     999903    1    1    0    0    0 -0.87088467097E-02 -0.18215364728E-02 -0.19168942459E-02  0.21973540672E-01  0.20000000000E-01 0.  0.
</event>
<event>
 7    1  0.5676831E-066  0.9118800E+02  0.7957747E-01            NaN
     999900   -1    0    0    0    0  0.00000000000E+00  0.00000000000E+00  0.99999998245E-14  0.93827000000E+00  0.93827000000E+00 0.  1.
        -11    1    1    0    0    0 -0.18067042297E-02  0.30231073862E-03  0.99272770891E-03  0.21452741690E-02  0.51100000000E-03 0. -1.
        -14    1    1    0    0    0 -0.36590366943E-02 -0.47963972369E-02 -0.32029584812E-02  0.68302942116E-02  0.00000000000E+00 0. -1.
         12    1    1    0    0    0  0.23261893823E-02  0.36060829537E-02 -0.82388604448E-03  0.43696429518E-02  0.00000000000E+00 0.  1.
         14    1    1    0    0    0 -0.13250121362E-03 -0.34125354329E-02  0.76391038664E-03  0.34995019261E-02  0.00000000000E+00 0.  1.
     999901    1    1    0    0    0  0.93405771102E-02  0.85218117052E-02  0.15330810212E-02  0.90009011660E+00  0.90000000000E+00 0.  1.
     999903    1    1    0    0    0 -0.60685243548E-02 -0.42212727278E-02  0.73712540897E-03  0.21335170146E-01  0.20000000000E-01 0.  0.
</event>
<event>
 7    1  0.5676831E-066  0.9118800E+02  0.7957747E-01            NaN
     999900   -1    0    0    0    0  0.00000000000E+00  0.00000000000E+00  0.99999998245E-14  0.93827000000E+00  0.93827000000E+00 0.  1.
        -11    1    1    0    0    0  0.79568247974E-03  0.15874795817E-02  0.20462168386E-02  0.27570503045E-02  0.51100000000E-03 0. -1.
        -14    1    1    0    0    0 -0.67218150050E-03 -0.27024127090E-02  0.10578118951E-02  0.29788971827E-02  0.00000000000E+00 0. -1.
         12    1    1    0    0    0 -0.10310204570E-02 -0.12911922771E-02  0.41053186459E-02  0.44253612128E-02  0.00000000000E+00 0.  1.
         14    1    1    0    0    0 -0.14044453926E-03  0.59481950128E-03  0.12986542737E-02  0.14352831882E-02  0.00000000000E+00 0.  1.
     999901    1    1    0    0    0 -0.91738062319E-02 -0.62121700626E-02  0.32674491346E-02  0.90007412250E+00  0.90000000000E+00 0. -1.
     999903    1    1    0    0    0  0.10221770249E-01  0.80234759657E-02 -0.11775450788E-01  0.26599285608E-01  0.20000000000E-01 0.  0.
</event>
<event>
 7    1  0.5676831E-066  0.9118800E+02  0.7957747E-01            NaN
     999900   -1    0    0    0    0  0.00000000000E+00  0.00000000000E+00  0.99999998245E-14  0.93827000000E+00  0.93827000000E+00 0. -1.
        -11    1    1    0    0    0  0.23167911549E-03 -0.22402384121E-02  0.76263569503E-03  0.24320932463E-02  0.51100000000E-03 0. -1.
        -14    1    1    0    0    0 -0.81162239700E-03  0.20681874946E-02 -0.20276769897E-04  0.22218329315E-02  0.00000000000E+00 0. -1.
         12    1    1    0    0    0 -0.35758543860E-02  0.14579740277E-02  0.14831886504E-02  0.41366981311E-02  0.00000000000E+00 0.  1.
         14    1    1    0    0    0  0.46435810004E-02  0.22098702452E-02 -0.37415505184E-02  0.63596832696E-02  0.00000000000E+00 0.  1.
     999901    1    1    0    0    0  0.85028965239E-02  0.13809817916E-02  0.66977747059E-02  0.90006614565E+00  0.90000000000E+00 0.  1.
     999903    1    1    0    0    0 -0.89906798568E-02 -0.48767751470E-02 -0.51817717630E-02  0.23053546771E-01  0.20000000000E-01 0.  0.
</event>
<event>
 7    1  0.5676831E-066  0.9118800E+02  0.7957747E-01            NaN
     999900   -1    0    0    0    0  0.00000000000E+00  0.00000000000E+00  0.99999998245E-14  0.93827000000E+00  0.93827000000E+00 0. -1.
        -11    1    1    0    0    0 -0.47618329911E-02 -0.19758467636E-02 -0.39934011098E-03  0.51961156062E-02  0.51100000000E-03 0. -1.
        -14    1    1    0    0    0  0.41349251627E-02 -0.36090567849E-02 -0.19803177015E-02  0.58347712189E-02  0.00000000000E+00 0. -1.
         12    1    1    0    0    0  0.99089140588E-03 -0.20181135667E-02 -0.13719768893E-02  0.26338125847E-02  0.00000000000E+00 0.  1.
         14    1    1    0    0    0 -0.36227177756E-02  0.16331088934E-02 -0.84101230268E-03  0.40618259974E-02  0.00000000000E+00 0.  1.
     999901    1    1    0    0    0  0.12377547361E-02  0.71494874086E-02  0.67507870021E-03  0.90002950115E+00  0.90000000000E+00 0.  1.
     999903    1    1    0    0    0  0.20209794620E-02 -0.11795791867E-02  0.39175683043E-02  0.20513973444E-01  0.20000000000E-01 0.  0.
</event>
<event>
 7    1  0.5676831E-066  0.9118800E+02  0.7957747E-01            NaN
     999900   -1    0    0    0    0  0.00000000000E+00  0.00000000000E+00  0.99999998245E-14  0.93827000000E+00  0.93827000000E+00 0. -1.
        -11    1    1    0    0    0 -0.22843260976E-02 -0.35065307334E-03  0.33334345429E-02  0.40882771615E-02  0.51100000000E-03 0. -1.
        -14    1    1    0    0    0  0.94721522327E-03  0.16979524592E-02  0.27178648559E-02  0.33417134239E-02  0.00000000000E+00 0. -1.
         12    1    1    0    0    0 -0.54827921637E-03 -0.11057364116E-02 -0.46867164788E-03  0.13201955251E-02  0.00000000000E+00 0.  1.
         14    1    1    0    0    0  0.42511559054E-02  0.12734580772E-02  0.11052522767E-02  0.45733581317E-02  0.00000000000E+00 0.  1.
     999901    1    1    0    0    0  0.13668090984E-02  0.89811159441E-02 -0.16110206420E-01  0.90019001736E+00  0.90000000000E+00 0.  1.
     999903    1    1    0    0    0 -0.37325749131E-02 -0.10496136996E-01  0.94223263920E-02  0.24756438394E-01  0.20000000000E-01 0.  0.
</event>
<event>
 7    1  0.5676831E-066  0.9118800E+02  0.7957747E-01            NaN
     999900   -1    0    0    0    0  0.00000000000E+00  0.00000000000E+00  0.99999998245E-14  0.93827000000E+00  0.93827000000E+00 0.  1.
        -11    1    1    0    0    0 -0.21008159147E-02 -0.30239493517E-03  0.12286605923E-03  0.21865697503E-02  0.51100000000E-03 0. -1.
        -14    1    1    0    0    0  0.31749384254E-03  0.55841910763E-02 -0.41863893060E-02  0.69864044929E-02  0.00000000000E+00 0. -1.
         12    1    1    0    0    0 -0.99495112343E-03 -0.20718268955E-02 -0.13358906032E-02  0.26583826148E-02  0.00000000000E+00 0.  1.
         14    1    1    0    0    0 -0.52462149587E-03 -0.11118618834E-02  0.65652022848E-03  0.13937300212E-02  0.00000000000E+00 0.  1.
     999901    1    1    0    0    0  0.16395334876E-01  0.43089362231E-02  0.70736119091E-02  0.90018743044E+00  0.90000000000E+00 0.  1.
     999903    1    1    0    0    0 -0.13092440184E-01 -0.64070435853E-02 -0.23307182875E-02  0.24857482681E-01  0.20000000000E-01 0.  0.
</event>
<event>
 7    1  0.5676831E-066  0.9118800E+02  0.7957747E-01            NaN
     999900   -1    0    0    0    0  0.00000000000E+00  0.00000000000E+00  0.99999998245E-14  0.93827000000E+00  0.93827000000E+00 0. -1.
        -11    1    1    0    0    0  0.18654304896E-02 -0.10745745813E-03  0.24245872229E-02  0.31034049395E-02  0.51100000000E-03 0. -1.
        -14    1    1    0    0    0 -0.83720860844E-03  0.15433427379E-02  0.22382418453E-02  0.28447410460E-02  0.00000000000E+00 0. -1.
         12    1    1    0    0    0  0.19067121239E-02  0.15863741586E-04  0.30843930093E-02  0.36261940127E-02  0.00000000000E+00 0.  1.
         14    1    1    0    0    0 -0.30986491035E-02 -0.12146425446E-02 -0.64601880249E-02  0.72671185552E-02  0.00000000000E+00 0.  1.
     999901    1    1    0    0    0 -0.18984252993E-02 -0.66494649490E-02  0.22559560295E-02  0.90002939326E+00  0.90000000000E+00 0. -1.
     999903    1    1    0    0    0  0.20621403978E-02  0.64123584722E-02 -0.35429900821E-02  0.21399148182E-01  0.20000000000E-01 0.  0.
</event>
<event>
 7    1  0.5676831E-066  0.9118800E+02  0.7957747E-01            NaN
     999900   -1    0    0    0    0  0.00000000000E+00  0.00000000000E+00  0.99999998245E-14  0.93827000000E+00  0.93827000000E+00 0. -1.
        -11    1    1    0    0    0 -0.21408222464E-03 -0.59667386551E-03  0.59247257321E-03  0.10069735104E-02  0.51100000000E-03 0. -1.
        -14    1    1    0    0    0  0.57383770669E-04  0.17869481027E-02  0.48377094706E-02  0.51575099942E-02  0.00000000000E+00 0. -1.
         12    1    1    0    0    0 -0.30473363528E-02  0.22484973915E-02  0.26278974372E-02  0.46095384049E-02  0.00000000000E+00 0.  1.
         14    1    1    0    0    0 -0.21923905817E-02 -0.41291954150E-02  0.27516524041E-02  0.54247969723E-02  0.00000000000E+00 0.  1.
     999901    1    1    0    0    0  0.63148723518E-02  0.67067897675E-02 -0.39072264742E-02  0.90005562331E+00  0.90000000000E+00 0.  1.
     999903    1    1    0    0    0 -0.91844696344E-03 -0.60163659811E-02 -0.69025054109E-02  0.22015557803E-01  0.20000000000E-01 0.  0.
</event>
<event>
 7    1  0.5676831E-066  0.9118800E+02  0.7957747E-01            NaN
     999900   -1    0    0    0    0  0.00000000000E+00  0.00000000000E+00  0.99999998245E-14  0.93827000000E+00  0.93827000000E+00 0. -1.
        -11    1    1    0    0    0 -0.26219041640E-02  0.29869072305E-02 -0.22853111891E-02  0.46129995100E-02  0.51100000000E-03 0. -1.
        -14    1    1    0    0    0  0.12061811592E-02 -0.79266928037E-03  0.15153274091E-02  0.20927051234E-02  0.00000000000E+00 0. -1.
         12    1    1    0    0    0  0.55429238310E-03 -0.34998383398E-02  0.53184250194E-03  0.35831501361E-02  0.00000000000E+00 0.  1.
         14    1    1    0    0    0 -0.66120451585E-03  0.19374954590E-02 -0.24436440984E-02  0.31878639471E-02  0.00000000000E+00 0.  1.
     999901    1    1    0    0    0 -0.10338124826E-02 -0.11922505828E-01 -0.60221974010E-02  0.90009970657E+00  0.90000000000E+00 0. -1.
     999903    1    1    0    0    0  0.25564476201E-02  0.11290610758E-01  0.87039827774E-02  0.24693574709E-01  0.20000000000E-01 0.  0.
</event>
<event>
 7    1  0.5676831E-066  0.9118800E+02  0.7957747E-01            NaN
     999900   -1    0    0    0    0  0.00000000000E+00  0.00000000000E+00  0.99999998245E-14  0.93827000000E+00  0.93827000000E+00 0.  1.
        -11    1    1    0    0    0  0.21959400518E-03 -0.10992310029E-03  0.18833928544E-02  0.19668742357E-02  0.51100000000E-03 0. -1.
        -14    1    1    0    0    0 -0.17573828049E-02  0.17803084194E-02  0.10824030662E-03  0.25039185999E-02  0.00000000000E+00 0. -1.
         12    1    1    0    0    0 -0.68391623841E-02  0.26989415254E-03  0.17549518994E-02  0.70658928055E-02  0.00000000000E+00 0.  1.
         14    1    1    0    0    0 -0.43660719402E-03  0.50859648486E-02  0.15385450521E-03  0.51069888870E-02  0.00000000000E+00 0.  1.
     999901    1    1    0    0    0  0.44155934084E-02 -0.12529431286E-01 -0.18034884909E-03  0.90009805946E+00  0.90000000000E+00 0. -1.
     999903    1    1    0    0    0  0.43979649694E-02  0.55031869653E-02 -0.37200907165E-02  0.21528266014E-01  0.20000000000E-01 0.  0.
</event>
<event>
 7    1  0.5676831E-066  0.9118800E+02  0.7957747E-01            NaN
     999900   -1    0    0    0    0  0.00000000000E+00  0.00000000000E+00  0.99999998245E-14  0.93827000000E+00  0.93827000000E+00 0.  1.
        -11    1    1    0    0    0 -0.38161447504E-02 -0.46740511934E-02  0.41288263717E-02  0.73292594116E-02  0.51100000000E-03 0. -1.
        -14    1    1    0    0    0 -0.16482408053E-02  0.29412387681E-02 -0.25876972146E-03  0.33815004084E-02  0.00000000000E+00 0. -1.
         12    1    1    0    0    0 -0.58970870031E-03  0.93473795758E-03 -0.85192439399E-03  0.13954449375E-02  0.00000000000E+00 0.  1.
         14    1    1    0    0    0  0.69814360034E-04  0.32013869245E-02 -0.10034022410E-02  0.33556770319E-02  0.00000000000E+00 0.  1.
     999901    1    1    0    0    0  0.30788469606E-02 -0.10211116714E-01 -0.87952516301E-02  0.90010616188E+00  0.90000000000E+00 0. -1.
     999903    1    1    0    0    0  0.29054329353E-02  0.78078042576E-02  0.67805216148E-02  0.22701956331E-01  0.20000000000E-01 0.  0.
</event>
<event>
 7    1  0.5676831E-066  0.9118800E+02  0.7957747E-01            NaN
     999900   -1    0    0    0    0  0.00000000000E+00  0.00000000000E+00  0.99999998245E-14  0.93827000000E+00  0.93827000000E+00 0. -1.
        -11    1    1    0    0    0  0.99383803350E-03 -0.20174002108E-02 -0.11119524576E-02  0.25603079728E-02  0.51100000000E-03 0. -1.
        -14    1    1    0    0    0  0.35793436707E-02  0.20350298803E-02 -0.15365958460E-03  0.41202741407E-02  0.00000000000E+00 0. -1.
         12    1    1    0    0    0  0.14313864144E-02 -0.40172333340E-03 -0.16236472819E-02  0.22014720530E-02  0.00000000000E+00 0.  1.
         14    1    1    0    0    0 -0.16038954369E-02 -0.40130330788E-02  0.19981742182E-02  0.47612619410E-02  0.00000000000E+00 0.  1.
     999901    1    1    0    0    0  0.71647175804E-02  0.42028646921E-02  0.91674010795E-02  0.90008501737E+00  0.90000000000E+00 0. -1.
     999903    1    1    0    0    0 -0.11565390262E-01  0.19426205063E-03 -0.82763159735E-02  0.24541666524E-01  0.20000000000E-01 0.  0.
</event>
<event>
 7    1  0.5676831E-066  0.9118800E+02  0.7957747E-01            NaN
     999900   -1    0    0    0    0  0.00000000000E+00  0.00000000000E+00  0.99999998245E-14  0.93827000000E+00  0.93827000000E+00 0. -1.
        -11    1    1    0    0    0  0.26843500226E-02 -0.34414251825E-02  0.47808195616E-02  0.64935736702E-02  0.51100000000E-03 0. -1.
        -14    1    1    0    0    0  0.11111276249E-02  0.11142943502E-02 -0.76641404181E-03  0.17503276782E-02  0.00000000000E+00 0. -1.
         12    1    1    0    0    0 -0.60547231154E-03  0.17225004298E-02  0.12525060673E-02  0.22141309580E-02  0.00000000000E+00 0.  1.
         14    1    1    0    0    0  0.12524934659E-02 -0.36155382980E-02 -0.28717230412E-02  0.47841039173E-02  0.00000000000E+00 0.  1.
     999901    1    1    0    0    0 -0.71353215208E-02 -0.60616923175E-02  0.14801455088E-02  0.90004991404E+00  0.90000000000E+00 0. -1.
     999903    1    1    0    0    0  0.26928227191E-02  0.10281861018E-01 -0.38753340546E-02  0.22977949739E-01  0.20000000000E-01 0.  0.
</event>
<event>
 7    1  0.5676831E-066  0.9118800E+02  0.7957747E-01            NaN
     999900   -1    0    0    0    0  0.00000000000E+00  0.00000000000E+00  0.99999998245E-14  0.93827000000E+00  0.93827000000E+00 0. -1.
        -11    1    1    0    0    0  0.36202530044E-02  0.19808247295E-02 -0.79904876565E-03  0.42343238368E-02  0.51100000000E-03 0. -1.
        -14    1    1    0    0    0 -0.25026603670E-03 -0.22698573196E-02  0.39503802641E-02  0.45629365075E-02  0.00000000000E+00 0. -1.
         12    1    1    0    0    0  0.64940600934E-03  0.44435497756E-05  0.83480922400E-03  0.10576645738E-02  0.00000000000E+00 0.  1.
         14    1    1    0    0    0 -0.69686556381E-03 -0.32821977405E-02  0.16809694284E-02  0.37528791402E-02  0.00000000000E+00 0.  1.
     999901    1    1    0    0    0  0.10271063323E-01  0.73698934444E-02 -0.74273325896E-02  0.90011942282E+00  0.90000000000E+00 0.  1.
     999903    1    1    0    0    0 -0.13593590736E-01 -0.38031066637E-02  0.17602224388E-02  0.24542773120E-01  0.20000000000E-01 0.  0.
</event>
<event>
 7    1  0.5676831E-066  0.9118800E+02  0.7957747E-01            NaN
     999900   -1    0    0    0    0  0.00000000000E+00  0.00000000000E+00  0.99999998245E-14  0.93827000000E+00  0.93827000000E+00 0. -1.
        -11    1    1    0    0    0 -0.27108906763E-03 -0.48133495087E-03  0.38799210488E-02  0.39522248117E-02  0.51100000000E-03 0. -1.
        -14    1    1    0    0    0 -0.49158882639E-02  0.26850815207E-02  0.40176786632E-02  0.68932838355E-02  0.00000000000E+00 0. -1.
         12    1    1    0    0    0  0.16300513221E-02 -0.18741154805E-03 -0.98608814049E-03  0.19143041091E-02  0.00000000000E+00 0.  1.
         14    1    1    0    0    0 -0.34122332428E-02  0.14351446173E-02  0.72979825991E-04  0.37024723943E-02  0.00000000000E+00 0.  1.
     999901    1    1    0    0    0  0.11605123223E-01 -0.58087506127E-02 -0.31717440142E-03  0.90009361795E+00  0.90000000000E+00 0.  1.
     999903    1    1    0    0    0 -0.46359639705E-02  0.23572709736E-02 -0.66673169960E-02  0.21714096903E-01  0.20000000000E-01 0.  0.
</event>
<event>
 7    1  0.5676831E-066  0.9118800E+02  0.7957747E-01            NaN
     999900   -1    0    0    0    0  0.00000000000E+00  0.00000000000E+00  0.99999998245E-14  0.93827000000E+00  0.93827000000E+00 0. -1.
        -11    1    1    0    0    0 -0.14468603232E-02 -0.53547492000E-02 -0.32034433314E-02  0.64257228362E-02  0.51100000000E-03 0. -1.
        -14    1    1    0    0    0  0.18875401529E-03  0.49832066093E-03  0.28235865513E-02  0.28734287136E-02  0.00000000000E+00 0. -1.
         12    1    1    0    0    0  0.14893824131E-02 -0.46710948828E-03  0.58449856311E-03  0.16667602757E-02  0.00000000000E+00 0.  1.
         14    1    1    0    0    0 -0.42822516413E-02 -0.11023131793E-02 -0.25654384166E-02  0.51121666379E-02  0.00000000000E+00 0.  1.
     999901    1    1    0    0    0  0.36744229157E-02  0.76873793947E-02 -0.70068156325E-02  0.90006760449E+00  0.90000000000E+00 0.  1.
     999903    1    1    0    0    0  0.37655262043E-03 -0.12615281881E-02  0.93676122660E-02  0.22124317047E-01  0.20000000000E-01 0.  0.
</event>
<event>
 7    1  0.5676831E-066  0.9118800E+02  0.7957747E-01            NaN
     999900   -1    0    0    0    0  0.00000000000E+00  0.00000000000E+00  0.99999998245E-14  0.93827000000E+00  0.93827000000E+00 0.  1.
        -11    1    1    0    0    0  0.19954055300E-03  0.10339324118E-02  0.10216558900E-03  0.11749006222E-02  0.51100000000E-03 0. -1.
        -14    1    1    0    0    0 -0.30349973597E-03 -0.28008994367E-03 -0.41848278858E-03  0.58795434399E-03  0.00000000000E+00 0. -1.
         12    1    1    0    0    0  0.16801710673E-02 -0.28251305912E-03  0.80193426928E-03  0.18830525792E-02  0.00000000000E+00 0.  1.
         14    1    1    0    0    0 -0.11844567250E-01 -0.46798187902E-02  0.19064477985E-02  0.12877461724E-01  0.00000000000E+00 0.  1.
     999901    1    1    0    0    0  0.11990144359E-01 -0.32880452975E-02  0.77204439881E-03  0.90008620190E+00  0.90000000000E+00 0.  1.
     999903    1    1    0    0    0 -0.17217889926E-02  0.74965346787E-02 -0.31641092670E-02  0.21660428827E-01  0.20000000000E-01 0.  0.
</event>
<event>
 7    1  0.5676831E-066  0.9118800E+02  0.7957747E-01            NaN
     999900   -1    0    0    0    0  0.00000000000E+00  0.00000000000E+00  0.99999998245E-14  0.93827000000E+00  0.93827000000E+00 0. -1.
        -11    1    1    0    0    0  0.99091943659E-03 -0.12586733111E-02  0.72048091877E-03  0.18293150599E-02  0.51100000000E-03 0. -1.
        -14    1    1    0    0    0  0.86844259642E-03 -0.10919382022E-02 -0.27987682311E-02  0.31272392285E-02  0.00000000000E+00 0. -1.
         12    1    1    0    0    0 -0.31068971387E-02  0.26186710451E-03 -0.14389598574E-02  0.34339466627E-02  0.00000000000E+00 0.  1.
         14    1    1    0    0    0 -0.67509286349E-03  0.19432306076E-02  0.19398018874E-02  0.28274948154E-02  0.00000000000E+00 0.  1.
     999901    1    1    0    0    0  0.13992801735E-01 -0.11804474696E-01  0.72104582331E-02  0.90021504921E+00  0.90000000000E+00 0. -1.
     999903    1    1    0    0    0 -0.12070173765E-01  0.11949988498E-01 -0.56330129508E-02  0.26836955020E-01  0.20000000000E-01 0.  0.
</event>
<event>
 7    1  0.5676831E-066  0.9118800E+02  0.7957747E-01            NaN
     999900   -1    0    0    0    0  0.00000000000E+00  0.00000000000E+00  0.99999998245E-14  0.93827000000E+00  0.93827000000E+00 0.  1.
        -11    1    1    0    0    0 -0.24266848989E-03  0.24885970264E-02 -0.37408177182E-02  0.45284480075E-02  0.51100000000E-03 0. -1.
        -14    1    1    0    0    0  0.43310742898E-02  0.36356043897E-02  0.17203600228E-02  0.59106228428E-02  0.00000000000E+00 0. -1.
         12    1    1    0    0    0  0.18820795940E-03  0.25139548641E-02  0.94690270562E-04  0.25227678336E-02  0.00000000000E+00 0.  1.
         14    1    1    0    0    0  0.18523438316E-03 -0.31350833247E-02 -0.11467126987E-02  0.33433529941E-02  0.00000000000E+00 0.  1.
     999901    1    1    0    0    0 -0.97413154645E-02  0.15206057321E-02  0.13897426349E-02  0.90005507434E+00  0.90000000000E+00 0. -1.
     999903    1    1    0    0    0  0.52794673220E-02 -0.70236786876E-02  0.16827374887E-02  0.21909733978E-01  0.20000000000E-01 0.  0.
</event>
<event>
 7    1  0.5676831E-066  0.9118800E+02  0.7957747E-01            NaN
     999900   -1    0    0    0    0  0.00000000000E+00  0.00000000000E+00  0.99999998245E-14  0.93827000000E+00  0.93827000000E+00 0.  1.
        -11    1    1    0    0    0  0.15562052167E-02  0.24085352511E-04  0.65761151479E-03  0.17651993329E-02  0.51100000000E-03 0. -1.
        -14    1    1    0    0    0 -0.17927201231E-02  0.43447187786E-02 -0.34695487442E-02  0.58419341997E-02  0.00000000000E+00 0. -1.
         12    1    1    0    0    0 -0.11055581508E-03 -0.99283850215E-03  0.23978017479E-02  0.25975765825E-02  0.00000000000E+00 0.  1.
         14    1    1    0    0    0 -0.41682113761E-02  0.56699369078E-03 -0.66923474414E-03  0.42595003303E-02  0.00000000000E+00 0.  1.
     999901    1    1    0    0    0  0.18639953731E-03 -0.12633555960E-01 -0.70964332541E-02  0.90011665958E+00  0.90000000000E+00 0. -1.
     999903    1    1    0    0    0  0.43288825603E-02  0.86905966404E-02  0.81798034798E-02  0.23689129979E-01  0.20000000000E-01 0.  0.
</event>
<event>
 7    1  0.5676831E-066  0.9118800E+02  0.7957747E-01            NaN
     999900   -1    0    0    0    0  0.00000000000E+00  0.00000000000E+00  0.99999998245E-14  0.93827000000E+00  0.93827000000E+00 0. -1.
        -11    1    1    0    0    0  0.14015536093E-02 -0.24403637874E-02 -0.45787412201E-02  0.53986776247E-02  0.51100000000E-03 0. -1.
        -14    1    1    0    0    0  0.21734826410E-02  0.48694684697E-03  0.14927795894E-02  0.26813308123E-02  0.00000000000E+00 0. -1.
         12    1    1    0    0    0 -0.16176259917E-02 -0.16507915869E-02 -0.40695266997E-03  0.23467929580E-02  0.00000000000E+00 0.  1.
         14    1    1    0    0    0  0.33144521939E-02  0.23687166417E-02  0.66064722303E-03  0.41270893651E-02  0.00000000000E+00 0.  1.
     999901    1    1    0    0    0  0.53078419143E-02 -0.52322196499E-02  0.14357916550E-03  0.90003087165E+00  0.90000000000E+00 0. -1.
     999903    1    1    0    0    0 -0.10579704367E-01  0.64677115355E-02  0.26886879121E-02  0.23685237590E-01  0.20000000000E-01 0.  0.
</event>
<event>
 7    1  0.5676831E-066  0.9118800E+02  0.7957747E-01            NaN
     999900   -1    0    0    0    0  0.00000000000E+00  0.00000000000E+00  0.99999998245E-14  0.93827000000E+00  0.93827000000E+00 0. -1.
        -11    1    1    0    0    0 -0.71708669866E-04  0.48085778338E-02 -0.29587230627E-02  0.56694555364E-02  0.51100000000E-03 0. -1.
        -14    1    1    0    0    0  0.79091226068E-04 -0.36352058445E-02  0.18116435127E-02  0.40623920504E-02  0.00000000000E+00 0. -1.
         12    1    1    0    0    0 -0.62074433908E-03 -0.17503819800E-02  0.78863360032E-03  0.20176975903E-02  0.00000000000E+00 0.  1.
         14    1    1    0    0    0 -0.25142324398E-02  0.28233184519E-02  0.12202899788E-02  0.39726061313E-02  0.00000000000E+00 0.  1.
     999901    1    1    0    0    0  0.13338979003E-02 -0.12227058868E-01 -0.21556670783E-02  0.90008662203E+00  0.90000000000E+00 0. -1.
     999903    1    1    0    0    0  0.17936963224E-02  0.99807504066E-02  0.12938230491E-02  0.22461226664E-01  0.20000000000E-01 0.  0.
</event>
<event>
 7    1  0.5676831E-066  0.9118800E+02  0.7957747E-01            NaN
     999900   -1    0    0    0    0  0.00000000000E+00  0.00000000000E+00  0.99999998245E-14  0.93827000000E+00  0.93827000000E+00 0. -1.
        -11    1    1    0    0    0  0.17830525473E-02 -0.13076392083E-02 -0.11361585914E-02  0.25379468140E-02  0.51100000000E-03 0. -1.
        -14    1    1    0    0    0 -0.25937412763E-03  0.48676977683E-03 -0.17471868188E-02  0.18321794491E-02  0.00000000000E+00 0. -1.
         12    1    1    0    0    0 -0.23929307134E-02  0.58063774779E-02  0.11506286804E-02  0.63846756515E-02  0.00000000000E+00 0.  1.
         14    1    1    0    0    0  0.26961578946E-02 -0.55497159308E-02 -0.48899905418E-03  0.61893242265E-02  0.00000000000E+00 0.  1.
     999901    1    1    0    0    0  0.19663834023E-02 -0.26965262964E-03  0.83822384861E-02  0.90004122200E+00  0.90000000000E+00 0. -1.
     999903    1    1    0    0    0 -0.37932890032E-02  0.83386051401E-03 -0.61605227021E-02  0.21284651860E-01  0.20000000000E-01 0.  0.
</event>
<event>
 7    1  0.5676831E-066  0.9118800E+02  0.7957747E-01            NaN
     999900   -1    0    0    0    0  0.00000000000E+00  0.00000000000E+00  0.99999998245E-14  0.93827000000E+00  0.93827000000E+00 0.  1.
        -11    1    1    0    0    0 -0.10985154300E-02 -0.17331479137E-03  0.13034793922E-02  0.17880027105E-02  0.51100000000E-03 0. -1.
        -14    1    1    0    0    0 -0.35132283505E-02 -0.13708766880E-02  0.10195235397E-03  0.37725946799E-02  0.00000000000E+00 0. -1.
         12    1    1    0    0    0  0.50056162616E-02  0.10622604325E-02 -0.32306808362E-02  0.60516022713E-02  0.00000000000E+00 0.  1.
         14    1    1    0    0    0 -0.16331653515E-02 -0.13644949432E-02  0.41916504137E-02  0.47009582752E-02  0.00000000000E+00 0.  1.
     999901    1    1    0    0    0 -0.42792212860E-02 -0.36286000256E-02  0.21929986797E-02  0.90002015962E+00  0.90000000000E+00 0.  1.
     999903    1    1    0    0    0  0.55185141563E-02  0.54750260157E-02 -0.45594000034E-02  0.21936682446E-01  0.20000000000E-01 0.  0.
</event>
<event>
 7    1  0.5676831E-066  0.9118800E+02  0.7957747E-01            NaN
     999900   -1    0    0    0    0  0.00000000000E+00  0.00000000000E+00  0.99999998245E-14  0.93827000000E+00  0.93827000000E+00 0.  1.
        -11    1    1    0    0    0  0.12526022955E-03 -0.47436704922E-03 -0.13744346588E-02  0.15462554297E-02  0.51100000000E-03 0. -1.
        -14    1    1    0    0    0 -0.25229750980E-03  0.34442364123E-03 -0.20677069120E-05  0.42694959128E-03  0.00000000000E+00 0. -1.
         12    1    1    0    0    0 -0.48570262729E-02 -0.32037774924E-02  0.26254608569E-02  0.63834112470E-02  0.00000000000E+00 0.  1.
         14    1    1    0    0    0  0.20735055764E-02 -0.56295762675E-02 -0.49351925178E-02  0.77683768906E-02  0.00000000000E+00 0.  1.
     999901    1    1    0    0    0  0.11570983864E-01  0.10203436211E-01  0.85704964463E-03  0.90013261929E+00  0.90000000000E+00 0.  1.
     999903    1    1    0    0    0 -0.86604258870E-02 -0.12401390431E-02  0.28291843820E-02  0.22012387550E-01  0.20000000000E-01 0.  0.
</event>
<event>
 7    1  0.5676831E-066  0.9118800E+02  0.7957747E-01            NaN
     999900   -1    0    0    0    0  0.00000000000E+00  0.00000000000E+00  0.99999998245E-14  0.93827000000E+00  0.93827000000E+00 0. -1.
        -11    1    1    0    0    0  0.49771088012E-03 -0.77784710881E-03  0.32385284433E-02  0.34061634903E-02  0.51100000000E-03 0. -1.
        -14    1    1    0    0    0 -0.31520077727E-02 -0.17970751376E-02 -0.15237891648E-02  0.39352973799E-02  0.00000000000E+00 0. -1.
         12    1    1    0    0    0 -0.51980436748E-02 -0.14843463256E-02 -0.21511615983E-02  0.58181129485E-02  0.00000000000E+00 0.  1.
         14    1    1    0    0    0  0.20759444635E-02  0.14941886989E-02  0.21721390129E-02  0.33556419915E-02  0.00000000000E+00 0.  1.
     999901    1    1    0    0    0  0.69944912901E-02  0.10533321040E-01 -0.37599196246E-02  0.90009666745E+00  0.90000000000E+00 0.  1.
     999903    1    1    0    0    0 -0.12180951862E-02 -0.79682411666E-02  0.20242029316E-02  0.21658116739E-01  0.20000000000E-01 0.  0.
</event>
<event>
 7    1  0.5676831E-066  0.9118800E+02  0.7957747E-01            NaN
     999900   -1    0    0    0    0  0.00000000000E+00  0.00000000000E+00  0.99999998245E-14  0.93827000000E+00  0.93827000000E+00 0. -1.
        -11    1    1    0    0    0 -0.20161769904E-02  0.46006181265E-02  0.37663542093E-02  0.62989841905E-02  0.51100000000E-03 0. -1.
        -14    1    1    0    0    0  0.69979883104E-03 -0.11222120036E-02  0.62304612636E-03  0.14619386651E-02  0.00000000000E+00 0. -1.
         12    1    1    0    0    0 -0.59724723355E-02 -0.51216506652E-03 -0.15136419901E-02  0.61825440498E-02  0.00000000000E+00 0.  1.
         14    1    1    0    0    0  0.16390546243E-03 -0.19162780678E-03  0.19019922643E-02  0.19186351374E-02  0.00000000000E+00 0.  1.
     999901    1    1    0    0    0  0.16781188544E-01 -0.24232038352E-02 -0.56822989564E-02  0.90017763176E+00  0.90000000000E+00 0.  1.
     999903    1    1    0    0    0 -0.96562435117E-02 -0.35140941444E-03  0.90454834656E-03  0.22230266194E-01  0.20000000000E-01 0.  0.
</event>
<event>
 7    1  0.5676831E-066  0.9118800E+02  0.7957747E-01            NaN
     999900   -1    0    0    0    0  0.00000000000E+00  0.00000000000E+00  0.99999998245E-14  0.93827000000E+00  0.93827000000E+00 0.  1.
        -11    1    1    0    0    0 -0.20877292794E-02  0.18672875888E-02  0.23946401460E-02  0.37203224204E-02  0.51100000000E-03 0. -1.
        -14    1    1    0    0    0  0.44523256366E-02  0.34586208134E-02 -0.43624772188E-02  0.71285671063E-02  0.00000000000E+00 0. -1.
         12    1    1    0    0    0  0.21019271876E-02 -0.65043329290E-03 -0.21954488256E-02  0.31082401639E-02  0.00000000000E+00 0.  1.
         14    1    1    0    0    0 -0.10369599640E-02  0.93617678989E-03 -0.46348502035E-04  0.13978058279E-02  0.00000000000E+00 0.  1.
     999901    1    1    0    0    0 -0.10731338316E-01  0.25752465094E-02  0.51980688460E-02  0.90008267033E+00  0.90000000000E+00 0.  1.
     999903    1    1    0    0    0  0.73017747348E-02 -0.81868984086E-02 -0.98843444562E-03  0.22832394147E-01  0.20000000000E-01 0.  0.
</event>
<event>
 7    1  0.5676831E-066  0.9118800E+02  0.7957747E-01            NaN
     999900   -1    0    0    0    0  0.00000000000E+00  0.00000000000E+00  0.99999998245E-14  0.93827000000E+00  0.93827000000E+00 0. -1.
        -11    1    1    0    0    0 -0.88563944222E-03 -0.14002233586E-02 -0.48563547750E-03  0.18005403335E-02  0.51100000000E-03 0. -1.
        -14    1    1    0    0    0  0.31117740249E-02 -0.24593732033E-02  0.52912422844E-03  0.40014530591E-02  0.00000000000E+00 0. -1.
         12    1    1    0    0    0  0.41896617090E-02 -0.24964787714E-02  0.10704287884E-03  0.48782301780E-02  0.00000000000E+00 0.  1.
         14    1    1    0    0    0 -0.51880435323E-03  0.25199002893E-02  0.15836722499E-02  0.30211046357E-02  0.00000000000E+00 0.  1.
     999901    1    1    0    0    0 -0.16863005681E-01  0.72585927538E-02  0.61066346102E-02  0.90020794215E+00  0.90000000000E+00 0. -1.
     999903    1    1    0    0    0  0.10966013743E-01 -0.34224177099E-02 -0.78408384899E-02  0.24360729640E-01  0.20000000000E-01 0.  0.
</event>
<event>
 7    1  0.5676831E-066  0.9118800E+02  0.7957747E-01            NaN
     999900   -1    0    0    0    0  0.00000000000E+00  0.00000000000E+00  0.99999998245E-14  0.93827000000E+00  0.93827000000E+00 0. -1.
        -11    1    1    0    0    0 -0.19632809472E-02 -0.10824507292E-02  0.30773494559E-03  0.23199123810E-02  0.51100000000E-03 0. -1.
        -14    1    1    0    0    0 -0.10760822158E-02  0.34047406018E-03 -0.10424740447E-02  0.15364334202E-02  0.00000000000E+00 0. -1.
         12    1    1    0    0    0 -0.28498121682E-02  0.21919195961E-02 -0.33411572203E-02  0.49080823628E-02  0.00000000000E+00 0.  1.
         14    1    1    0    0    0  0.92960945914E-03  0.35968377360E-02 -0.13805472025E-02  0.39632469042E-02  0.00000000000E+00 0.  1.
     999901    1    1    0    0    0 -0.96666896386E-02 -0.38340571967E-02  0.10982442183E-01  0.90012707932E+00  0.90000000000E+00 0. -1.
     999903    1    1    0    0    0  0.14626255511E-01 -0.12127234664E-02 -0.55259986609E-02  0.25415245615E-01  0.20000000000E-01 0.  0.
</event>
<event>
 7    1  0.5676831E-066  0.9118800E+02  0.7957747E-01            NaN
     999900   -1    0    0    0    0  0.00000000000E+00  0.00000000000E+00  0.99999998245E-14  0.93827000000E+00  0.93827000000E+00 0. -1.
        -11    1    1    0    0    0  0.14406756686E-02  0.92597115369E-03 -0.16267167643E-02  0.24166707246E-02  0.51100000000E-03 0. -1.
        -14    1    1    0    0    0 -0.35815222136E-02  0.70811009955E-03  0.14120882581E-02  0.39144239076E-02  0.00000000000E+00 0. -1.
         12    1    1    0    0    0  0.66959263289E-03 -0.12701344339E-03 -0.76472688189E-03  0.10243504833E-02  0.00000000000E+00 0.  1.
         14    1    1    0    0    0 -0.69731333833E-03  0.13626210725E-02  0.19717124061E-03  0.15433271128E-02  0.00000000000E+00 0.  1.
     999901    1    1    0    0    0  0.11005503291E-02  0.87641859565E-02 -0.16946477736E-01  0.90020286895E+00  0.90000000000E+00 0.  1.
     999903    1    1    0    0    0  0.10680169213E-02 -0.11633874839E-01  0.17728661883E-01  0.29168358817E-01  0.20000000000E-01 0.  0.
</event>
<event>
 7    1  0.5676831E-066  0.9118800E+02  0.7957747E-01            NaN
     999900   -1    0    0    0    0  0.00000000000E+00  0.00000000000E+00  0.99999998245E-14  0.93827000000E+00  0.93827000000E+00 0. -1.
        -11    1    1    0    0    0  0.24501099316E-02  0.77477615099E-03 -0.71251818649E-03  0.27151648066E-02  0.51100000000E-03 0. -1.
        -14    1    1    0    0    0 -0.39548673611E-03 -0.29707449812E-03 -0.11842232639E-02  0.12833735835E-02  0.00000000000E+00 0. -1.
         12    1    1    0    0    0 -0.44376838691E-03  0.22640787027E-02  0.32505711770E-02  0.39861254032E-02  0.00000000000E+00 0.  1.
         14    1    1    0    0    0 -0.22589901227E-02 -0.17773306334E-02 -0.24416465913E-03  0.28847108929E-02  0.00000000000E+00 0.  1.
     999901    1    1    0    0    0  0.65541307385E-02 -0.14606324529E-01 -0.11958912853E-01  0.90022181541E+00  0.90000000000E+00 0.  1.
     999903    1    1    0    0    0 -0.59059954244E-02  0.13641874806E-01  0.10849247786E-01  0.27178809902E-01  0.20000000000E-01 0.  0.
</event>
<event>
 7    1  0.5676831E-066  0.9118800E+02  0.7957747E-01            NaN
     999900   -1    0    0    0    0  0.00000000000E+00  0.00000000000E+00  0.99999998245E-14  0.93827000000E+00  0.93827000000E+00 0. -1.
        -11    1    1    0    0    0 -0.14990951963E-02  0.11108263584E-02 -0.14172299148E-02  0.23980999224E-02  0.51100000000E-03 0. -1.
        -14    1    1    0    0    0  0.11949049718E-02 -0.28591762103E-03 -0.90164517891E-03  0.15239786109E-02  0.00000000000E+00 0. -1.
         12    1    1    0    0    0 -0.22808993184E-02  0.13454896202E-03 -0.71625327753E-03  0.23944986702E-02  0.00000000000E+00 0.  1.
         14    1    1    0    0    0 -0.13767071927E-02  0.67710263704E-03  0.50881357621E-02  0.53144064776E-02  0.00000000000E+00 0.  1.
     999901    1    1    0    0    0  0.20002929701E-01 -0.28974482781E-03 -0.81175297777E-02  0.90025890467E+00  0.90000000000E+00 0.  1.
     999903    1    1    0    0    0 -0.16041132965E-01 -0.13468155087E-02  0.60645223869E-02  0.26380111649E-01  0.20000000000E-01 0.  0.
</event>
<event>
 7    1  0.5676831E-066  0.9118800E+02  0.7957747E-01            NaN
     999900   -1    0    0    0    0  0.00000000000E+00  0.00000000000E+00  0.99999998245E-14  0.93827000000E+00  0.93827000000E+00 0.  1.
        -11    1    1    0    0    0  0.81850428015E-04  0.54324475052E-02 -0.54356829174E-02  0.77023343973E-02  0.51100000000E-03 0. -1.
        -14    1    1    0    0    0  0.68054908090E-03 -0.95025612073E-03  0.12974456393E-02  0.17462814588E-02  0.00000000000E+00 0. -1.
         12    1    1    0    0    0  0.20362419481E-03 -0.13599118206E-02  0.16689161751E-02  0.21624301542E-02  0.00000000000E+00 0.  1.
         14    1    1    0    0    0 -0.45366644329E-03  0.45366396195E-02 -0.20646413526E-02  0.50049631561E-02  0.00000000000E+00 0.  1.
     999901    1    1    0    0    0 -0.15204512444E-02 -0.36705916513E-03  0.70813996774E-03  0.90000163776E+00  0.90000000000E+00 0. -1.
     999903    1    1    0    0    0  0.10080939839E-02 -0.72918600183E-02  0.38258224879E-02  0.21652353076E-01  0.20000000000E-01 0.  0.
</event>
<event>
 7    1  0.5676831E-066  0.9118800E+02  0.7957747E-01            NaN
     999900   -1    0    0    0    0  0.00000000000E+00  0.00000000000E+00  0.99999998245E-14  0.93827000000E+00  0.93827000000E+00 0. -1.
        -11    1    1    0    0    0  0.58999977212E-03 -0.14474861297E-02 -0.50398047527E-03  0.17200096355E-02  0.51100000000E-03 0. -1.
        -14    1    1    0    0    0 -0.28568872545E-03  0.24675129639E-03  0.12951658652E-02  0.13490585119E-02  0.00000000000E+00 0. -1.
         12    1    1    0    0    0 -0.44715477697E-03 -0.87342772335E-03  0.11569535143E-02  0.15170249889E-02  0.00000000000E+00 0.  1.
         14    1    1    0    0    0  0.79854049290E-02  0.94736014022E-03 -0.28735735859E-02  0.85394149840E-02  0.00000000000E+00 0.  1.
     999901    1    1    0    0    0  0.52783630304E-02 -0.61451761091E-02 -0.13810506312E-02  0.90003751678E+00  0.90000000000E+00 0. -1.
     999903    1    1    0    0    0 -0.13120924229E-01  0.72719785256E-02  0.23064853128E-02  0.25106975103E-01  0.20000000000E-01 0.  0.
</event>
<event>
 7    1  0.5676831E-066  0.9118800E+02  0.7957747E-01            NaN
     999900   -1    0    0    0    0  0.00000000000E+00  0.00000000000E+00  0.99999998245E-14  0.93827000000E+00  0.93827000000E+00 0. -1.
        -11    1    1    0    0    0  0.87001697439E-02 -0.59412082385E-02  0.15934904069E-02  0.10667297764E-01  0.51100000000E-03 0. -1.
        -14    1    1    0    0    0 -0.31354274035E-02 -0.12353334928E-02  0.26558706709E-03  0.33804571186E-02  0.00000000000E+00 0. -1.
         12    1    1    0    0    0  0.55533183444E-03  0.74193311267E-03  0.55268706944E-03  0.10790371573E-02  0.00000000000E+00 0.  1.
         14    1    1    0    0    0  0.94026704046E-03 -0.89092374587E-03  0.87987991908E-03  0.15658977937E-02  0.00000000000E+00 0.  1.
     999901    1    1    0    0    0 -0.13429751759E-01  0.10248150969E-01 -0.62455082035E-02  0.90018019818E+00  0.90000000000E+00 0.  1.
     999903    1    1    0    0    0  0.63694105435E-02 -0.29226186041E-02  0.29538637410E-02  0.21397111982E-01  0.20000000000E-01 0.  0.
</event>
<event>
 7    1  0.5676831E-066  0.9118800E+02  0.7957747E-01            NaN
     999900   -1    0    0    0    0  0.00000000000E+00  0.00000000000E+00  0.99999998245E-14  0.93827000000E+00  0.93827000000E+00 0.  1.
        -11    1    1    0    0    0 -0.58978813409E-03 -0.68251347391E-03  0.33113064023E-02  0.34698048612E-02  0.51100000000E-03 0. -1.
        -14    1    1    0    0    0 -0.55789775599E-02  0.43339888931E-02 -0.10294198692E-02  0.71391985269E-02  0.00000000000E+00 0. -1.
         12    1    1    0    0    0 -0.15659200778E-02  0.57300387379E-03 -0.84911218128E-03  0.18712110051E-02  0.00000000000E+00 0.  1.
         14    1    1    0    0    0  0.96263700690E-03  0.12438662929E-02  0.24076269959E-02  0.28758548491E-02  0.00000000000E+00 0.  1.
     999901    1    1    0    0    0  0.10621525179E-01 -0.64340948512E-02 -0.13866051990E-01  0.90019246929E+00  0.90000000000E+00 0.  1.
     999903    1    1    0    0    0 -0.38494764140E-02  0.96574926535E-03  0.10025650642E-01  0.22721461465E-01  0.20000000000E-01 0.  0.
</event>
<event>
 7    1  0.5676831E-066  0.9118800E+02  0.7957747E-01            NaN
     999900   -1    0    0    0    0  0.00000000000E+00  0.00000000000E+00  0.99999998245E-14  0.93827000000E+00  0.93827000000E+00 0. -1.
        -11    1    1    0    0    0 -0.22026056843E-03  0.13090527001E-02 -0.27702234367E-02  0.31140636761E-02  0.51100000000E-03 0. -1.
        -14    1    1    0    0    0  0.34863953408E-02 -0.53553658933E-02  0.25863366813E-02  0.68937677472E-02  0.00000000000E+00 0. -1.
         12    1    1    0    0    0  0.11206616111E-02  0.39451591769E-03  0.57750921595E-03  0.13210004354E-02  0.00000000000E+00 0.  1.
         14    1    1    0    0    0 -0.39784086710E-02  0.51762650763E-03 -0.29740761222E-03  0.40229496694E-02  0.00000000000E+00 0.  1.
     999901    1    1    0    0    0 -0.50077749636E-03  0.13377871609E-01 -0.40129799474E-02  0.90010850581E+00  0.90000000000E+00 0.  1.
     999903    1    1    0    0    0  0.92389783921E-04 -0.10243700841E-01  0.39167650991E-02  0.22809712660E-01  0.20000000000E-01 0.  0.
</event>
<event>
 7    1  0.5676831E-066  0.9118800E+02  0.7957747E-01            NaN
     999900   -1    0    0    0    0  0.00000000000E+00  0.00000000000E+00  0.99999998245E-14  0.93827000000E+00  0.93827000000E+00 0.  1.
        -11    1    1    0    0    0 -0.89530402360E-03 -0.94525409384E-03  0.24703673621E-03  0.14202896696E-02  0.51100000000E-03 0. -1.
        -14    1    1    0    0    0  0.15999922706E-03  0.12828216618E-02  0.10697094575E-02  0.16779480005E-02  0.00000000000E+00 0. -1.
         12    1    1    0    0    0 -0.12189244362E-02  0.95962192481E-03  0.27348376353E-03  0.15752601019E-02  0.00000000000E+00 0.  1.
         14    1    1    0    0    0 -0.53642316192E-04 -0.75590864465E-02  0.31044335324E-02  0.81719136658E-02  0.00000000000E+00 0.  1.
     999901    1    1    0    0    0 -0.62811504716E-02  0.17760065113E-01 -0.10394213383E-01  0.90025713684E+00  0.90000000000E+00 0. -1.
     999903    1    1    0    0    0  0.82890220205E-02 -0.11498168160E-01  0.56995498928E-02  0.25167451720E-01  0.20000000000E-01 0.  0.
</event>
<event>
 7    1  0.5676831E-066  0.9118800E+02  0.7957747E-01            NaN
     999900   -1    0    0    0    0  0.00000000000E+00  0.00000000000E+00  0.99999998245E-14  0.93827000000E+00  0.93827000000E+00 0.  1.
        -11    1    1    0    0    0  0.51277525766E-02  0.20295263256E-02 -0.79962478232E-03  0.55958327696E-02  0.51100000000E-03 0. -1.
        -14    1    1    0    0    0 -0.88634799191E-03  0.84654946513E-03 -0.15475638760E-02  0.19741359401E-02  0.00000000000E+00 0. -1.
         12    1    1    0    0    0 -0.35652519529E-02 -0.19632125052E-02  0.27539205124E-02  0.49141940353E-02  0.00000000000E+00 0.  1.
         14    1    1    0    0    0  0.20545893137E-02 -0.39450911855E-03 -0.87590913718E-03  0.22680810191E-02  0.00000000000E+00 0.  1.
     999901    1    1    0    0    0  0.79417867487E-02 -0.16606471906E-02  0.63930756043E-02  0.90005927646E+00  0.90000000000E+00 0.  1.
     999903    1    1    0    0    0 -0.10672528694E-01  0.11422930237E-02 -0.59238983212E-02  0.23458479776E-01  0.20000000000E-01 0.  0.
</event>
<event>
 7    1  0.5676831E-066  0.9118800E+02  0.7957747E-01            NaN
     999900   -1    0    0    0    0  0.00000000000E+00  0.00000000000E+00  0.99999998245E-14  0.93827000000E+00  0.93827000000E+00 0.  1.
        -11    1    1    0    0    0 -0.97575079375E-03 -0.22056033565E-02  0.32360122069E-02  0.40681287812E-02  0.51100000000E-03 0. -1.
        -14    1    1    0    0    0 -0.55093157431E-02 -0.22866495789E-02 -0.88170008363E-03  0.60298193415E-02  0.00000000000E+00 0. -1.
         12    1    1    0    0    0  0.13362061094E-02 -0.23714210002E-02 -0.72921770871E-03  0.28179501049E-02  0.00000000000E+00 0.  1.
         14    1    1    0    0    0  0.22898876850E-03  0.31158868880E-02 -0.55576205562E-03  0.31733355349E-02  0.00000000000E+00 0.  1.
     999901    1    1    0    0    0  0.13178146681E-02 -0.43184002856E-02  0.25751965132E-02  0.90001500924E+00  0.90000000000E+00 0. -1.
     999903    1    1    0    0    0  0.36020569909E-02  0.80661873332E-02 -0.36445288721E-02  0.22165756999E-01  0.20000000000E-01 0.  0.
</event>
<event>
 7    1  0.5676831E-066  0.9118800E+02  0.7957747E-01            NaN
     999900   -1    0    0    0    0  0.00000000000E+00  0.00000000000E+00  0.99999998245E-14  0.93827000000E+00  0.93827000000E+00 0. -1.
        -11    1    1    0    0    0  0.14765356606E-02  0.31070090326E-02 -0.68756464916E-03  0.35450710617E-02  0.51100000000E-03 0. -1.
        -14    1    1    0    0    0  0.52843687083E-03 -0.14700512361E-02  0.72279887820E-03  0.17212595334E-02  0.00000000000E+00 0. -1.
         12    1    1    0    0    0  0.16173652646E-02  0.38447198192E-03 -0.16497146832E-02  0.23420605543E-02  0.00000000000E+00 0.  1.
         14    1    1    0    0    0 -0.47986966304E-02 -0.45847981379E-02 -0.36026817123E-02  0.75516341831E-02  0.00000000000E+00 0.  1.
     999901    1    1    0    0    0  0.90656994017E-02 -0.52829972828E-02  0.76546206542E-02  0.90009371189E+00  0.90000000000E+00 0. -1.
     999903    1    1    0    0    0 -0.78893405673E-02  0.78463656423E-02 -0.24374584877E-02  0.23016262778E-01  0.20000000000E-01 0.  0.
</event>
<event>
 7    1  0.5676831E-066  0.9118800E+02  0.7957747E-01            NaN
     999900   -1    0    0    0    0  0.00000000000E+00  0.00000000000E+00  0.99999998245E-14  0.93827000000E+00  0.93827000000E+00 0. -1.
        -11    1    1    0    0    0 -0.27627189620E-03  0.25200851359E-03 -0.42110807465E-03  0.76045214319E-03  0.51100000000E-03 0.  1.
        -14    1    1    0    0    0 -0.11378297274E-02  0.71372590441E-03  0.97706186011E-03  0.16609367940E-02  0.00000000000E+00 0. -1.
         12    1    1    0    0    0  0.29164000236E-02 -0.89791383832E-02 -0.47554621806E-02  0.10570938263E-01  0.00000000000E+00 0.  1.
         14    1    1    0    0    0  0.36384028593E-03 -0.97644626763E-04  0.17969755710E-03  0.41737925059E-03  0.00000000000E+00 0.  1.
     999901    1    1    0    0    0 -0.11038352343E-01  0.11509582850E-01 -0.66634296779E-02  0.90016593860E+00  0.90000000000E+00 0.  1.
     999903    1    1    0    0    0  0.91722136570E-02 -0.33985342576E-02  0.10683240516E-01  0.24694354950E-01  0.20000000000E-01 0.  0.
</event>
<event>
 7    1  0.5676831E-066  0.9118800E+02  0.7957747E-01            NaN
     999900   -1    0    0    0    0  0.00000000000E+00  0.00000000000E+00  0.99999998245E-14  0.93827000000E+00  0.93827000000E+00 0.  1.
        -11    1    1    0    0    0 -0.77642301129E-03  0.18532079885E-02 -0.25911029631E-02  0.33184556810E-02  0.51100000000E-03 0. -1.
        -14    1    1    0    0    0 -0.10554855800E-02 -0.20096943275E-02  0.29674027161E-03  0.22893177779E-02  0.00000000000E+00 0. -1.
         12    1    1    0    0    0  0.50619301651E-02  0.13353073369E-02  0.14496515553E-02  0.54320964933E-02  0.00000000000E+00 0.  1.
         14    1    1    0    0    0 -0.27018588726E-03 -0.37249814122E-03 -0.14128806425E-02  0.14859296715E-02  0.00000000000E+00 0.  1.
     999901    1    1    0    0    0 -0.65517554787E-02  0.52040606474E-02  0.16538629481E-01  0.90019083200E+00  0.90000000000E+00 0.  1.
     999903    1    1    0    0    0  0.35919197922E-02 -0.60103835041E-02 -0.14281037702E-01  0.25553368379E-01  0.20000000000E-01 0.  0.
</event>
<event>
 7    1  0.5676831E-066  0.9118800E+02  0.7957747E-01            NaN
     999900   -1    0    0    0    0  0.00000000000E+00  0.00000000000E+00  0.99999998245E-14  0.93827000000E+00  0.93827000000E+00 0. -1.
        -11    1    1    0    0    0  0.28292531670E-02 -0.53398330125E-03 -0.10626057255E-02  0.31112800544E-02  0.51100000000E-03 0. -1.
        -14    1    1    0    0    0 -0.22006798724E-02 -0.10339688821E-02 -0.11207351633E-02  0.26773365228E-02  0.00000000000E+00 0. -1.
         12    1    1    0    0    0  0.23363121221E-02 -0.34546551580E-02  0.18966544929E-02  0.45815166548E-02  0.00000000000E+00 0.  1.
         14    1    1    0    0    0  0.18644713158E-02 -0.34834599539E-04  0.28067347905E-03  0.18858007155E-02  0.00000000000E+00 0.  1.
     999901    1    1    0    0    0  0.45638507734E-02 -0.82709884759E-03  0.12210493140E-01  0.90009477777E+00  0.90000000000E+00 0. -1.
     999903    1    1    0    0    0 -0.93932075058E-02  0.58845407885E-02 -0.12204480224E-01  0.25919288282E-01  0.20000000000E-01 0.  0.
</event>
<event>
 7    1  0.5676831E-066  0.9118800E+02  0.7957747E-01            NaN
     999900   -1    0    0    0    0  0.00000000000E+00  0.00000000000E+00  0.99999998245E-14  0.93827000000E+00  0.93827000000E+00 0.  1.
        -11    1    1    0    0    0 -0.54728891315E-02 -0.23510601363E-02  0.44063550074E-02  0.74267815817E-02  0.51100000000E-03 0. -1.
        -14    1    1    0    0    0 -0.14357005009E-02  0.20070540868E-02  0.56276078808E-03  0.25310475579E-02  0.00000000000E+00 0. -1.
         12    1    1    0    0    0  0.98937444569E-03  0.35727539237E-02 -0.10315584699E-02  0.38480573371E-02  0.00000000000E+00 0.  1.
         14    1    1    0    0    0 -0.21083452842E-02 -0.17562101894E-02 -0.15077488581E-02  0.31309264900E-02  0.00000000000E+00 0.  1.
     999901    1    1    0    0    0  0.42287280118E-02  0.32561250450E-02  0.17612644303E-02  0.90001754791E+00  0.90000000000E+00 0. -1.
     999903    1    1    0    0    0  0.37988324591E-02 -0.47286627297E-02 -0.41910728978E-02  0.21315639125E-01  0.20000000000E-01 0.  0.
</event>
<event>
 7    1  0.5676831E-066  0.9118800E+02  0.7957747E-01            NaN
     999900   -1    0    0    0    0  0.00000000000E+00  0.00000000000E+00  0.99999998245E-14  0.93827000000E+00  0.93827000000E+00 0. -1.
        -11    1    1    0    0    0 -0.10729103878E-02  0.14880566322E-02 -0.35731228287E-02  0.40489229420E-02  0.51100000000E-03 0. -1.
        -14    1    1    0    0    0 -0.18974404745E-02  0.12057106003E-02  0.53206044188E-03  0.23102178944E-02  0.00000000000E+00 0. -1.
         12    1    1    0    0    0  0.16920174495E-02  0.18213534729E-02 -0.22641130205E-02  0.33625078873E-02  0.00000000000E+00 0.  1.
         14    1    1    0    0    0 -0.26394594108E-03  0.91776469679E-03  0.66733853274E-03  0.11650322810E-02  0.00000000000E+00 0.  1.
     999901    1    1    0    0    0  0.11471024781E-01  0.82239512696E-02  0.12009721130E-01  0.90019078599E+00  0.90000000000E+00 0.  1.
     999903    1    1    0    0    0 -0.99287454273E-02 -0.13656836672E-01 -0.73718842556E-02  0.27192533003E-01  0.20000000000E-01 0.  0.
</event>
<event>
 7    1  0.5676831E-066  0.9118800E+02  0.7957747E-01            NaN
     999900   -1    0    0    0    0  0.00000000000E+00  0.00000000000E+00  0.99999998245E-14  0.93827000000E+00  0.93827000000E+00 0.  1.
        -11    1    1    0    0    0  0.65600689557E-03  0.39863593338E-03 -0.39473688118E-02  0.40536523273E-02  0.51100000000E-03 0. -1.
        -14    1    1    0    0    0 -0.97146372045E-03  0.10311091876E-02 -0.11575027851E-03  0.14213817376E-02  0.00000000000E+00 0. -1.
         12    1    1    0    0    0  0.91360399895E-04  0.40096704839E-03 -0.81245878803E-03  0.91061000369E-03  0.00000000000E+00 0.  1.
         14    1    1    0    0    0 -0.32836436505E-02 -0.48248563092E-02  0.69121757116E-02  0.90465312189E-02  0.00000000000E+00 0.  1.
     999901    1    1    0    0    0  0.60822958796E-02 -0.75491496922E-02 -0.86361369531E-03  0.90005262614E+00  0.90000000000E+00 0. -1.
     999903    1    1    0    0    0 -0.25745558041E-02  0.10543293832E-01 -0.11729841379E-02  0.22785198577E-01  0.20000000000E-01 0.  0.
</event>
<event>
 7    1  0.5676831E-066  0.9118800E+02  0.7957747E-01            NaN
     999900   -1    0    0    0    0  0.00000000000E+00  0.00000000000E+00  0.99999998245E-14  0.93827000000E+00  0.93827000000E+00 0. -1.
        -11    1    1    0    0    0  0.62690279363E-03  0.10458380992E-02  0.40619723030E-02  0.42717121196E-02  0.51100000000E-03 0. -1.
        -14    1    1    0    0    0 -0.79704497706E-03  0.90726318497E-04  0.10223340328E-03  0.80868017725E-03  0.00000000000E+00 0. -1.
         12    1    1    0    0    0  0.46765171418E-02 -0.30728420024E-02 -0.15615166595E-02  0.58095184678E-02  0.00000000000E+00 0.  1.
         14    1    1    0    0    0 -0.24805368747E-02  0.89073509215E-03 -0.17319318240E-02  0.31537374707E-02  0.00000000000E+00 0.  1.
     999901    1    1    0    0    0  0.11490981957E-01  0.39855899225E-03 -0.38490869015E-03  0.90007352459E+00  0.90000000000E+00 0.  1.
     999903    1    1    0    0    0 -0.13516820041E-01  0.64698350034E-03 -0.48584853266E-03  0.24152827173E-01  0.20000000000E-01 0.  0.
</event>
<event>
 7    1  0.5676831E-066  0.9118800E+02  0.7957747E-01            NaN
     999900   -1    0    0    0    0  0.00000000000E+00  0.00000000000E+00  0.99999998245E-14  0.93827000000E+00  0.93827000000E+00 0.  1.
        -11    1    1    0    0    0  0.37282406625E-02 -0.23422948452E-02  0.22495718006E-02  0.49706959136E-02  0.51100000000E-03 0. -1.
        -14    1    1    0    0    0  0.11824164309E-02  0.46529490950E-03  0.54805823283E-03  0.13838265048E-02  0.00000000000E+00 0. -1.
         12    1    1    0    0    0 -0.33041529012E-02  0.39349454332E-02 -0.92342450661E-03  0.52205301241E-02  0.00000000000E+00 0.  1.
         14    1    1    0    0    0  0.62501309926E-03  0.12516247746E-02  0.18577220589E-02  0.23255831954E-02  0.00000000000E+00 0.  1.
     999901    1    1    0    0    0  0.72630779428E-02  0.66558321761E-02 -0.24586961352E-02  0.90005727462E+00  0.90000000000E+00 0. -1.
     999903    1    1    0    0    0 -0.94945952342E-02 -0.99654024481E-02 -0.12732314505E-02  0.24312089646E-01  0.20000000000E-01 0.  0.
</event>
<event>
 7    1  0.5676831E-066  0.9118800E+02  0.7957747E-01            NaN
     999900   -1    0    0    0    0  0.00000000000E+00  0.00000000000E+00  0.99999998245E-14  0.93827000000E+00  0.93827000000E+00 0.  1.
        -11    1    1    0    0    0 -0.29656947136E-02 -0.15225470699E-02 -0.23338921515E-02  0.41014227152E-02  0.51100000000E-03 0. -1.
        -14    1    1    0    0    0 -0.25315707714E-02  0.35615866195E-03  0.28855675511E-02  0.38551523517E-02  0.00000000000E+00 0. -1.
         12    1    1    0    0    0 -0.23167437814E-02 -0.11760068934E-02 -0.13529601584E-02  0.29292994303E-02  0.00000000000E+00 0.  1.
         14    1    1    0    0    0 -0.94234138389E-03 -0.15527831249E-03  0.10285010348E-02  0.14035430227E-02  0.00000000000E+00 0.  1.
     999901    1    1    0    0    0 -0.32175188983E-02  0.12649207698E-01  0.45741798285E-02  0.90010625929E+00  0.90000000000E+00 0.  1.
     999903    1    1    0    0    0  0.11973869549E-01 -0.10151534085E-01 -0.48013961045E-02  0.25874323195E-01  0.20000000000E-01 0.  0.
</event>
<event>
 7    1  0.5676831E-066  0.9118800E+02  0.7957747E-01            NaN
     999900   -1    0    0    0    0  0.00000000000E+00  0.00000000000E+00  0.99999998245E-14  0.93827000000E+00  0.93827000000E+00 0. -1.
        -11    1    1    0    0    0  0.25807247370E-02  0.73618497793E-02  0.29466562293E-02  0.83546918720E-02  0.51100000000E-03 0. -1.
        -14    1    1    0    0    0 -0.26470166422E-04 -0.21749269181E-02 -0.25250736927E-02  0.33327173480E-02  0.00000000000E+00 0. -1.
         12    1    1    0    0    0  0.29374922771E-03  0.14468009471E-02  0.83146339801E-04  0.14786598335E-02  0.00000000000E+00 0.  1.
         14    1    1    0    0    0 -0.23236201792E-02 -0.82077004469E-03  0.21207834500E-02  0.32512453991E-02  0.00000000000E+00 0.  1.
     999901    1    1    0    0    0  0.42621934826E-02 -0.34538330800E-03  0.22900818290E-02  0.90001307216E+00  0.90000000000E+00 0. -1.
     999903    1    1    0    0    0 -0.47865771017E-02 -0.54675704557E-02 -0.49155941555E-02  0.21839613388E-01  0.20000000000E-01 0.  0.
</event>
<event>
 7    1  0.5676831E-066  0.9118800E+02  0.7957747E-01            NaN
     999900   -1    0    0    0    0  0.00000000000E+00  0.00000000000E+00  0.99999998245E-14  0.93827000000E+00  0.93827000000E+00 0. -1.
        -11    1    1    0    0    0  0.77554167897E-03  0.54163881289E-03 -0.43838655696E-02  0.45137828738E-02  0.51100000000E-03 0. -1.
        -14    1    1    0    0    0  0.98008997444E-03 -0.55392592804E-02  0.21682102711E-02  0.60286901989E-02  0.00000000000E+00 0. -1.
         12    1    1    0    0    0  0.36619076212E-03  0.13166631342E-02 -0.88761248036E-03  0.16295868797E-02  0.00000000000E+00 0.  1.
         14    1    1    0    0    0  0.94966740481E-03 -0.34174351293E-02 -0.10789576575E-02  0.37074088889E-02  0.00000000000E+00 0.  1.
     999901    1    1    0    0    0  0.61389096129E-02  0.10524870545E-01  0.32820665765E-02  0.90008845736E+00  0.90000000000E+00 0. -1.
     999903    1    1    0    0    0 -0.92103994333E-02 -0.34264780820E-02  0.90015885985E-03  0.22302073799E-01  0.20000000000E-01 0.  0.
</event>
<event>
 7    1  0.5676831E-066  0.9118800E+02  0.7957747E-01            NaN
     999900   -1    0    0    0    0  0.00000000000E+00  0.00000000000E+00  0.99999998245E-14  0.93827000000E+00  0.93827000000E+00 0.  1.
        -11    1    1    0    0    0 -0.28166397982E-02 -0.16441214074E-02  0.23323700445E-02  0.40419878747E-02  0.51100000000E-03 0. -1.
        -14    1    1    0    0    0  0.15613362210E-02 -0.33644271237E-02  0.21028178878E-02  0.42636819457E-02  0.00000000000E+00 0. -1.
         12    1    1    0    0    0 -0.16959735438E-02  0.24868810821E-03  0.69792814663E-04  0.17155299687E-02  0.00000000000E+00 0.  1.
         14    1    1    0    0    0  0.26710043265E-02 -0.19277978904E-02  0.58749736467E-03  0.33460158355E-02  0.00000000000E+00 0.  1.
     999901    1    1    0    0    0  0.89837501706E-02  0.18106086722E-01 -0.63777733420E-02  0.90024952882E+00  0.90000000000E+00 0.  1.
     999903    1    1    0    0    0 -0.87034773761E-02 -0.11418428409E-01  0.12852952304E-02  0.24653255558E-01  0.20000000000E-01 0.  0.
</event>
<event>
 7    1  0.5676831E-066  0.9118800E+02  0.7957747E-01            NaN
     999900   -1    0    0    0    0  0.00000000000E+00  0.00000000000E+00  0.99999998245E-14  0.93827000000E+00  0.93827000000E+00 0.  1.
        -11    1    1    0    0    0 -0.23790291125E-03 -0.10056471407E-02 -0.82935367823E-04  0.11558214576E-02  0.51100000000E-03 0. -1.
        -14    1    1    0    0    0  0.17523250984E-02 -0.70876001869E-03 -0.15886602856E-03  0.18968981074E-02  0.00000000000E+00 0. -1.
         12    1    1    0    0    0 -0.41064009178E-03  0.29306640136E-02  0.21883208619E-02  0.36805115188E-02  0.00000000000E+00 0.  1.
         14    1    1    0    0    0  0.25620138065E-02 -0.35186720321E-02 -0.29592630534E-02  0.52632884619E-02  0.00000000000E+00 0.  1.
     999901    1    1    0    0    0  0.12655798374E-01  0.63486640706E-02 -0.28617095575E-03  0.90011141347E+00  0.90000000000E+00 0.  1.
     999903    1    1    0    0    0 -0.16321594276E-01 -0.40462488927E-02  0.12989145437E-02  0.26162066983E-01  0.20000000000E-01 0.  0.
</event>
<event>
 7    1  0.5676831E-066  0.9118800E+02  0.7957747E-01            NaN
     999900   -1    0    0    0    0  0.00000000000E+00  0.00000000000E+00  0.99999998245E-14  0.93827000000E+00  0.93827000000E+00 0.  1.
        -11    1    1    0    0    0  0.12444189582E-02 -0.30944110544E-03  0.17081540777E-03  0.13909102217E-02  0.51100000000E-03 0.  1.
        -14    1    1    0    0    0  0.72131074342E-02 -0.29505433377E-02 -0.24995803858E-02  0.81842853659E-02  0.00000000000E+00 0. -1.
         12    1    1    0    0    0 -0.17084261128E-02 -0.14248899525E-02 -0.11706153919E-02  0.25138360239E-02  0.00000000000E+00 0.  1.
         14    1    1    0    0    0  0.80375209059E-03  0.66263928011E-03 -0.57099844902E-03  0.11879172814E-02  0.00000000000E+00 0.  1.
     999901    1    1    0    0    0  0.52224876277E-02  0.11092764062E-01  0.13813693255E-02  0.90008456934E+00  0.90000000000E+00 0. -1.
     999903    1    1    0    0    0 -0.12775339998E-01 -0.70705289462E-02  0.26890094934E-02  0.24908481762E-01  0.20000000000E-01 0.  0.
</event>
<event>
 7    1  0.5676831E-066  0.9118800E+02  0.7957747E-01            NaN
     999900   -1    0    0    0    0  0.00000000000E+00  0.00000000000E+00  0.99999998245E-14  0.93827000000E+00  0.93827000000E+00 0.  1.
        -11    1    1    0    0    0  0.44737482429E-02 -0.32214641470E-02  0.15190198462E-02  0.57411494393E-02  0.51100000000E-03 0. -1.
        -14    1    1    0    0    0 -0.28982087030E-02 -0.16489230061E-02 -0.12206439624E-02  0.35508495390E-02  0.00000000000E+00 0. -1.
         12    1    1    0    0    0 -0.12748435948E-03  0.39670043203E-03  0.26025881112E-02  0.26357329856E-02  0.00000000000E+00 0.  1.
         14    1    1    0    0    0  0.36299106676E-02  0.45650877237E-03 -0.45370198149E-03  0.36865291538E-02  0.00000000000E+00 0.  1.
     999901    1    1    0    0    0  0.67169476333E-03  0.13348310595E-02 -0.10815799979E-01  0.90006622783E+00  0.90000000000E+00 0. -1.
     999903    1    1    0    0    0 -0.57496606114E-02  0.26823468892E-02  0.83685379652E-02  0.22589511054E-01  0.20000000000E-01 0.  0.
</event>
<event>
 7    1  0.5676831E-066  0.9118800E+02  0.7957747E-01            NaN
     999900   -1    0    0    0    0  0.00000000000E+00  0.00000000000E+00  0.99999998245E-14  0.93827000000E+00  0.93827000000E+00 0.  1.
        -11    1    1    0    0    0  0.19633343770E-02  0.16337039334E-03  0.30938755348E-02  0.37033172409E-02  0.51100000000E-03 0. -1.
        -14    1    1    0    0    0 -0.16226735439E-02 -0.15981703644E-03 -0.72055659887E-03  0.17826420637E-02  0.00000000000E+00 0. -1.
         12    1    1    0    0    0  0.18307521511E-02 -0.50583621566E-02  0.29177081231E-02  0.61197795579E-02  0.00000000000E+00 0.  1.
         14    1    1    0    0    0 -0.43762185376E-02  0.94656190939E-03  0.23267388788E-04  0.44774780299E-02  0.00000000000E+00 0.  1.
     999901    1    1    0    0    0  0.11508550873E-01  0.29727703604E-02 -0.56818564225E-02  0.90009642128E+00  0.90000000000E+00 0. -1.
     999903    1    1    0    0    0 -0.93037453193E-02  0.11354765299E-02  0.36756197459E-03  0.22090361829E-01  0.20000000000E-01 0.  0.
</event>
<event>
 7    1  0.5676831E-066  0.9118800E+02  0.7957747E-01            NaN
     999900   -1    0    0    0    0  0.00000000000E+00  0.00000000000E+00  0.99999998245E-14  0.93827000000E+00  0.93827000000E+00 0.  1.
        -11    1    1    0    0    0  0.13445214598E-03 -0.99118245201E-03  0.94139768606E-03  0.14655615429E-02  0.51100000000E-03 0. -1.
        -14    1    1    0    0    0  0.19774487069E-02  0.11444852906E-02 -0.59799672231E-03  0.23617260740E-02  0.00000000000E+00 0. -1.
         12    1    1    0    0    0 -0.45037794105E-02 -0.25430655955E-02  0.24792840701E-02  0.57356831417E-02  0.00000000000E+00 0.  1.
         14    1    1    0    0    0  0.10582380235E-02 -0.19869602851E-02 -0.19311729250E-02  0.29660255824E-02  0.00000000000E+00 0.  1.
     999901    1    1    0    0    0 -0.91795394814E-02  0.15239343608E-01 -0.58006909488E-02  0.90019450651E+00  0.90000000000E+00 0.  1.
     999903    1    1    0    0    0  0.10513180016E-01 -0.10862620566E-01  0.49091788400E-02  0.25546497147E-01  0.20000000000E-01 0.  0.
</event>
<event>
 7    1  0.5676831E-066  0.9118800E+02  0.7957747E-01            NaN
     999900   -1    0    0    0    0  0.00000000000E+00  0.00000000000E+00  0.99999998245E-14  0.93827000000E+00  0.93827000000E+00 0.  1.
        -11    1    1    0    0    0 -0.46943097247E-02  0.53070550733E-02 -0.60221048974E-02  0.93128001019E-02  0.51100000000E-03 0. -1.
        -14    1    1    0    0    0  0.54578669375E-03 -0.13518753363E-02 -0.28698000666E-03  0.14858692958E-02  0.00000000000E+00 0. -1.
         12    1    1    0    0    0 -0.24418852182E-02  0.11458382981E-02  0.13011080160E-02  0.29947672520E-02  0.00000000000E+00 0.  1.
         14    1    1    0    0    0  0.37806039781E-03  0.38318668035E-04 -0.10629991586E-02  0.11288778481E-02  0.00000000000E+00 0.  1.
     999901    1    1    0    0    0  0.44830912447E-02 -0.14780799743E-01  0.12322873554E-01  0.90021687574E+00  0.90000000000E+00 0.  1.
     999903    1    1    0    0    0  0.17292566068E-02  0.96414630403E-02 -0.62518975079E-02  0.23130809766E-01  0.20000000000E-01 0.  0.
</event>
<event>
 7    1  0.5676831E-066  0.9118800E+02  0.7957747E-01            NaN
     999900   -1    0    0    0    0  0.00000000000E+00  0.00000000000E+00  0.99999998245E-14  0.93827000000E+00  0.93827000000E+00 0. -1.
        -11    1    1    0    0    0  0.11849803726E-02 -0.40333485661E-02  0.23433224542E-03  0.42412394109E-02  0.51100000000E-03 0. -1.
        -14    1    1    0    0    0 -0.31765264164E-02  0.74486188172E-03 -0.10548176183E-02  0.34289618698E-02  0.00000000000E+00 0. -1.
         12    1    1    0    0    0 -0.13369408364E-02  0.95025238270E-03 -0.27936438330E-02  0.32395734683E-02  0.00000000000E+00 0.  1.
         14    1    1    0    0    0  0.18158597835E-02 -0.94363471410E-03 -0.13468272052E-02  0.24498442293E-02  0.00000000000E+00 0.  1.
     999901    1    1    0    0    0  0.14924489576E-01  0.53471916808E-02  0.10121501977E-01  0.90019652168E+00  0.90000000000E+00 0. -1.
     999903    1    1    0    0    0 -0.13411862479E-01 -0.20653226650E-02 -0.51605455663E-02  0.24713859339E-01  0.20000000000E-01 0.  0.
</event>
<event>
 7    1  0.5676831E-066  0.9118800E+02  0.7957747E-01            NaN
     999900   -1    0    0    0    0  0.00000000000E+00  0.00000000000E+00  0.99999998245E-14  0.93827000000E+00  0.93827000000E+00 0. -1.
        -11    1    1    0    0    0 -0.79245930088E-03 -0.30002905428E-02 -0.24537088291E-02  0.39889275630E-02  0.51100000000E-03 0. -1.
        -14    1    1    0    0    0  0.12243841252E-02  0.42568609694E-02 -0.13954934361E-02  0.46440697378E-02  0.00000000000E+00 0. -1.
         12    1    1    0    0    0  0.38965816644E-03 -0.31720183687E-02 -0.40724426170E-03  0.32217048137E-02  0.00000000000E+00 0.  1.
         14    1    1    0    0    0  0.27158936488E-02  0.40150987982E-02 -0.78069702525E-04  0.48480090294E-02  0.00000000000E+00 0.  1.
     999901    1    1    0    0    0 -0.31783673492E-02  0.53096339091E-03  0.11721300477E-01  0.90008209227E+00  0.90000000000E+00 0. -1.
     999903    1    1    0    0    0 -0.35910929034E-03 -0.26306142471E-02 -0.73867842477E-02  0.21485196586E-01  0.20000000000E-01 0.  0.
</event>
<event>
 7    1  0.5676831E-066  0.9118800E+02  0.7957747E-01            NaN
     999900   -1    0    0    0    0  0.00000000000E+00  0.00000000000E+00  0.99999998245E-14  0.93827000000E+00  0.93827000000E+00 0. -1.
        -11    1    1    0    0    0 -0.30560042824E-02 -0.15869842882E-02  0.32316502141E-03  0.34961747577E-02  0.51100000000E-03 0. -1.
        -14    1    1    0    0    0 -0.38857365403E-03 -0.14387176533E-02 -0.25552943875E-02  0.29581121306E-02  0.00000000000E+00 0. -1.
         12    1    1    0    0    0  0.68548091985E-03 -0.29239911304E-02  0.13245413465E-02  0.32823799294E-02  0.00000000000E+00 0.  1.
         14    1    1    0    0    0 -0.36459400903E-03 -0.68850654386E-02 -0.31676189764E-02  0.75875466960E-02  0.00000000000E+00 0.  1.
     999901    1    1    0    0    0  0.39250536786E-02  0.11302119371E-01 -0.16124639490E-02  0.90008096524E+00  0.90000000000E+00 0. -1.
     999903    1    1    0    0    0 -0.80136265297E-03  0.15326391392E-02  0.56876709450E-02  0.20864821246E-01  0.20000000000E-01 0.  0.
</event>
<event>
 7    1  0.5676831E-066  0.9118800E+02  0.7957747E-01            NaN
     999900   -1    0    0    0    0  0.00000000000E+00  0.00000000000E+00  0.99999998245E-14  0.93827000000E+00  0.93827000000E+00 0. -1.
        -11    1    1    0    0    0 -0.25866649335E-03  0.17849816821E-02 -0.12130161572E-02  0.22328450814E-02  0.51100000000E-03 0. -1.
        -14    1    1    0    0    0  0.26405534178E-02 -0.10335995281E-02 -0.10536615035E-02  0.30250707265E-02  0.00000000000E+00 0. -1.
         12    1    1    0    0    0  0.24125323088E-02  0.28922756672E-02 -0.39683738465E-02  0.54711572507E-02  0.00000000000E+00 0.  1.
         14    1    1    0    0    0 -0.27390059488E-03 -0.10746651970E-02  0.89810288446E-03  0.14270653849E-02  0.00000000000E+00 0.  1.
     999901    1    1    0    0    0  0.60099095083E-02  0.47743374193E-02 -0.53670970041E-02  0.90004873148E+00  0.90000000000E+00 0. -1.
     999903    1    1    0    0    0 -0.10530428147E-01 -0.73433300434E-02  0.10704045627E-01  0.26065130076E-01  0.20000000000E-01 0.  0.
</event>
<event>
 7    1  0.5676831E-066  0.9118800E+02  0.7957747E-01            NaN
     999900   -1    0    0    0    0  0.00000000000E+00  0.00000000000E+00  0.99999998245E-14  0.93827000000E+00  0.93827000000E+00 0. -1.
        -11    1    1    0    0    0 -0.30705456625E-04  0.16799205564E-03 -0.13364651341E-02  0.14409802950E-02  0.51100000000E-03 0. -1.
        -14    1    1    0    0    0  0.12281913973E-02 -0.18095622810E-02  0.20790220359E-03  0.21968598233E-02  0.00000000000E+00 0. -1.
         12    1    1    0    0    0  0.27541447203E-02  0.26498724358E-02 -0.27354832751E-02  0.47000006186E-02  0.00000000000E+00 0.  1.
         14    1    1    0    0    0 -0.40064109650E-02 -0.35407461321E-02 -0.27573600454E-02  0.60159160909E-02  0.00000000000E+00 0.  1.
     999901    1    1    0    0    0 -0.30282973276E-02  0.14331291164E-01  0.24472909896E-02  0.90012251706E+00  0.90000000000E+00 0.  1.
     999903    1    1    0    0    0  0.30830776317E-02 -0.11798847242E-01  0.41741152615E-02  0.23793726109E-01  0.20000000000E-01 0.  0.
</event>
<event>
 7    1  0.5676831E-066  0.9118800E+02  0.7957747E-01            NaN
     999900   -1    0    0    0    0  0.00000000000E+00  0.00000000000E+00  0.99999998245E-14  0.93827000000E+00  0.93827000000E+00 0. -1.
        -11    1    1    0    0    0 -0.15567344345E-02  0.23414068193E-02  0.11612771413E-02  0.30846869520E-02  0.51100000000E-03 0. -1.
        -14    1    1    0    0    0  0.13440449508E-02 -0.29996933178E-02 -0.27236604669E-02  0.42688339356E-02  0.00000000000E+00 0. -1.
         12    1    1    0    0    0 -0.12130503012E-04  0.41591288648E-02  0.53281482980E-03  0.41931362614E-02  0.00000000000E+00 0.  1.
         14    1    1    0    0    0 -0.80681110373E-03 -0.18418401812E-02 -0.14457315689E-02  0.24765821569E-02  0.00000000000E+00 0.  1.
     999901    1    1    0    0    0 -0.57331339033E-02  0.48938117996E-02 -0.73342840196E-02  0.90006144787E+00  0.90000000000E+00 0.  1.
     999903    1    1    0    0    0  0.67647649937E-02 -0.65528139847E-02  0.98095840842E-02  0.24185312825E-01  0.20000000000E-01 0.  0.
</event>
<event>
 7    1  0.5676831E-066  0.9118800E+02  0.7957747E-01            NaN
     999900   -1    0    0    0    0  0.00000000000E+00  0.00000000000E+00  0.99999998245E-14  0.93827000000E+00  0.93827000000E+00 0.  1.
        -11    1    1    0    0    0  0.13830822217E-02 -0.42577598260E-02  0.25842960428E-02  0.51943375136E-02  0.51100000000E-03 0. -1.
        -14    1    1    0    0    0  0.45904785996E-02  0.57124947561E-02  0.24333900189E-02  0.77218182506E-02  0.00000000000E+00 0. -1.
         12    1    1    0    0    0 -0.21273807280E-02  0.89002337835E-03  0.80144833774E-03  0.24413540943E-02  0.00000000000E+00 0.  1.
         14    1    1    0    0    0 -0.11989221821E-02 -0.35745070832E-03 -0.10485385885E-03  0.12554599712E-02  0.00000000000E+00 0.  1.
     999901    1    1    0    0    0 -0.49599678442E-02 -0.31513393681E-02  0.21205564947E-02  0.90002168251E+00  0.90000000000E+00 0.  1.
     999903    1    1    0    0    0  0.23127099330E-02  0.11640317679E-02 -0.78348370354E-02  0.21635347664E-01  0.20000000000E-01 0.  0.
</event>
<event>
 7    1  0.5676831E-066  0.9118800E+02  0.7957747E-01            NaN
     999900   -1    0    0    0    0  0.00000000000E+00  0.00000000000E+00  0.99999998245E-14  0.93827000000E+00  0.93827000000E+00 0. -1.
        -11    1    1    0    0    0 -0.49735683737E-02  0.42080031169E-02  0.10580687712E-02  0.66199926831E-02  0.51100000000E-03 0. -1.
        -14    1    1    0    0    0  0.67125003834E-02 -0.26966801417E-03  0.28920086679E-03  0.67241370730E-02  0.00000000000E+00 0. -1.
         12    1    1    0    0    0 -0.15789963589E-03  0.63803937539E-04 -0.21667441490E-03  0.27559216159E-03  0.00000000000E+00 0.  1.
         14    1    1    0    0    0 -0.58499785328E-03 -0.11093137819E-03  0.63870336299E-04  0.59883860836E-03  0.00000000000E+00 0.  1.
     999901    1    1    0    0    0  0.11863166587E-01 -0.29917514869E-02 -0.40023336180E-02  0.90009205306E+00  0.90000000000E+00 0.  1.
     999903    1    1    0    0    0 -0.12859201108E-01 -0.89945617516E-03  0.28078680585E-02  0.23959386419E-01  0.20000000000E-01 0.  0.
</event>
<event>
 7    1  0.5676831E-066  0.9118800E+02  0.7957747E-01            NaN
     999900   -1    0    0    0    0  0.00000000000E+00  0.00000000000E+00  0.99999998245E-14  0.93827000000E+00  0.93827000000E+00 0. -1.
        -11    1    1    0    0    0  0.31268033435E-02 -0.52138040353E-04  0.44426489906E-02  0.54569101677E-02  0.51100000000E-03 0. -1.
        -14    1    1    0    0    0 -0.34712970109E-03 -0.14526966907E-02  0.26612690857E-02  0.30517502930E-02  0.00000000000E+00 0. -1.
         12    1    1    0    0    0  0.93184467894E-03  0.25715879201E-02 -0.26070445606E-03  0.27476109167E-02  0.00000000000E+00 0.  1.
         14    1    1    0    0    0 -0.32605334635E-02  0.21801271822E-02  0.17130730755E-02  0.42800294811E-02  0.00000000000E+00 0.  1.
     999901    1    1    0    0    0 -0.61690760927E-02 -0.67815928778E-02 -0.16474108164E-01  0.90019744709E+00  0.90000000000E+00 0.  1.
     999903    1    1    0    0    0  0.57180912348E-02  0.35347125066E-02  0.79178214682E-02  0.22536252055E-01  0.20000000000E-01 0.  0.
</event>
<event>
 7    1  0.5676831E-066  0.9118800E+02  0.7957747E-01            NaN
     999900   -1    0    0    0    0  0.00000000000E+00  0.00000000000E+00  0.99999998245E-14  0.93827000000E+00  0.93827000000E+00 0. -1.
        -11    1    1    0    0    0  0.10144295247E-02  0.79920186460E-03 -0.32257234261E-02  0.35120084713E-02  0.51100000000E-03 0. -1.
        -14    1    1    0    0    0  0.38351967869E-02 -0.19262629540E-02 -0.80528341354E-03  0.43666583034E-02  0.00000000000E+00 0. -1.
         12    1    1    0    0    0 -0.90695439382E-03  0.47481400555E-02 -0.10725032724E-02  0.49515314326E-02  0.00000000000E+00 0.  1.
         14    1    1    0    0    0  0.54567286854E-03  0.52072097623E-03  0.11838457679E-02  0.14037093776E-02  0.00000000000E+00 0.  1.
     999901    1    1    0    0    0  0.29603458726E-02  0.67827939673E-02  0.48258764295E-02  0.90004336508E+00  0.90000000000E+00 0. -1.
     999903    1    1    0    0    0 -0.74486906589E-02 -0.10924593910E-01 -0.90621208531E-03  0.23992727335E-01  0.20000000000E-01 0.  0.
</event>
<event>
 7    1  0.5676831E-066  0.9118800E+02  0.7957747E-01            NaN
     999900   -1    0    0    0    0  0.00000000000E+00  0.00000000000E+00  0.99999998245E-14  0.93827000000E+00  0.93827000000E+00 0. -1.
        -11    1    1    0    0    0 -0.46493377655E-02  0.39568504446E-02  0.20473198111E-02  0.64595391869E-02  0.51100000000E-03 0. -1.
        -14    1    1    0    0    0 -0.28886878040E-02 -0.39475170541E-02  0.20421914985E-02  0.53007503467E-02  0.00000000000E+00 0. -1.
         12    1    1    0    0    0 -0.24164464257E-02  0.35737760561E-02  0.16445739997E-02  0.46168942232E-02  0.00000000000E+00 0.  1.
         14    1    1    0    0    0  0.24936435842E-04 -0.46455538618E-03 -0.64169741657E-04  0.46962888370E-03  0.00000000000E+00 0.  1.
     999901    1    1    0    0    0  0.48421140124E-02  0.35600040448E-03 -0.11526125843E-02  0.90001383396E+00  0.90000000000E+00 0.  1.
     999903    1    1    0    0    0  0.50874215469E-02 -0.34745544649E-02 -0.45173029833E-02  0.21409353399E-01  0.20000000000E-01 0.  0.
</event>
<event>
 7    1  0.5676831E-066  0.9118800E+02  0.7957747E-01            NaN
     999900   -1    0    0    0    0  0.00000000000E+00  0.00000000000E+00  0.99999998245E-14  0.93827000000E+00  0.93827000000E+00 0. -1.
        -11    1    1    0    0    0  0.14070442730E-02  0.81601421811E-03  0.23939282563E-02  0.29389906918E-02  0.51100000000E-03 0. -1.
        -14    1    1    0    0    0  0.49617915585E-03  0.10466818074E-02  0.61288996772E-03  0.13104849001E-02  0.00000000000E+00 0. -1.
         12    1    1    0    0    0  0.25101402411E-02 -0.38903085455E-03  0.63593700748E-04  0.25409040113E-02  0.00000000000E+00 0.  1.
         14    1    1    0    0    0  0.12499319559E-02  0.35229252319E-02  0.64360339500E-02  0.74428398538E-02  0.00000000000E+00 0.  1.
     999901    1    1    0    0    0 -0.16573353938E-02  0.31893095287E-02  0.20766886314E-03  0.90000720085E+00  0.90000000000E+00 0. -1.
     999903    1    1    0    0    0 -0.40059602321E-02 -0.81858999316E-02 -0.97141147379E-02  0.24029579693E-01  0.20000000000E-01 0.  0.
</event>
<event>
 7    1  0.5676831E-066  0.9118800E+02  0.7957747E-01            NaN
     999900   -1    0    0    0    0  0.00000000000E+00  0.00000000000E+00  0.99999998245E-14  0.93827000000E+00  0.93827000000E+00 0.  1.
        -11    1    1    0    0    0  0.10842672901E-02  0.22446660646E-02  0.86121439949E-04  0.25461145301E-02  0.51100000000E-03 0. -1.
        -14    1    1    0    0    0 -0.19995023139E-02 -0.69675583539E-03 -0.10306259294E-02  0.23549242035E-02  0.00000000000E+00 0. -1.
         12    1    1    0    0    0 -0.31637058330E-02 -0.44645476893E-02 -0.31744587831E-02  0.63260105306E-02  0.00000000000E+00 0.  1.
         14    1    1    0    0    0  0.12948337966E-02 -0.45994398150E-02  0.20014485877E-02  0.51804669309E-02  0.00000000000E+00 0.  1.
     999901    1    1    0    0    0 -0.50277675523E-02  0.99763463182E-02  0.48195202034E-02  0.90008223719E+00  0.90000000000E+00 0.  1.
     999903    1    1    0    0    0  0.78118746125E-02 -0.24602690431E-02 -0.27020055186E-02  0.21780246614E-01  0.20000000000E-01 0.  0.
</event>
<event>
 7    1  0.5676831E-066  0.9118800E+02  0.7957747E-01            NaN
     999900   -1    0    0    0    0  0.00000000000E+00  0.00000000000E+00  0.99999998245E-14  0.93827000000E+00  0.93827000000E+00 0.  1.
        -11    1    1    0    0    0 -0.42828508107E-03  0.25305931173E-02 -0.43067870443E-02  0.50395302639E-02  0.51100000000E-03 0. -1.
        -14    1    1    0    0    0 -0.26055640460E-02  0.13140438917E-02  0.22932120515E-04  0.29182531127E-02  0.00000000000E+00 0. -1.
         12    1    1    0    0    0 -0.35658489712E-02 -0.25916439391E-02 -0.43492894103E-02  0.61925936059E-02  0.00000000000E+00 0.  1.
         14    1    1    0    0    0 -0.43509032437E-04  0.32497860135E-02  0.10072153061E-02  0.34025703288E-02  0.00000000000E+00 0.  1.
     999901    1    1    0    0    0  0.18602014976E-02 -0.47715566836E-02  0.53956938138E-02  0.90003074482E+00  0.90000000000E+00 0.  1.
     999903    1    1    0    0    0  0.47830056332E-02  0.26877760016E-03  0.22302352142E-02  0.20686307873E-01  0.20000000000E-01 0.  0.
</event>
<event>
 7    1  0.5676831E-066  0.9118800E+02  0.7957747E-01            NaN
     999900   -1    0    0    0    0  0.00000000000E+00  0.00000000000E+00  0.99999998245E-14  0.93827000000E+00  0.93827000000E+00 0.  1.
        -11    1    1    0    0    0 -0.71853488877E-03 -0.16876557606E-02  0.30435277396E-03  0.19282701999E-02  0.51100000000E-03 0. -1.
        -14    1    1    0    0    0  0.50028231079E-03  0.10891884057E-02 -0.17578907563E-03  0.12114105715E-02  0.00000000000E+00 0. -1.
         12    1    1    0    0    0  0.12289589940E-02 -0.11392798560E-02  0.39336942291E-03  0.17213478156E-02  0.00000000000E+00 0.  1.
         14    1    1    0    0    0 -0.63041492902E-03 -0.82443462825E-02  0.35259023796E-02  0.89888072734E-02  0.00000000000E+00 0.  1.
     999901    1    1    0    0    0 -0.75639348863E-02  0.92454358923E-02  0.77299825394E-02  0.90011246177E+00  0.90000000000E+00 0.  1.
     999903    1    1    0    0    0  0.71836433993E-02  0.73665760106E-03 -0.11777818040E-01  0.24307702374E-01  0.20000000000E-01 0.  0.
</event>
<event>
 7    1  0.5676831E-066  0.9118800E+02  0.7957747E-01            NaN
     999900   -1    0    0    0    0  0.00000000000E+00  0.00000000000E+00  0.99999998245E-14  0.93827000000E+00  0.93827000000E+00 0. -1.
        -11    1    1    0    0    0 -0.39135102960E-02 -0.36538732112E-02 -0.13291082889E-02  0.55402167940E-02  0.51100000000E-03 0. -1.
        -14    1    1    0    0    0  0.20317191396E-02 -0.30199519783E-02  0.10945358547E-02  0.38007895693E-02  0.00000000000E+00 0. -1.
         12    1    1    0    0    0  0.29326443391E-02 -0.13074093983E-02  0.12507040032E-03  0.32133105607E-02  0.00000000000E+00 0.  1.
         14    1    1    0    0    0  0.20141872965E-02  0.37278698045E-02 -0.11817306602E-02  0.43989147636E-02  0.00000000000E+00 0.  1.
     999901    1    1    0    0    0 -0.29373017981E-02  0.11245009295E-01 -0.22875691977E-03  0.90007506926E+00  0.90000000000E+00 0. -1.
     999903    1    1    0    0    0 -0.12773868099E-03 -0.69916445119E-02  0.15199896138E-02  0.21241699051E-01  0.20000000000E-01 0.  0.
</event>
<event>
 7    1  0.5676831E-066  0.9118800E+02  0.7957747E-01            NaN
     999900   -1    0    0    0    0  0.00000000000E+00  0.00000000000E+00  0.99999998245E-14  0.93827000000E+00  0.93827000000E+00 0.  1.
        -11    1    1    0    0    0  0.15709371144E-02 -0.20390768507E-02 -0.31529467527E-03  0.26431438766E-02  0.51100000000E-03 0. -1.
        -14    1    1    0    0    0  0.17640408295E-02  0.54300502659E-02 -0.10192163890E-02  0.57996627476E-02  0.00000000000E+00 0. -1.
         12    1    1    0    0    0 -0.25263301264E-03 -0.18745767154E-02  0.66147056158E-03  0.20038474505E-02  0.00000000000E+00 0.  1.
         14    1    1    0    0    0  0.18513907660E-02  0.23494388945E-02  0.79030620910E-03  0.30938802161E-02  0.00000000000E+00 0.  1.
     999901    1    1    0    0    0  0.62366889546E-02 -0.12239582459E-01  0.32278344763E-02  0.90011061686E+00  0.90000000000E+00 0.  1.
     999903    1    1    0    0    0 -0.11170424652E-01  0.83737468643E-02 -0.33451001827E-02  0.24618848850E-01  0.20000000000E-01 0.  0.
</event>
<event>
 7    1  0.5676831E-066  0.9118800E+02  0.7957747E-01            NaN
     999900   -1    0    0    0    0  0.00000000000E+00  0.00000000000E+00  0.99999998245E-14  0.93827000000E+00  0.93827000000E+00 0.  1.
        -11    1    1    0    0    0 -0.15170584564E-02 -0.78184157826E-03 -0.89184594021E-03  0.19922983699E-02  0.51100000000E-03 0. -1.
        -14    1    1    0    0    0 -0.42967285139E-03  0.38416477027E-03  0.87185901530E-03  0.10451504545E-02  0.00000000000E+00 0. -1.
         12    1    1    0    0    0 -0.41136386352E-03 -0.12440874759E-02  0.74597377817E-05  0.13103547319E-02  0.00000000000E+00 0.  1.
         14    1    1    0    0    0 -0.23361813320E-02 -0.32427042089E-02  0.43439222039E-02  0.59027564676E-02  0.00000000000E+00 0.  1.
     999901    1    1    0    0    0  0.19813889659E-01  0.14914120346E-01 -0.10137392789E-01  0.90039868277E+00  0.90000000000E+00 0. -1.
     999903    1    1    0    0    0 -0.15119613156E-01 -0.10029651853E-01  0.58059977718E-02  0.27620757202E-01  0.20000000000E-01 0.  0.
</event>
