<event>
 8    1  0.1150307E+005  0.1043930E+01  0.7957747E-01            NaN
         13   -1    0    0    0    0  0.00000000000E+00  0.00000000000E+00  0.74505805969E-08  0.10566000000E+00  0.10566000000E+00 0.  1.
     999900   -1    0    0    0    0 -0.00000000000E+00 -0.00000000000E+00 -0.74505805969E-08  0.93827000000E+00  0.93827000000E+00 0.  1.
     999902    2    1    2    0    0 -0.17684477350E-01  0.14866538781E-01 -0.67474864631E-04  0.10208267693E+01  0.10205653011E+01 0.  0.
     999903    2    3    3    0    0  0.72951001301E-01 -0.70284001320E-01  0.75903590664E-01  0.12884189991E+00  0.24024792727E-01 0.  0.
         14    1    1    2    0    0  0.17684477350E-01 -0.14866538781E-01  0.67474864631E-04  0.23103230669E-01  0.00000000000E+00 0.  1.
     999901    1    3    3    0    0 -0.90635478651E-01  0.85150540101E-01 -0.75971065529E-01  0.89198486942E+00  0.88000000000E+00 0.  1.
        -11    1    4    4    0    0  0.37618153237E-01 -0.24248586347E-01  0.43304601240E-01  0.62278961153E-01  0.51100000000E-03 0. -1.
         11    1    4    4    0    0  0.35332848064E-01 -0.46035414974E-01  0.32598989424E-01  0.66562938762E-01  0.51100000000E-03 0.  1.
</event>
<event>
 8    1  0.1150307E+005  0.1043930E+01  0.7957747E-01            NaN
         13   -1    0    0    0    0  0.00000000000E+00  0.00000000000E+00  0.74505805969E-08  0.10566000000E+00  0.10566000000E+00 0. -1.
     999900   -1    0    0    0    0 -0.00000000000E+00 -0.00000000000E+00 -0.74505805969E-08  0.93827000000E+00  0.93827000000E+00 0. -1.
     999902    2    1    2    0    0  0.13962378972E-01  0.12531345550E-01  0.12664937963E-01  0.10212941147E+01  0.10210432339E+01 0.  0.
     999903    2    3    3    0    0 -0.27556185721E-01  0.12811077221E+00  0.52469608924E-02  0.13273493187E+00  0.20477260831E-01 0.  0.
         14    1    1    2    0    0 -0.13962378972E-01 -0.12531345550E-01 -0.12664937963E-01  0.22635885259E-01  0.00000000000E+00 0.  1.
     999901    1    3    3    0    0  0.41518564693E-01 -0.11557942666E+00  0.74179770708E-02  0.88855918287E+00  0.88000000000E+00 0.  1.
        -11    1    4    4    0    0 -0.11666467595E-01  0.62776684854E-01 -0.75142144146E-02  0.64294192324E-01  0.51100000000E-03 0.  1.
         11    1    4    4    0    0 -0.15889718126E-01  0.65334087360E-01  0.12761175307E-01  0.68440739545E-01  0.51100000000E-03 0. -1.
</event>
<event>
 8    1  0.1150307E+005  0.1043930E+01  0.7957747E-01            NaN
         13   -1    0    0    0    0  0.00000000000E+00  0.00000000000E+00  0.74505805969E-08  0.10566000000E+00  0.10566000000E+00 0. -1.
     999900   -1    0    0    0    0 -0.00000000000E+00 -0.00000000000E+00 -0.74505805969E-08  0.93827000000E+00  0.93827000000E+00 0. -1.
     999902    2    1    2    0    0 -0.45859465403E-02  0.19922220528E-01 -0.92129061959E-02  0.10215067215E+01  0.10212605832E+01 0.  0.
     999903    2    3    3    0    0  0.73427265276E-01 -0.97042804412E-01  0.38002810226E-01  0.12909638870E+00  0.20317352591E-01 0.  0.
         14    1    1    2    0    0  0.45859465403E-02 -0.19922220528E-01  0.92129061959E-02  0.22423278463E-01  0.00000000000E+00 0. -1.
     999901    1    3    3    0    0 -0.78013211816E-01  0.11696502494E+00 -0.47215716422E-01  0.89241033284E+00  0.88000000000E+00 0. -1.
        -11    1    4    4    0    0  0.34055883769E-01 -0.41840406330E-01  0.65381112018E-02  0.54345476722E-01  0.51100000000E-03 0.  1.
         11    1    4    4    0    0  0.39371381507E-01 -0.55202398083E-01  0.31464699024E-01  0.74750911978E-01  0.51100000000E-03 0. -1.
</event>
<event>
 8    1  0.1150307E+005  0.1043930E+01  0.7957747E-01            NaN
         13   -1    0    0    0    0  0.00000000000E+00  0.00000000000E+00  0.74505805969E-08  0.10566000000E+00  0.10566000000E+00 0.  1.
     999900   -1    0    0    0    0 -0.00000000000E+00 -0.00000000000E+00 -0.74505805969E-08  0.93827000000E+00  0.93827000000E+00 0.  1.
     999902    2    1    2    0    0  0.82971094053E-02 -0.54329302522E-02 -0.20586016762E-01  0.10210795549E+01  0.10208238411E+01 0.  0.
     999903    2    3    3    0    0 -0.12157030080E-01  0.77768995288E-01 -0.10526208200E+00  0.13287295265E+00  0.19475770351E-01 0.  0.
         14    1    1    2    0    0 -0.82971094053E-02  0.54329302522E-02  0.20586016762E-01  0.22850445110E-01  0.00000000000E+00 0.  1.
     999901    1    3    3    0    0  0.20454139485E-01 -0.83201925540E-01  0.84676065240E-01  0.88820660224E+00  0.88000000000E+00 0. -1.
        -11    1    4    4    0    0 -0.28402663642E-02  0.30009526761E-01 -0.25731719898E-01  0.39636111557E-01  0.51100000000E-03 0. -1.
         11    1    4    4    0    0 -0.93167637153E-02  0.47759468526E-01 -0.79530362103E-01  0.93236841095E-01  0.51100000000E-03 0.  1.
</event>
<event>
 8    1  0.1150307E+005  0.1043930E+01  0.7957747E-01            NaN
         13   -1    0    0    0    0  0.00000000000E+00  0.00000000000E+00  0.74505805969E-08  0.10566000000E+00  0.10566000000E+00 0.  1.
     999900   -1    0    0    0    0 -0.00000000000E+00 -0.00000000000E+00 -0.74505805969E-08  0.93827000000E+00  0.93827000000E+00 0.  1.
     999902    2    1    2    0    0  0.23609370940E-01 -0.10765460328E-02 -0.26487222968E-03  0.10202946133E+01  0.10200208167E+01 0.  0.
     999903    2    3    3    0    0 -0.10145160417E+00  0.73986819363E-01 -0.15385573207E-01  0.12816043509E+00  0.20540297767E-01 0.  0.
         14    1    1    2    0    0 -0.23609370940E-01  0.10765460328E-02  0.26487222968E-03  0.23635386708E-01  0.00000000000E+00 0. -1.
     999901    1    3    3    0    0  0.12506097510E+00 -0.75063365396E-01  0.15120700977E-01  0.89213417820E+00  0.88000000000E+00 0.  1.
        -11    1    4    4    0    0 -0.30089318479E-01  0.34018697286E-01 -0.43988055255E-02  0.45631671705E-01  0.51100000000E-03 0. -1.
         11    1    4    4    0    0 -0.71362285686E-01  0.39968122078E-01 -0.10986767681E-01  0.82528763385E-01  0.51100000000E-03 0.  1.
</event>
<event>
 8    1  0.1150307E+005  0.1043930E+01  0.7957747E-01            NaN
         13   -1    0    0    0    0  0.00000000000E+00  0.00000000000E+00  0.74505805969E-08  0.10566000000E+00  0.10566000000E+00 0.  1.
     999900   -1    0    0    0    0 -0.00000000000E+00 -0.00000000000E+00 -0.74505805969E-08  0.93827000000E+00  0.93827000000E+00 0.  1.
     999902    2    1    2    0    0 -0.83635906645E-02  0.22230801152E-01  0.32539831590E-02  0.10199561272E+01  0.10196743377E+01 0.  0.
     999903    2    3    3    0    0 -0.11409146898E+00 -0.29527599662E-01  0.52381765565E-01  0.13075938000E+00  0.21573679729E-01 0.  0.
         14    1    1    2    0    0  0.83635906645E-02 -0.22230801152E-01 -0.32539831590E-02  0.23973872759E-01  0.00000000000E+00 0.  1.
     999901    1    3    3    0    0  0.10572787832E+00  0.51758400814E-01 -0.49127782406E-01  0.88919674725E+00  0.88000000000E+00 0.  1.
        -11    1    4    4    0    0 -0.69577933684E-01 -0.17582506660E-01  0.43189246630E-01  0.83760405573E-01  0.51100000000E-03 0. -1.
         11    1    4    4    0    0 -0.44513535297E-01 -0.11945093002E-01  0.91925189351E-02  0.46998974423E-01  0.51100000000E-03 0.  1.
</event>
<event>
 8    1  0.1150307E+005  0.1043930E+01  0.7957747E-01            NaN
         13   -1    0    0    0    0  0.00000000000E+00  0.00000000000E+00  0.74505805969E-08  0.10566000000E+00  0.10566000000E+00 0. -1.
     999900   -1    0    0    0    0 -0.00000000000E+00 -0.00000000000E+00 -0.74505805969E-08  0.93827000000E+00  0.93827000000E+00 0. -1.
     999902    2    1    2    0    0 -0.19665157440E-01  0.12202794004E-01 -0.91378052830E-02  0.10190477556E+01  0.10187439336E+01 0.  0.
     999903    2    3    3    0    0 -0.10226832231E+00  0.56390811506E-01 -0.58833520809E-01  0.13268128072E+00  0.22454525402E-01 0.  0.
         14    1    1    2    0    0  0.19665157440E-01 -0.12202794004E-01  0.91378052830E-02  0.24882244353E-01  0.00000000000E+00 0. -1.
     999901    1    3    3    0    0  0.82603164873E-01 -0.44188017501E-01  0.49695715526E-01  0.88636647493E+00  0.88000000000E+00 0.  1.
        -11    1    4    4    0    0 -0.82976106737E-01  0.36538174730E-01 -0.50427672310E-01  0.10374624696E+00  0.51100000000E-03 0. -1.
         11    1    4    4    0    0 -0.19292215576E-01  0.19852636776E-01 -0.84058484993E-02  0.28935033761E-01  0.51100000000E-03 0.  1.
</event>
<event>
 8    1  0.1150307E+005  0.1043930E+01  0.7957747E-01            NaN
         13   -1    0    0    0    0  0.00000000000E+00  0.00000000000E+00  0.74505805969E-08  0.10566000000E+00  0.10566000000E+00 0.  1.
     999900   -1    0    0    0    0 -0.00000000000E+00 -0.00000000000E+00 -0.74505805969E-08  0.93827000000E+00  0.93827000000E+00 0.  1.
     999902    2    1    2    0    0 -0.29370845815E-02  0.25896660410E-02 -0.23361414289E-01  0.10202426930E+01  0.10199676780E+01 0.  0.
     999903    2    3    3    0    0 -0.95188541675E-01  0.86473312862E-01 -0.18336956264E-01  0.13143897859E+00  0.20036686971E-01 0.  0.
         14    1    1    2    0    0  0.29370845815E-02 -0.25896660410E-02  0.23361414289E-01  0.23687307015E-01  0.00000000000E+00 0.  1.
     999901    1    3    3    0    0  0.92251457093E-01 -0.83883646821E-01 -0.50244580245E-02  0.88880371439E+00  0.88000000000E+00 0.  1.
        -11    1    4    4    0    0 -0.10963371948E-01  0.14877686076E-01  0.33455753646E-02  0.18788162841E-01  0.51100000000E-03 0.  1.
         11    1    4    4    0    0 -0.84225169727E-01  0.71595626787E-01 -0.21682531629E-01  0.11265081575E+00  0.51100000000E-03 0. -1.
</event>
<event>
 8    1  0.1150307E+005  0.1043930E+01  0.7957747E-01            NaN
         13   -1    0    0    0    0  0.00000000000E+00  0.00000000000E+00  0.74505805969E-08  0.10566000000E+00  0.10566000000E+00 0.  1.
     999900   -1    0    0    0    0 -0.00000000000E+00 -0.00000000000E+00 -0.74505805969E-08  0.93827000000E+00  0.93827000000E+00 0.  1.
     999902    2    1    2    0    0  0.34397357407E-02 -0.21658492941E-01 -0.92294722742E-02  0.10201370335E+01  0.10198595304E+01 0.  0.
     999903    2    3    3    0    0  0.63081542012E-01 -0.11467493715E+00  0.11833879030E-01  0.13297703170E+00  0.20328013063E-01 0.  0.
         14    1    1    2    0    0 -0.34397357407E-02  0.21658492941E-01  0.92294722742E-02  0.23792966543E-01  0.00000000000E+00 0.  1.
     999901    1    3    3    0    0 -0.59641806272E-01  0.93016444204E-01 -0.21063351305E-01  0.88716000176E+00  0.88000000000E+00 0.  1.
        -11    1    4    4    0    0  0.20763572464E-01 -0.21500229089E-01  0.58914216466E-02  0.30468931100E-01  0.51100000000E-03 0. -1.
         11    1    4    4    0    0  0.42317969549E-01 -0.93174708056E-01  0.59424573838E-02  0.10250810060E+00  0.51100000000E-03 0.  1.
</event>
<event>
 8    1  0.1150307E+005  0.1043930E+01  0.7957747E-01            NaN
         13   -1    0    0    0    0  0.00000000000E+00  0.00000000000E+00  0.74505805969E-08  0.10566000000E+00  0.10566000000E+00 0.  1.
     999900   -1    0    0    0    0 -0.00000000000E+00 -0.00000000000E+00 -0.74505805969E-08  0.93827000000E+00  0.93827000000E+00 0.  1.
     999902    2    1    2    0    0  0.60562406689E-02  0.16976100886E-01  0.17035963567E-01  0.10191289898E+01  0.10188271727E+01 0.  0.
     999903    2    3    3    0    0 -0.60437060759E-01 -0.10960993847E+00  0.11436467326E-01  0.12757038889E+00  0.21827377556E-01 0.  0.
         14    1    1    2    0    0 -0.60562406689E-02 -0.16976100886E-01 -0.17035963567E-01  0.24801010202E-01  0.00000000000E+00 0. -1.
     999901    1    3    3    0    0  0.66493301428E-01  0.12658603936E+00  0.55994962410E-02  0.89155860091E+00  0.88000000000E+00 0.  1.
        -11    1    4    4    0    0  0.11858766697E-02 -0.87930997799E-02  0.39752947542E-03  0.88962946162E-02  0.51100000000E-03 0. -1.
         11    1    4    4    0    0 -0.61622937429E-01 -0.10081683869E+00  0.11038937851E-01  0.11867409427E+00  0.51100000000E-03 0.  1.
</event>
<event>
 8    1  0.1150307E+005  0.1043930E+01  0.7957747E-01            NaN
         13   -1    0    0    0    0  0.00000000000E+00  0.00000000000E+00  0.74505805969E-08  0.10566000000E+00  0.10566000000E+00 0. -1.
     999900   -1    0    0    0    0 -0.00000000000E+00 -0.00000000000E+00 -0.74505805969E-08  0.93827000000E+00  0.93827000000E+00 0.  1.
     999902    2    1    2    0    0 -0.95528465618E-02 -0.20444223450E-01  0.89735514570E-02  0.10196452769E+01  0.10193560433E+01 0.  0.
     999903    2    3    3    0    0  0.50325558760E-01  0.99516139138E-01  0.59736669790E-01  0.12804401726E+00  0.19765546438E-01 0.  0.
         14    1    1    2    0    0  0.95528465618E-02  0.20444223450E-01 -0.89735514570E-02  0.24284723092E-01  0.00000000000E+00 0.  1.
     999901    1    3    3    0    0 -0.59878405322E-01 -0.11996036259E+00 -0.50763118333E-01  0.89160125964E+00  0.88000000000E+00 0. -1.
        -11    1    4    4    0    0  0.22853399763E-01  0.26569379778E-01  0.14599395907E-01  0.37968583123E-01  0.51100000000E-03 0.  1.
         11    1    4    4    0    0  0.27472158997E-01  0.72946759360E-01  0.45137273883E-01  0.90075434141E-01  0.51100000000E-03 0. -1.
</event>
<event>
 8    1  0.1150307E+005  0.1043930E+01  0.7957747E-01            NaN
         13   -1    0    0    0    0  0.00000000000E+00  0.00000000000E+00  0.74505805969E-08  0.10566000000E+00  0.10566000000E+00 0. -1.
     999900   -1    0    0    0    0 -0.00000000000E+00 -0.00000000000E+00 -0.74505805969E-08  0.93827000000E+00  0.93827000000E+00 0. -1.
     999902    2    1    2    0    0  0.65486797104E-02  0.17863839583E-01 -0.14141765046E-01  0.10202236403E+01  0.10199481775E+01 0.  0.
     999903    2    3    3    0    0  0.19836735637E-01  0.22455259704E-01  0.12421386825E+00  0.12930280499E+00  0.19808976305E-01 0.  0.
         14    1    1    2    0    0 -0.65486797104E-02 -0.17863839583E-01  0.14141765046E-01  0.23706359678E-01  0.00000000000E+00 0. -1.
     999901    1    3    3    0    0 -0.13288055927E-01 -0.45914201216E-02 -0.13835563330E+00  0.89092083534E+00  0.88000000000E+00 0. -1.
        -11    1    4    4    0    0 -0.47662180437E-03  0.11621736098E-01  0.27080751187E-01  0.29477451113E-01  0.51100000000E-03 0. -1.
         11    1    4    4    0    0  0.20313357441E-01  0.10833523606E-01  0.97133117065E-01  0.99825353874E-01  0.51100000000E-03 0.  1.
</event>
<event>
 8    1  0.1150307E+005  0.1043930E+01  0.7957747E-01            NaN
         13   -1    0    0    0    0  0.00000000000E+00  0.00000000000E+00  0.74505805969E-08  0.10566000000E+00  0.10566000000E+00 0. -1.
     999900   -1    0    0    0    0 -0.00000000000E+00 -0.00000000000E+00 -0.74505805969E-08  0.93827000000E+00  0.93827000000E+00 0.  1.
     999902    2    1    2    0    0 -0.19312814644E-01 -0.10516959194E-01 -0.40916589088E-02  0.10215618773E+01  0.10213169617E+01 0.  0.
     999903    2    3    3    0    0  0.48927867122E-01 -0.46387068734E-01  0.11013607279E+00  0.13083665026E+00  0.21037542524E-01 0.  0.
         14    1    1    2    0    0  0.19312814644E-01  0.10516959194E-01  0.40916589088E-02  0.22368122692E-01  0.00000000000E+00 0.  1.
     999901    1    3    3    0    0 -0.68240681766E-01  0.35870109541E-01 -0.11422773170E+00  0.89072522705E+00  0.88000000000E+00 0.  1.
        -11    1    4    4    0    0  0.37811518175E-01 -0.36517873312E-01  0.66709181442E-01  0.84933161883E-01  0.51100000000E-03 0. -1.
         11    1    4    4    0    0  0.11116348947E-01 -0.98691954224E-02  0.43426891348E-01  0.45903488379E-01  0.51100000000E-03 0.  1.
</event>
<event>
 8    1  0.1150307E+005  0.1043930E+01  0.7957747E-01            NaN
         13   -1    0    0    0    0  0.00000000000E+00  0.00000000000E+00  0.74505805969E-08  0.10566000000E+00  0.10566000000E+00 0.  1.
     999900   -1    0    0    0    0 -0.00000000000E+00 -0.00000000000E+00 -0.74505805969E-08  0.93827000000E+00  0.93827000000E+00 0.  1.
     999902    2    1    2    0    0 -0.17998591145E-01  0.15749748292E-01  0.13414271054E-02  0.10199758087E+01  0.10196944871E+01 0.  0.
     999903    2    3    3    0    0 -0.38119550695E-01  0.10782335773E+00  0.64317592531E-01  0.13270561310E+00  0.19875875412E-01 0.  0.
         14    1    1    2    0    0  0.17998591145E-01 -0.15749748292E-01 -0.13414271054E-02  0.23954191307E-01  0.00000000000E+00 0. -1.
     999901    1    3    3    0    0  0.20120959550E-01 -0.92073609437E-01 -0.62976165426E-01  0.88727019559E+00  0.88000000000E+00 0. -1.
        -11    1    4    4    0    0 -0.27398099329E-01  0.80184700112E-01  0.57128690579E-01  0.10219682181E+00  0.51100000000E-03 0. -1.
         11    1    4    4    0    0 -0.10721451366E-01  0.27638657617E-01  0.71889019521E-02  0.30508791300E-01  0.51100000000E-03 0.  1.
</event>
<event>
 8    1  0.1150307E+005  0.1043930E+01  0.7957747E-01            NaN
         13   -1    0    0    0    0  0.00000000000E+00  0.00000000000E+00  0.74505805969E-08  0.10566000000E+00  0.10566000000E+00 0. -1.
     999900   -1    0    0    0    0 -0.00000000000E+00 -0.00000000000E+00 -0.74505805969E-08  0.93827000000E+00  0.93827000000E+00 0.  1.
     999902    2    1    2    0    0  0.16602447069E-01 -0.78334814161E-02 -0.15679732941E-01  0.10197875332E+01  0.10195017185E+01 0.  0.
     999903    2    3    3    0    0 -0.29713856769E-01 -0.11797855667E+00 -0.44978940294E-01  0.13122938585E+00  0.19904610606E-01 0.  0.
         14    1    1    2    0    0 -0.16602447069E-01  0.78334814161E-02  0.15679732941E-01  0.24142466835E-01  0.00000000000E+00 0. -1.
     999901    1    3    3    0    0  0.46316303837E-01  0.11014507525E+00  0.29299207352E-01  0.88855814731E+00  0.88000000000E+00 0. -1.
        -11    1    4    4    0    0 -0.25035229176E-01 -0.62282820950E-01 -0.20308695545E-01  0.70132850514E-01  0.51100000000E-03 0. -1.
         11    1    4    4    0    0 -0.46786275928E-02 -0.55695735719E-01 -0.24670244749E-01  0.61096535339E-01  0.51100000000E-03 0.  1.
</event>
<event>
 8    1  0.1150307E+005  0.1043930E+01  0.7957747E-01            NaN
         13   -1    0    0    0    0  0.00000000000E+00  0.00000000000E+00  0.74505805969E-08  0.10566000000E+00  0.10566000000E+00 0. -1.
     999900   -1    0    0    0    0 -0.00000000000E+00 -0.00000000000E+00 -0.74505805969E-08  0.93827000000E+00  0.93827000000E+00 0.  1.
     999902    2    1    2    0    0  0.10526460617E-01 -0.21281978155E-01  0.43184987689E-02  0.10197974825E+01  0.10195119063E+01 0.  0.
     999903    2    3    3    0    0  0.94779652467E-01  0.67688124280E-01 -0.53003976835E-01  0.12946038589E+00  0.19639380438E-01 0.  0.
         14    1    1    2    0    0 -0.10526460617E-01  0.21281978155E-01 -0.43184987689E-02  0.24132517459E-01  0.00000000000E+00 0.  1.
     999901    1    3    3    0    0 -0.84253191851E-01 -0.88970102435E-01  0.57322475604E-01  0.89033709665E+00  0.88000000000E+00 0. -1.
        -11    1    4    4    0    0  0.85522399055E-01  0.57964883654E-01 -0.40079820514E-01  0.11081814658E+00  0.51100000000E-03 0. -1.
         11    1    4    4    0    0  0.92572534123E-02  0.97232406262E-02 -0.12924156321E-01  0.18642239313E-01  0.51100000000E-03 0.  1.
</event>
<event>
 8    1  0.1150307E+005  0.1043930E+01  0.7957747E-01            NaN
         13   -1    0    0    0    0  0.00000000000E+00  0.00000000000E+00  0.74505805969E-08  0.10566000000E+00  0.10566000000E+00 0. -1.
     999900   -1    0    0    0    0 -0.00000000000E+00 -0.00000000000E+00 -0.74505805969E-08  0.93827000000E+00  0.93827000000E+00 0. -1.
     999902    2    1    2    0    0  0.18282102419E-01 -0.13054334291E-01 -0.72896810129E-02  0.10203124141E+01  0.10200390346E+01 0.  0.
     999903    2    3    3    0    0 -0.11907893893E+00 -0.33757275315E-01  0.29068479402E-01  0.12867426821E+00  0.19817756489E-01 0.  0.
         14    1    1    2    0    0 -0.18282102419E-01  0.13054334291E-01  0.72896810129E-02  0.23617585861E-01  0.00000000000E+00 0.  1.
     999901    1    3    3    0    0  0.13736104135E+00  0.20702941024E-01 -0.36358160415E-01  0.89163814593E+00  0.88000000000E+00 0. -1.
        -11    1    4    4    0    0 -0.63287190504E-01 -0.13395439407E-01  0.24244594684E-01  0.69085221076E-01  0.51100000000E-03 0.  1.
         11    1    4    4    0    0 -0.55791748422E-01 -0.20361835908E-01  0.48238847182E-02  0.59589047134E-01  0.51100000000E-03 0. -1.
</event>
<event>
 8    1  0.1150307E+005  0.1043930E+01  0.7957747E-01            NaN
         13   -1    0    0    0    0  0.00000000000E+00  0.00000000000E+00  0.74505805969E-08  0.10566000000E+00  0.10566000000E+00 0. -1.
     999900   -1    0    0    0    0 -0.00000000000E+00 -0.00000000000E+00 -0.74505805969E-08  0.93827000000E+00  0.93827000000E+00 0. -1.
     999902    2    1    2    0    0 -0.12132853578E-01  0.20563153900E-01  0.20342219917E-01  0.10125635315E+01  0.10120775909E+01 0.  0.
     999903    2    3    3    0    0 -0.15510556770E-01 -0.10270302241E+00  0.62820264219E-01  0.12295106344E+00  0.19547128208E-01 0.  0.
         14    1    1    2    0    0  0.12132853578E-01 -0.20563153900E-01 -0.20342219917E-01  0.31366468488E-01  0.00000000000E+00 0. -1.
     999901    1    3    3    0    0  0.33777031920E-02  0.12326617631E+00 -0.42478044301E-01  0.88961246807E+00  0.88000000000E+00 0.  1.
        -11    1    4    4    0    0 -0.10529343575E-01 -0.56540125647E-01  0.23592213117E-01  0.62165155232E-01  0.51100000000E-03 0. -1.
         11    1    4    4    0    0 -0.49812131944E-02 -0.46162896762E-01  0.39228051102E-01  0.60785908208E-01  0.51100000000E-03 0.  1.
</event>
<event>
 8    1  0.1150307E+005  0.1043930E+01  0.7957747E-01            NaN
         13   -1    0    0    0    0  0.00000000000E+00  0.00000000000E+00  0.74505805969E-08  0.10566000000E+00  0.10566000000E+00 0.  1.
     999900   -1    0    0    0    0 -0.00000000000E+00 -0.00000000000E+00 -0.74505805969E-08  0.93827000000E+00  0.93827000000E+00 0. -1.
     999902    2    1    2    0    0 -0.19300220598E-01  0.11155169178E-02 -0.87368130352E-03  0.10245778370E+01  0.10243950595E+01 0.  0.
     999903    2    3    3    0    0 -0.11541120835E+00 -0.28976998952E-01  0.63247576271E-01  0.13651566737E+00  0.21837079782E-01 0.  0.
         14    1    1    2    0    0  0.19300220598E-01 -0.11155169178E-02  0.87368130352E-03  0.19352162983E-01  0.00000000000E+00 0.  1.
     999901    1    3    3    0    0  0.96110987752E-01  0.30092515869E-01 -0.64121257575E-01  0.88806216964E+00  0.88000000000E+00 0. -1.
        -11    1    4    4    0    0 -0.58452377974E-01 -0.10420467191E-01  0.20095164469E-01  0.62684474819E-01  0.51100000000E-03 0.  1.
         11    1    4    4    0    0 -0.56958830375E-01 -0.18556531760E-01  0.43152411802E-01  0.73831192555E-01  0.51100000000E-03 0. -1.
</event>
<event>
 8    1  0.1150307E+005  0.1043930E+01  0.7957747E-01            NaN
         13   -1    0    0    0    0  0.00000000000E+00  0.00000000000E+00  0.74505805969E-08  0.10566000000E+00  0.10566000000E+00 0. -1.
     999900   -1    0    0    0    0 -0.00000000000E+00 -0.00000000000E+00 -0.74505805969E-08  0.93827000000E+00  0.93827000000E+00 0. -1.
     999902    2    1    2    0    0 -0.96991586620E-02 -0.27797891366E-02 -0.20410323759E-01  0.10211619913E+01  0.10209081399E+01 0.  0.
     999903    2    3    3    0    0  0.11185449706E+00  0.10766231693E-02  0.61135258374E-01  0.12906342882E+00  0.20180713828E-01 0.  0.
         14    1    1    2    0    0  0.96991586620E-02  0.27797891366E-02  0.20410323759E-01  0.22768008748E-01  0.00000000000E+00 0. -1.
     999901    1    3    3    0    0 -0.12155365572E+00 -0.38564123059E-02 -0.81545582133E-01  0.89209856244E+00  0.88000000000E+00 0. -1.
        -11    1    4    4    0    0  0.17239579572E-01  0.12540880964E-04  0.17178800009E-02  0.17332498199E-01  0.51100000000E-03 0. -1.
         11    1    4    4    0    0  0.94614917490E-01  0.10640822884E-02  0.59417378374E-01  0.11173093062E+00  0.51100000000E-03 0.  1.
</event>
<event>
 8    1  0.1150307E+005  0.1043930E+01  0.7957747E-01            NaN
         13   -1    0    0    0    0  0.00000000000E+00  0.00000000000E+00  0.74505805969E-08  0.10566000000E+00  0.10566000000E+00 0. -1.
     999900   -1    0    0    0    0 -0.00000000000E+00 -0.00000000000E+00 -0.74505805969E-08  0.93827000000E+00  0.93827000000E+00 0. -1.
     999902    2    1    2    0    0 -0.48740316060E-02 -0.23297008847E-01 -0.31850149123E-02  0.10199164387E+01  0.10196337043E+01 0.  0.
     999903    2    3    3    0    0  0.10346192553E+00 -0.55018563137E-01  0.54623761279E-01  0.13082432245E+00  0.19995892661E-01 0.  0.
         14    1    1    2    0    0  0.48740316060E-02  0.23297008847E-01  0.31850149123E-02  0.24013561279E-01  0.00000000000E+00 0. -1.
     999901    1    3    3    0    0 -0.10833595714E+00  0.31721554291E-01 -0.57808776191E-01  0.88909211627E+00  0.88000000000E+00 0. -1.
        -11    1    4    4    0    0  0.97634709149E-01 -0.56543796125E-01  0.51659384641E-01  0.12409146003E+00  0.51100000000E-03 0.  1.
         11    1    4    4    0    0  0.58272163820E-02  0.15252329878E-02  0.29643766380E-02  0.67328624137E-02  0.51100000000E-03 0. -1.
</event>
<event>
 8    1  0.1150307E+005  0.1043930E+01  0.7957747E-01            NaN
         13   -1    0    0    0    0  0.00000000000E+00  0.00000000000E+00  0.74505805969E-08  0.10566000000E+00  0.10566000000E+00 0. -1.
     999900   -1    0    0    0    0 -0.00000000000E+00 -0.00000000000E+00 -0.74505805969E-08  0.93827000000E+00  0.93827000000E+00 0.  1.
     999902    2    1    2    0    0  0.22267717888E-01 -0.56437058090E-02  0.15003945821E-02  0.10209092733E+01  0.10206496903E+01 0.  0.
     999903    2    3    3    0    0  0.12307658853E+00  0.66626327574E-02  0.47570902536E-01  0.13387129997E+00  0.21593908129E-01 0.  0.
         14    1    1    2    0    0 -0.22267717888E-01  0.56437058090E-02 -0.15003945821E-02  0.23020726728E-01  0.00000000000E+00 0. -1.
     999901    1    3    3    0    0 -0.10080887065E+00 -0.12306338566E-01 -0.46070507954E-01  0.88703797330E+00  0.88000000000E+00 0. -1.
        -11    1    4    4    0    0  0.45386668667E-01  0.12587262127E-01  0.20706292497E-01  0.51452896231E-01  0.51100000000E-03 0. -1.
         11    1    4    4    0    0  0.77689919866E-01 -0.59246293696E-02  0.26864610038E-01  0.82418403742E-01  0.51100000000E-03 0.  1.
</event>
<event>
 8    1  0.1150307E+005  0.1043930E+01  0.7957747E-01            NaN
         13   -1    0    0    0    0  0.00000000000E+00  0.00000000000E+00  0.74505805969E-08  0.10566000000E+00  0.10566000000E+00 0.  1.
     999900   -1    0    0    0    0 -0.00000000000E+00 -0.00000000000E+00 -0.74505805969E-08  0.93827000000E+00  0.93827000000E+00 0.  1.
     999902    2    1    2    0    0  0.85426426403E-02  0.12709060303E-01 -0.18172406203E-01  0.10201658820E+01  0.10198890594E+01 0.  0.
     999903    2    3    3    0    0 -0.45640993830E-01  0.12062885758E+00  0.14539165721E-01  0.13131685318E+00  0.19957629822E-01 0.  0.
         14    1    1    2    0    0 -0.85426426403E-02 -0.12709060303E-01  0.18172406203E-01  0.23764117999E-01  0.00000000000E+00 0.  1.
     999901    1    3    3    0    0  0.54183636470E-01 -0.10791979728E+00 -0.32711571924E-01  0.88884902883E+00  0.88000000000E+00 0. -1.
        -11    1    4    4    0    0 -0.29311965045E-01  0.92760205333E-01  0.17622452565E-01  0.98865863388E-01  0.51100000000E-03 0.  1.
         11    1    4    4    0    0 -0.16329028785E-01  0.27868652252E-01 -0.30832868433E-02  0.32450989787E-01  0.51100000000E-03 0. -1.
</event>
<event>
 8    1  0.1150307E+005  0.1043930E+01  0.7957747E-01            NaN
         13   -1    0    0    0    0  0.00000000000E+00  0.00000000000E+00  0.74505805969E-08  0.10566000000E+00  0.10566000000E+00 0. -1.
     999900   -1    0    0    0    0 -0.00000000000E+00 -0.00000000000E+00 -0.74505805969E-08  0.93827000000E+00  0.93827000000E+00 0. -1.
     999902    2    1    2    0    0  0.17294446313E-01  0.71786495764E-02 -0.15786313308E-01  0.10194383980E+01  0.10191441550E+01 0.  0.
     999903    2    3    3    0    0  0.12704025102E+00 -0.10737806137E-01 -0.29159395732E-01  0.13233976738E+00  0.20224188701E-01 0.  0.
         14    1    1    2    0    0 -0.17294446313E-01 -0.71786495764E-02  0.15786313308E-01  0.24491602048E-01  0.00000000000E+00 0. -1.
     999901    1    3    3    0    0 -0.10974580471E+00  0.17916455713E-01  0.13373082424E-01  0.88709863058E+00  0.88000000000E+00 0.  1.
        -11    1    4    4    0    0  0.72142681392E-01  0.39600516407E-02 -0.16565293988E-01  0.74127717983E-01  0.51100000000E-03 0. -1.
         11    1    4    4    0    0  0.54897569632E-01 -0.14697857777E-01 -0.12594101743E-01  0.58212049393E-01  0.51100000000E-03 0.  1.
</event>
<event>
 8    1  0.1150307E+005  0.1043930E+01  0.7957747E-01            NaN
         13   -1    0    0    0    0  0.00000000000E+00  0.00000000000E+00  0.74505805969E-08  0.10566000000E+00  0.10566000000E+00 0. -1.
     999900   -1    0    0    0    0 -0.00000000000E+00 -0.00000000000E+00 -0.74505805969E-08  0.93827000000E+00  0.93827000000E+00 0. -1.
     999902    2    1    2    0    0  0.18274121031E-04  0.89948613638E-02 -0.22741040857E-01  0.10194746774E+01  0.10191813161E+01 0.  0.
     999903    2    3    3    0    0 -0.33867999525E-01 -0.92866898825E-01  0.76987215108E-01  0.12735931334E+00  0.22848656743E-01 0.  0.
         14    1    1    2    0    0 -0.18274121031E-04 -0.89948613638E-02  0.22741040857E-01  0.24455322614E-01  0.00000000000E+00 0. -1.
     999901    1    3    3    0    0  0.33886273646E-01  0.10186176019E+00 -0.99728255965E-01  0.89211536405E+00  0.88000000000E+00 0.  1.
        -11    1    4    4    0    0 -0.84373126091E-02 -0.35277905274E-01  0.41385440687E-01  0.55033941041E-01  0.51100000000E-03 0. -1.
         11    1    4    4    0    0 -0.25430686916E-01 -0.57588993551E-01  0.35601774420E-01  0.72325372298E-01  0.51100000000E-03 0.  1.
</event>
<event>
 8    1  0.1150307E+005  0.1043930E+01  0.7957747E-01            NaN
         13   -1    0    0    0    0  0.00000000000E+00  0.00000000000E+00  0.74505805969E-08  0.10566000000E+00  0.10566000000E+00 0. -1.
     999900   -1    0    0    0    0 -0.00000000000E+00 -0.00000000000E+00 -0.74505805969E-08  0.93827000000E+00  0.93827000000E+00 0.  1.
     999902    2    1    2    0    0  0.52451911681E-02 -0.24643651709E-01  0.57850883208E-02  0.10180787167E+01  0.10177504530E+01 0.  0.
     999903    2    3    3    0    0  0.83124259549E-01 -0.76139588221E-01 -0.62524257967E-01  0.13050722802E+00  0.20395448319E-01 0.  0.
         14    1    1    2    0    0 -0.52451911681E-02  0.24643651709E-01 -0.57850883208E-02  0.25851283272E-01  0.00000000000E+00 0. -1.
     999901    1    3    3    0    0 -0.77879068381E-01  0.51495936512E-01  0.68309346288E-01  0.88757148870E+00  0.88000000000E+00 0. -1.
        -11    1    4    4    0    0  0.19073277849E-01 -0.25882537906E-01 -0.10229792618E-01  0.33743228570E-01  0.51100000000E-03 0. -1.
         11    1    4    4    0    0  0.64050981701E-01 -0.50257050315E-01 -0.52294465349E-01  0.96763999454E-01  0.51100000000E-03 0.  1.
</event>
<event>
 8    1  0.1150307E+005  0.1043930E+01  0.7957747E-01            NaN
         13   -1    0    0    0    0  0.00000000000E+00  0.00000000000E+00  0.74505805969E-08  0.10566000000E+00  0.10566000000E+00 0.  1.
     999900   -1    0    0    0    0 -0.00000000000E+00 -0.00000000000E+00 -0.74505805969E-08  0.93827000000E+00  0.93827000000E+00 0.  1.
     999902    2    1    2    0    0  0.45641137787E-02 -0.22862359485E-01 -0.22501235603E-02  0.10205081796E+01  0.10202393655E+01 0.  0.
     999903    2    3    3    0    0 -0.87540588663E-01 -0.83130141837E-01  0.50041154201E-01  0.13211082505E+00  0.19369507906E-01 0.  0.
         14    1    1    2    0    0 -0.45641137787E-02  0.22862359485E-01  0.22501235603E-02  0.23421820422E-01  0.00000000000E+00 0.  1.
     999901    1    3    3    0    0  0.92104702441E-01  0.60267782352E-01 -0.52291277761E-01  0.88839735453E+00  0.88000000000E+00 0.  1.
        -11    1    4    4    0    0 -0.62289981547E-01 -0.48851119302E-01  0.38314019891E-01  0.87947136960E-01  0.51100000000E-03 0.  1.
         11    1    4    4    0    0 -0.25250607115E-01 -0.34279022535E-01  0.11727134310E-01  0.44163688091E-01  0.51100000000E-03 0. -1.
</event>
<event>
 8    1  0.1150307E+005  0.1043930E+01  0.7957747E-01            NaN
         13   -1    0    0    0    0  0.00000000000E+00  0.00000000000E+00  0.74505805969E-08  0.10566000000E+00  0.10566000000E+00 0.  1.
     999900   -1    0    0    0    0 -0.00000000000E+00 -0.00000000000E+00 -0.74505805969E-08  0.93827000000E+00  0.93827000000E+00 0.  1.
     999902    2    1    2    0    0  0.23736683730E-01  0.38069925723E-02 -0.33092019014E-02  0.10196632704E+01  0.10193744704E+01 0.  0.
     999903    2    3    3    0    0  0.12000376522E+00  0.35734799923E-02 -0.53237512844E-01  0.13300649256E+00  0.21043309217E-01 0.  0.
         14    1    1    2    0    0 -0.23736683730E-01 -0.38069925723E-02  0.33092019014E-02  0.24266729573E-01  0.00000000000E+00 0. -1.
     999901    1    3    3    0    0 -0.96267081488E-01  0.23351258000E-03  0.49928310943E-01  0.88665677787E+00  0.88000000000E+00 0. -1.
        -11    1    4    4    0    0  0.36942902549E-01 -0.84394156181E-02 -0.14599433695E-01  0.40612884285E-01  0.51100000000E-03 0.  1.
         11    1    4    4    0    0  0.83060862669E-01  0.12012895610E-01 -0.38638079149E-01  0.92393608273E-01  0.51100000000E-03 0. -1.
</event>
<event>
 7    1  0.1150307E+005  0.1043930E+01  0.7957747E-01            NaN
         13   -1    0    0    0    0  0.00000000000E+00  0.00000000000E+00  0.74505805969E-08  0.10566000000E+00  0.10566000000E+00 0. -1.
     999900   -1    0    0    0    0 -0.00000000000E+00 -0.00000000000E+00 -0.74505805969E-08  0.93827000000E+00  0.93827000000E+00 0.  1.
     999903    2    1    2    0    0 -0.49030249170E-01 -0.33745013096E-01 -0.14266472053E-01  0.64630562075E-01  0.20757795807E-01 0.  0.
         14    1    1    2    0    0 -0.96970333722E-02 -0.36436375369E-01 -0.81092972112E-01  0.89429928057E-01  0.00000000000E+00 0.  1.
     999901    1    1    2    0    0  0.58727282542E-01  0.70181388465E-01  0.95359444165E-01  0.88986950987E+00  0.88000000000E+00 0. -1.
        -11    1    3    3    0    0 -0.58927472320E-02 -0.14407571868E-01 -0.56983891544E-02  0.16584189972E-01  0.51100000000E-03 0.  1.
         11    1    3    3    0    0 -0.43137501938E-01 -0.19337441228E-01 -0.85680828984E-02  0.48046372103E-01  0.51100000000E-03 0. -1.
</event>
<event>
 8    1  0.1150307E+005  0.1043930E+01  0.7957747E-01            NaN
         13   -1    0    0    0    0  0.00000000000E+00  0.00000000000E+00  0.74505805969E-08  0.10566000000E+00  0.10566000000E+00 0.  1.
     999900   -1    0    0    0    0 -0.00000000000E+00 -0.00000000000E+00 -0.74505805969E-08  0.93827000000E+00  0.93827000000E+00 0.  1.
     999902    2    1    2    0    0  0.18763301328E-01  0.10399664233E-01  0.18380014182E-01  0.10156804086E+01  0.10152874731E+01 0.  0.
     999903    2    3    3    0    0 -0.51825241340E-01 -0.16828261316E-01  0.11320013962E+00  0.12735898115E+00  0.20904364378E-01 0.  0.
         14    1    1    2    0    0 -0.18763301328E-01 -0.10399664233E-01 -0.18380014182E-01  0.28249591399E-01  0.00000000000E+00 0. -1.
     999901    1    3    3    0    0  0.70588542668E-01  0.27227925549E-01 -0.94820125438E-01  0.88832142745E+00  0.88000000000E+00 0.  1.
        -11    1    4    4    0    0 -0.49017937117E-01 -0.88627611586E-02  0.99069054277E-01  0.11088843642E+00  0.51100000000E-03 0.  1.
         11    1    4    4    0    0 -0.28073042225E-02 -0.79655001570E-02  0.14131085343E-01  0.16470544730E-01  0.51100000000E-03 0. -1.
</event>
<event>
 8    1  0.1150307E+005  0.1043930E+01  0.7957747E-01            NaN
         13   -1    0    0    0    0  0.00000000000E+00  0.00000000000E+00  0.74505805969E-08  0.10566000000E+00  0.10566000000E+00 0. -1.
     999900   -1    0    0    0    0 -0.00000000000E+00 -0.00000000000E+00 -0.74505805969E-08  0.93827000000E+00  0.93827000000E+00 0. -1.
     999902    2    1    2    0    0  0.13348029847E-01  0.12858038678E-02 -0.19904293883E-01  0.10199299144E+01  0.10196475010E+01 0.  0.
     999903    2    3    3    0    0 -0.27192482123E-01  0.12335792445E+00  0.21680249314E-01  0.12960727068E+00  0.19271813460E-01 0.  0.
         14    1    1    2    0    0 -0.13348029847E-01 -0.12858038678E-02  0.19904293883E-01  0.24000085570E-01  0.00000000000E+00 0. -1.
     999901    1    3    3    0    0  0.40540511970E-01 -0.12207212059E+00 -0.41584543197E-01  0.89032264375E+00  0.88000000000E+00 0.  1.
        -11    1    4    4    0    0 -0.16147991918E-01  0.63032125476E-01  0.20650784862E-01  0.68268019757E-01  0.51100000000E-03 0. -1.
         11    1    4    4    0    0 -0.11044490206E-01  0.60325798978E-01  0.10294644514E-02  0.61339250927E-01  0.51100000000E-03 0.  1.
</event>
<event>
 8    1  0.1150307E+005  0.1043930E+01  0.7957747E-01            NaN
         13   -1    0    0    0    0  0.00000000000E+00  0.00000000000E+00  0.74505805969E-08  0.10566000000E+00  0.10566000000E+00 0. -1.
     999900   -1    0    0    0    0 -0.00000000000E+00 -0.00000000000E+00 -0.74505805969E-08  0.93827000000E+00  0.93827000000E+00 0. -1.
     999902    2    1    2    0    0  0.24046242021E-01  0.28420982774E-02  0.63976713901E-03  0.10197079320E+01  0.10194202067E+01 0.  0.
     999903    2    3    3    0    0  0.50287164181E-01  0.29158948600E-01 -0.11726748760E+00  0.13106667514E+00  0.69113326279E-02 0.  0.
         14    1    1    2    0    0 -0.24046242021E-01 -0.28420982774E-02 -0.63976713901E-03  0.24222068036E-01  0.00000000000E+00 0. -1.
     999901    1    3    3    0    0 -0.26240922160E-01 -0.26316850322E-01  0.11790725474E+00  0.88864125682E+00  0.88000000000E+00 0.  1.
        -11    1    4    4    0    0  0.15510668579E-01  0.60239573210E-02 -0.37304929793E-01  0.40850799373E-01  0.51100000000E-03 0.  1.
         11    1    4    4    0    0  0.34776495603E-01  0.23134991279E-01 -0.79962557811E-01  0.90215875767E-01  0.51100000000E-03 0. -1.
</event>
<event>
 8    1  0.1150307E+005  0.1043930E+01  0.7957747E-01            NaN
         13   -1    0    0    0    0  0.00000000000E+00  0.00000000000E+00  0.74505805969E-08  0.10566000000E+00  0.10566000000E+00 0. -1.
     999900   -1    0    0    0    0 -0.00000000000E+00 -0.00000000000E+00 -0.74505805969E-08  0.93827000000E+00  0.93827000000E+00 0.  1.
     999902    2    1    2    0    0  0.26553225544E-02  0.23297331969E-01  0.24916590975E-03  0.10204805118E+01  0.10202110548E+01 0.  0.
     999903    2    3    3    0    0  0.87455574615E-01  0.95090218897E-01 -0.25430501499E-01  0.13312221509E+00  0.19600675568E-01 0.  0.
         14    1    1    2    0    0 -0.26553225544E-02 -0.23297331969E-01 -0.24916590975E-03  0.23449488233E-01  0.00000000000E+00 0.  1.
     999901    1    3    3    0    0 -0.84800252061E-01 -0.71792886928E-01  0.25679667408E-01  0.88735829668E+00  0.88000000000E+00 0.  1.
        -11    1    4    4    0    0  0.36892189007E-01  0.32433745044E-01 -0.15869156341E-02  0.49150390126E-01  0.51100000000E-03 0. -1.
         11    1    4    4    0    0  0.50563385609E-01  0.62656473853E-01 -0.23843585865E-01  0.83971824964E-01  0.51100000000E-03 0.  1.
</event>
<event>
 8    1  0.1150307E+005  0.1043930E+01  0.7957747E-01            NaN
         13   -1    0    0    0    0  0.00000000000E+00  0.00000000000E+00  0.74505805969E-08  0.10566000000E+00  0.10566000000E+00 0. -1.
     999900   -1    0    0    0    0 -0.00000000000E+00 -0.00000000000E+00 -0.74505805969E-08  0.93827000000E+00  0.93827000000E+00 0. -1.
     999902    2    1    2    0    0 -0.11198391902E-01 -0.14292830817E-01  0.13648281925E-01  0.10212151460E+01  0.10209624919E+01 0.  0.
     999903    2    3    3    0    0  0.52257463937E-01 -0.84560778367E-01  0.86388434678E-01  0.13315244553E+00  0.19627641979E-01 0.  0.
         14    1    1    2    0    0  0.11198391902E-01  0.14292830817E-01 -0.13648281925E-01  0.22714854027E-01  0.00000000000E+00 0.  1.
     999901    1    3    3    0    0 -0.63455855839E-01  0.70267947549E-01 -0.72740152753E-01  0.88806270044E+00  0.88000000000E+00 0. -1.
        -11    1    4    4    0    0  0.22416381127E-01 -0.45014905970E-01  0.54882531786E-01  0.74439165220E-01  0.51100000000E-03 0.  1.
         11    1    4    4    0    0  0.29841082810E-01 -0.39545872397E-01  0.31505902892E-01  0.58713280312E-01  0.51100000000E-03 0. -1.
</event>
<event>
 8    1  0.1150307E+005  0.1043930E+01  0.7957747E-01            NaN
         13   -1    0    0    0    0  0.00000000000E+00  0.00000000000E+00  0.74505805969E-08  0.10566000000E+00  0.10566000000E+00 0.  1.
     999900   -1    0    0    0    0 -0.00000000000E+00 -0.00000000000E+00 -0.74505805969E-08  0.93827000000E+00  0.93827000000E+00 0.  1.
     999902    2    1    2    0    0 -0.63021954366E-02 -0.93978513924E-02 -0.22242793943E-01  0.10189744563E+01  0.10186688193E+01 0.  0.
     999903    2    3    3    0    0  0.21076347031E-01 -0.11050696627E+00 -0.65511761669E-01  0.13170626616E+00  0.19968666237E-01 0.  0.
         14    1    1    2    0    0  0.63021954366E-02  0.93978513924E-02  0.22242793943E-01  0.24955543683E-01  0.00000000000E+00 0.  1.
     999901    1    3    3    0    0 -0.27378542467E-01  0.10110911487E+00  0.43268967726E-01  0.88726819016E+00  0.88000000000E+00 0. -1.
        -11    1    4    4    0    0  0.17124250124E-01 -0.80353124086E-01 -0.37333501716E-01  0.90243647777E-01  0.51100000000E-03 0.  1.
         11    1    4    4    0    0  0.39520969070E-02 -0.30153842179E-01 -0.28178259953E-01  0.41462618383E-01  0.51100000000E-03 0. -1.
</event>
<event>
 8    1  0.1150307E+005  0.1043930E+01  0.7957747E-01            NaN
         13   -1    0    0    0    0  0.00000000000E+00  0.00000000000E+00  0.74505805969E-08  0.10566000000E+00  0.10566000000E+00 0.  1.
     999900   -1    0    0    0    0 -0.00000000000E+00 -0.00000000000E+00 -0.74505805969E-08  0.93827000000E+00  0.93827000000E+00 0.  1.
     999902    2    1    2    0    0  0.98564206334E-03  0.56051741007E-02 -0.22978587990E-01  0.10202571258E+01  0.10199824497E+01 0.  0.
     999903    2    3    3    0    0  0.57244729864E-01 -0.10097233484E+00  0.51348036078E-01  0.12893883393E+00  0.22720708301E-01 0.  0.
         14    1    1    2    0    0 -0.98564206334E-03 -0.56051741007E-02  0.22978587990E-01  0.23672874202E-01  0.00000000000E+00 0.  1.
     999901    1    3    3    0    0 -0.56259087801E-01  0.10657750894E+00 -0.74326624068E-01  0.89131829187E+00  0.88000000000E+00 0.  1.
        -11    1    4    4    0    0  0.15359157501E-01 -0.38459927810E-01  0.28580094253E-01  0.50320499548E-01  0.51100000000E-03 0. -1.
         11    1    4    4    0    0  0.41885572363E-01 -0.62512407031E-01  0.22767941826E-01  0.78618334382E-01  0.51100000000E-03 0.  1.
</event>
<event>
 8    1  0.1150307E+005  0.1043930E+01  0.7957747E-01            NaN
         13   -1    0    0    0    0  0.00000000000E+00  0.00000000000E+00  0.74505805969E-08  0.10566000000E+00  0.10566000000E+00 0.  1.
     999900   -1    0    0    0    0 -0.00000000000E+00 -0.00000000000E+00 -0.74505805969E-08  0.93827000000E+00  0.93827000000E+00 0. -1.
     999902    2    1    2    0    0  0.10719728776E-01  0.17885241846E-01  0.13396116527E-01  0.10191459245E+01  0.10188445245E+01 0.  0.
     999903    2    3    3    0    0 -0.80535826939E-01  0.95826990184E-01  0.33427207913E-01  0.13077452850E+00  0.17769851097E-01 0.  0.
         14    1    1    2    0    0 -0.10719728776E-01 -0.17885241846E-01 -0.13396116527E-01  0.24784075511E-01  0.00000000000E+00 0.  1.
     999901    1    3    3    0    0  0.91255555715E-01 -0.77941748338E-01 -0.20031091386E-01  0.88837139599E+00  0.88000000000E+00 0. -1.
        -11    1    4    4    0    0 -0.56616093839E-01  0.76253620456E-01  0.30367483342E-01  0.99711794086E-01  0.51100000000E-03 0. -1.
         11    1    4    4    0    0 -0.23919733100E-01  0.19573369728E-01  0.30597245716E-02  0.31062734418E-01  0.51100000000E-03 0.  1.
</event>
<event>
 8    1  0.1150307E+005  0.1043930E+01  0.7957747E-01            NaN
         13   -1    0    0    0    0  0.00000000000E+00  0.00000000000E+00  0.74505805969E-08  0.10566000000E+00  0.10566000000E+00 0.  1.
     999900   -1    0    0    0    0 -0.00000000000E+00 -0.00000000000E+00 -0.74505805969E-08  0.93827000000E+00  0.93827000000E+00 0. -1.
     999902    2    1    2    0    0 -0.17624103555E-01  0.99016311288E-02 -0.12667234906E-01  0.10200739700E+01  0.10197949765E+01 0.  0.
     999903    2    3    3    0    0  0.81374306300E-01  0.56922073111E-01  0.79249499476E-01  0.12852459218E+00  0.19395553451E-01 0.  0.
         14    1    1    2    0    0  0.17624103555E-01 -0.99016311288E-02  0.12667234906E-01  0.23856029956E-01  0.00000000000E+00 0.  1.
     999901    1    3    3    0    0 -0.98998409854E-01 -0.47020441983E-01 -0.91916734381E-01  0.89154937787E+00  0.88000000000E+00 0. -1.
        -11    1    4    4    0    0  0.40776972320E-01  0.33854679740E-01  0.31106223533E-01  0.61455342122E-01  0.51100000000E-03 0.  1.
         11    1    4    4    0    0  0.40597333980E-01  0.23067393372E-01  0.48143275943E-01  0.67069250053E-01  0.51100000000E-03 0. -1.
</event>
<event>
 8    1  0.1150307E+005  0.1043930E+01  0.7957747E-01            NaN
         13   -1    0    0    0    0  0.00000000000E+00  0.00000000000E+00  0.74505805969E-08  0.10566000000E+00  0.10566000000E+00 0. -1.
     999900   -1    0    0    0    0 -0.00000000000E+00 -0.00000000000E+00 -0.74505805969E-08  0.93827000000E+00  0.93827000000E+00 0.  1.
     999902    2    1    2    0    0 -0.75007982151E-02 -0.22171287763E-01  0.29448280131E-01  0.10063131264E+01  0.10056098047E+01 0.  0.
     999903    2    3    3    0    0  0.10298488223E+00  0.67087254954E-02 -0.47969868608E-01  0.11556360467E+00  0.20073501535E-01 0.  0.
         14    1    1    2    0    0  0.75007982151E-02  0.22171287763E-01 -0.29448280131E-01  0.37616873576E-01  0.00000000000E+00 0. -1.
     999901    1    3    3    0    0 -0.11048568045E+00 -0.28880013259E-01  0.77418148739E-01  0.89074952175E+00  0.88000000000E+00 0. -1.
        -11    1    4    4    0    0  0.56167296712E-01  0.13219940198E-01 -0.23171656476E-01  0.62182946405E-01  0.51100000000E-03 0.  1.
         11    1    4    4    0    0  0.46817585521E-01 -0.65112147027E-02 -0.24798212132E-01  0.53380658266E-01  0.51100000000E-03 0. -1.
</event>
<event>
 8    1  0.1150307E+005  0.1043930E+01  0.7957747E-01            NaN
         13   -1    0    0    0    0  0.00000000000E+00  0.00000000000E+00  0.74505805969E-08  0.10566000000E+00  0.10566000000E+00 0.  1.
     999900   -1    0    0    0    0 -0.00000000000E+00 -0.00000000000E+00 -0.74505805969E-08  0.93827000000E+00  0.93827000000E+00 0. -1.
     999902    2    1    2    0    0  0.20709792817E-01 -0.68814301317E-02  0.46503662428E-02  0.10216168759E+01  0.10213731765E+01 0.  0.
     999903    2    3    3    0    0  0.18675870486E-01  0.68112148518E-01 -0.10875689440E+00  0.13117351421E+00  0.19757931014E-01 0.  0.
         14    1    1    2    0    0 -0.20709792817E-01  0.68814301317E-02 -0.46503662428E-02  0.22313124061E-01  0.00000000000E+00 0.  1.
     999901    1    3    3    0    0  0.20339223312E-02 -0.74993578650E-01  0.11340726064E+00  0.89044336173E+00  0.88000000000E+00 0.  1.
        -11    1    4    4    0    0  0.48309535816E-02  0.45049829658E-01 -0.56750314062E-01  0.72620138610E-01  0.51100000000E-03 0. -1.
         11    1    4    4    0    0  0.13844916904E-01  0.23062318860E-01 -0.52006580334E-01  0.58553375601E-01  0.51100000000E-03 0.  1.
</event>
<event>
 8    1  0.1150307E+005  0.1043930E+01  0.7957747E-01            NaN
         13   -1    0    0    0    0  0.00000000000E+00  0.00000000000E+00  0.74505805969E-08  0.10566000000E+00  0.10566000000E+00 0.  1.
     999900   -1    0    0    0    0 -0.00000000000E+00 -0.00000000000E+00 -0.74505805969E-08  0.93827000000E+00  0.93827000000E+00 0. -1.
     999902    2    1    2    0    0  0.11859976698E-01 -0.14569067091E-01  0.14761367472E-01  0.10200382706E+01  0.10197584316E+01 0.  0.
     999903    2    3    3    0    0 -0.97614778053E-01  0.80215172938E-01 -0.56375324859E-02  0.12797051018E+00  0.19533326413E-01 0.  0.
         14    1    1    2    0    0 -0.11859976698E-01  0.14569067091E-01 -0.14761367472E-01  0.23891729382E-01  0.00000000000E+00 0. -1.
     999901    1    3    3    0    0  0.10947475475E+00 -0.94784240029E-01  0.20398899958E-01  0.89206776043E+00  0.88000000000E+00 0. -1.
        -11    1    4    4    0    0 -0.45992386613E-01  0.47064396692E-01  0.37016168373E-02  0.65911456899E-01  0.51100000000E-03 0. -1.
         11    1    4    4    0    0 -0.51622391440E-01  0.33150776245E-01 -0.93391493231E-02  0.62059053285E-01  0.51100000000E-03 0.  1.
</event>
<event>
 8    1  0.1150307E+005  0.1043930E+01  0.7957747E-01            NaN
         13   -1    0    0    0    0  0.00000000000E+00  0.00000000000E+00  0.74505805969E-08  0.10566000000E+00  0.10566000000E+00 0.  1.
     999900   -1    0    0    0    0 -0.00000000000E+00 -0.00000000000E+00 -0.74505805969E-08  0.93827000000E+00  0.93827000000E+00 0.  1.
     999902    2    1    2    0    0 -0.12347853917E-01 -0.13664409435E-01 -0.10648233273E-01  0.10226562967E+01  0.10224350007E+01 0.  0.
     999903    2    3    3    0    0 -0.20268518270E-01 -0.62372845209E-01  0.11328576468E+00  0.13260299237E+00  0.21182645145E-01 0.  0.
         14    1    1    2    0    0  0.12347853917E-01  0.13664409435E-01  0.10648233273E-01  0.21273703331E-01  0.00000000000E+00 0. -1.
     999901    1    3    3    0    0  0.79206643524E-02  0.48708435774E-01 -0.12393399795E+00  0.89005330430E+00  0.88000000000E+00 0.  1.
        -11    1    4    4    0    0 -0.17403107861E-01 -0.27584501494E-01  0.41557002986E-01  0.52830090896E-01  0.51100000000E-03 0. -1.
         11    1    4    4    0    0 -0.28654104093E-02 -0.34788343715E-01  0.71728761693E-01  0.79772901478E-01  0.51100000000E-03 0.  1.
</event>
<event>
 8    1  0.1150307E+005  0.1043930E+01  0.7957747E-01            NaN
         13   -1    0    0    0    0  0.00000000000E+00  0.00000000000E+00  0.74505805969E-08  0.10566000000E+00  0.10566000000E+00 0.  1.
     999900   -1    0    0    0    0 -0.00000000000E+00 -0.00000000000E+00 -0.74505805969E-08  0.93827000000E+00  0.93827000000E+00 0.  1.
     999902    2    1    2    0    0  0.17643193330E-01  0.38558544515E-02 -0.14665913139E-01  0.10206654585E+01  0.10204002838E+01 0.  0.
     999903    2    3    3    0    0  0.46540155329E-01 -0.10377517386E+00 -0.64191864977E-01  0.13225547846E+00  0.20872069521E-01 0.  0.
         14    1    1    2    0    0 -0.17643193330E-01 -0.38558544515E-02  0.14665913139E-01  0.23264541530E-01  0.00000000000E+00 0.  1.
     999901    1    3    3    0    0 -0.28896961999E-01  0.10763102831E+00  0.49525951838E-01  0.88840998001E+00  0.88000000000E+00 0.  1.
        -11    1    4    4    0    0  0.22328734147E-01 -0.33864706310E-01 -0.31538654984E-01  0.51384225023E-01  0.51100000000E-03 0. -1.
         11    1    4    4    0    0  0.24211421182E-01 -0.69910467553E-01 -0.32653209993E-01  0.80871253440E-01  0.51100000000E-03 0.  1.
</event>
<event>
 8    1  0.1150307E+005  0.1043930E+01  0.7957747E-01            NaN
         13   -1    0    0    0    0  0.00000000000E+00  0.00000000000E+00  0.74505805969E-08  0.10566000000E+00  0.10566000000E+00 0. -1.
     999900   -1    0    0    0    0 -0.00000000000E+00 -0.00000000000E+00 -0.74505805969E-08  0.93827000000E+00  0.93827000000E+00 0.  1.
     999902    2    1    2    0    0  0.19840163807E-01 -0.92576237313E-02  0.76458891517E-03  0.10220229168E+01  0.10217881005E+01 0.  0.
     999903    2    3    3    0    0 -0.79163316338E-01 -0.10290831793E+00  0.44589434922E-02  0.13152542112E+00  0.20545113042E-01 0.  0.
         14    1    1    2    0    0 -0.19840163807E-01  0.92576237313E-02 -0.76458891517E-03  0.21907083175E-01  0.00000000000E+00 0.  1.
     999901    1    3    3    0    0  0.99003480144E-01  0.93650694201E-01 -0.36943545770E-02  0.89049749571E+00  0.88000000000E+00 0.  1.
        -11    1    4    4    0    0 -0.79414794000E-01 -0.99575525704E-01  0.65759023109E-02  0.12753626322E+00  0.51100000000E-03 0.  1.
         11    1    4    4    0    0  0.25147766201E-03 -0.33327922287E-02 -0.21169588187E-02  0.39891578929E-02  0.51100000000E-03 0. -1.
</event>
<event>
 8    1  0.1150307E+005  0.1043930E+01  0.7957747E-01            NaN
         13   -1    0    0    0    0  0.00000000000E+00  0.00000000000E+00  0.74505805969E-08  0.10566000000E+00  0.10566000000E+00 0. -1.
     999900   -1    0    0    0    0 -0.00000000000E+00 -0.00000000000E+00 -0.74505805969E-08  0.93827000000E+00  0.93827000000E+00 0. -1.
     999902    2    1    2    0    0  0.10142792609E-01 -0.74084094244E-02  0.20814365778E-01  0.10196195373E+01  0.10193296828E+01 0.  0.
     999903    2    3    3    0    0 -0.42037325412E-01  0.97375523687E-01  0.72922959183E-01  0.13034019829E+00  0.20534847764E-01 0.  0.
         14    1    1    2    0    0 -0.10142792609E-01  0.74084094244E-02 -0.20814365778E-01  0.24310462662E-01  0.00000000000E+00 0.  1.
     999901    1    3    3    0    0  0.52180118021E-01 -0.10478393311E+00 -0.52108593405E-01  0.88927933905E+00  0.88000000000E+00 0. -1.
        -11    1    4    4    0    0 -0.35932131246E-01  0.66106791552E-01  0.43181610439E-01  0.86753320088E-01  0.51100000000E-03 0.  1.
         11    1    4    4    0    0 -0.61051941664E-02  0.31268732135E-01  0.29741348744E-01  0.43586878200E-01  0.51100000000E-03 0. -1.
</event>
<event>
 8    1  0.1150307E+005  0.1043930E+01  0.7957747E-01            NaN
         13   -1    0    0    0    0  0.00000000000E+00  0.00000000000E+00  0.74505805969E-08  0.10566000000E+00  0.10566000000E+00 0.  1.
     999900   -1    0    0    0    0 -0.00000000000E+00 -0.00000000000E+00 -0.74505805969E-08  0.93827000000E+00  0.93827000000E+00 0. -1.
     999902    2    1    2    0    0 -0.19972101579E-01 -0.14298670419E-01 -0.35815397528E-02  0.10191073441E+01  0.10188049934E+01 0.  0.
     999903    2    3    3    0    0  0.58467044401E-01 -0.97332711015E-02 -0.11261157310E+00  0.12890450732E+00  0.20539565822E-01 0.  0.
         14    1    1    2    0    0  0.19972101579E-01  0.14298670419E-01  0.35815397528E-02  0.24822655866E-01  0.00000000000E+00 0. -1.
     999901    1    3    3    0    0 -0.78439145981E-01 -0.45653993177E-02  0.10903003335E+00  0.89020283681E+00  0.88000000000E+00 0.  1.
        -11    1    4    4    0    0  0.23668137836E-01 -0.59175475700E-02 -0.26905283122E-01  0.36322905979E-01  0.51100000000E-03 0.  1.
         11    1    4    4    0    0  0.34798906565E-01 -0.38157235316E-02 -0.85706289981E-01  0.92581601345E-01  0.51100000000E-03 0. -1.
</event>
<event>
 8    1  0.1150307E+005  0.1043930E+01  0.7957747E-01            NaN
         13   -1    0    0    0    0  0.00000000000E+00  0.00000000000E+00  0.74505805969E-08  0.10566000000E+00  0.10566000000E+00 0.  1.
     999900   -1    0    0    0    0 -0.00000000000E+00 -0.00000000000E+00 -0.74505805969E-08  0.93827000000E+00  0.93827000000E+00 0.  1.
     999902    2    1    2    0    0  0.10100933755E-01  0.11027543217E-01 -0.17714408776E-01  0.10207473373E+01  0.10204840473E+01 0.  0.
     999903    2    3    3    0    0 -0.67623935080E-01  0.10064582366E+00  0.46376487744E-01  0.13047758354E+00  0.13078332293E-01 0.  0.
         14    1    1    2    0    0 -0.10100933755E-01 -0.11027543217E-01  0.17714408776E-01  0.23182662711E-01  0.00000000000E+00 0.  1.
     999901    1    3    3    0    0  0.77724868835E-01 -0.89618280440E-01 -0.64090896519E-01  0.89026975375E+00  0.88000000000E+00 0.  1.
        -11    1    4    4    0    0 -0.28358369165E-01  0.43997794223E-01  0.13227161190E-01  0.53992795004E-01  0.51100000000E-03 0.  1.
         11    1    4    4    0    0 -0.39265565915E-01  0.56648029434E-01  0.33149326553E-01  0.76484788536E-01  0.51100000000E-03 0. -1.
</event>
<event>
 8    1  0.1150307E+005  0.1043930E+01  0.7957747E-01            NaN
         13   -1    0    0    0    0  0.00000000000E+00  0.00000000000E+00  0.74505805969E-08  0.10566000000E+00  0.10566000000E+00 0.  1.
     999900   -1    0    0    0    0 -0.00000000000E+00 -0.00000000000E+00 -0.74505805969E-08  0.93827000000E+00  0.93827000000E+00 0. -1.
     999902    2    1    2    0    0  0.19433093636E-01 -0.48436110340E-02 -0.12006891574E-01  0.10205789585E+01  0.10203117853E+01 0.  0.
     999903    2    3    3    0    0  0.46865841726E-01  0.93999520550E-01  0.74805579629E-01  0.13037733776E+00  0.19236903931E-01 0.  0.
         14    1    1    2    0    0 -0.19433093636E-01  0.48436110340E-02  0.12006891574E-01  0.23351041549E-01  0.00000000000E+00 0.  1.
     999901    1    3    3    0    0 -0.27432748090E-01 -0.98843131584E-01 -0.86812471204E-01  0.89020162069E+00  0.88000000000E+00 0. -1.
        -11    1    4    4    0    0  0.30541847706E-01  0.55791174420E-01  0.56089824639E-01  0.84804417063E-01  0.51100000000E-03 0.  1.
         11    1    4    4    0    0  0.16323994020E-01  0.38208346130E-01  0.18715754990E-01  0.45572920694E-01  0.51100000000E-03 0. -1.
</event>
<event>
 8    1  0.1150307E+005  0.1043930E+01  0.7957747E-01            NaN
         13   -1    0    0    0    0  0.00000000000E+00  0.00000000000E+00  0.74505805969E-08  0.10566000000E+00  0.10566000000E+00 0. -1.
     999900   -1    0    0    0    0 -0.00000000000E+00 -0.00000000000E+00 -0.74505805969E-08  0.93827000000E+00  0.93827000000E+00 0.  1.
     999902    2    1    2    0    0 -0.16203722544E-01 -0.16264575584E-01 -0.61723660607E-03  0.10209631103E+01  0.10207047538E+01 0.  0.
     999903    2    3    3    0    0 -0.55365400408E-01 -0.29284840086E-01 -0.11557474158E+00  0.13252718559E+00  0.16822740765E-01 0.  0.
         14    1    1    2    0    0  0.16203722544E-01  0.16264575584E-01  0.61723660607E-03  0.22966889737E-01  0.00000000000E+00 0.  1.
     999901    1    3    3    0    0  0.39161677864E-01  0.13020264503E-01  0.11495750498E+00  0.88843592467E+00  0.88000000000E+00 0. -1.
        -11    1    4    4    0    0 -0.28638442469E-01 -0.17253356289E-01 -0.78036640579E-01  0.84898863856E-01  0.51100000000E-03 0. -1.
         11    1    4    4    0    0 -0.26726957939E-01 -0.12031483797E-01 -0.37538101004E-01  0.47628321732E-01  0.51100000000E-03 0.  1.
</event>
<event>
 8    1  0.1150307E+005  0.1043930E+01  0.7957747E-01            NaN
         13   -1    0    0    0    0  0.00000000000E+00  0.00000000000E+00  0.74505805969E-08  0.10566000000E+00  0.10566000000E+00 0. -1.
     999900   -1    0    0    0    0 -0.00000000000E+00 -0.00000000000E+00 -0.74505805969E-08  0.93827000000E+00  0.93827000000E+00 0.  1.
     999902    2    1    2    0    0 -0.22624054568E-01 -0.28295667489E-02 -0.10130331945E-02  0.10211071928E+01  0.10208521042E+01 0.  0.
     999903    2    3    3    0    0 -0.10755684276E+00 -0.75486250194E-01 -0.17315287411E-01  0.13388775225E+00  0.18959499806E-01 0.  0.
         14    1    1    2    0    0  0.22624054568E-01  0.28295667489E-02  0.10130331945E-02  0.22822807219E-01  0.00000000000E+00 0. -1.
     999901    1    3    3    0    0  0.84932788189E-01  0.72656683445E-01  0.16302254217E-01  0.88721944053E+00  0.88000000000E+00 0.  1.
        -11    1    4    4    0    0 -0.29027962607E-01 -0.10997677681E-01 -0.18406330757E-02  0.31100170074E-01  0.51100000000E-03 0.  1.
         11    1    4    4    0    0 -0.78528880150E-01 -0.64488572513E-01 -0.15474654335E-01  0.10278758218E+00  0.51100000000E-03 0. -1.
</event>
<event>
 8    1  0.1150307E+005  0.1043930E+01  0.7957747E-01            NaN
         13   -1    0    0    0    0  0.00000000000E+00  0.00000000000E+00  0.74505805969E-08  0.10566000000E+00  0.10566000000E+00 0. -1.
     999900   -1    0    0    0    0 -0.00000000000E+00 -0.00000000000E+00 -0.74505805969E-08  0.93827000000E+00  0.93827000000E+00 0.  1.
     999902    2    1    2    0    0  0.27788138373E-01  0.20546648439E-01 -0.12503338126E-01  0.10071784169E+01  0.10065076674E+01 0.  0.
     999903    2    3    3    0    0  0.83270509407E-01 -0.82767729089E-01  0.10708556590E-02  0.11929530925E+00  0.21112777238E-01 0.  0.
         14    1    1    2    0    0 -0.27788138373E-01 -0.20546648439E-01  0.12503338126E-01  0.36751583104E-01  0.00000000000E+00 0.  1.
     999901    1    3    3    0    0 -0.55482371034E-01  0.10331437753E+00 -0.13574193785E-01  0.88788310764E+00  0.88000000000E+00 0. -1.
        -11    1    4    4    0    0  0.76338522383E-01 -0.66058166098E-01 -0.18134602149E-02  0.10096930755E+00  0.51100000000E-03 0.  1.
         11    1    4    4    0    0  0.69319870242E-02 -0.16709562991E-01  0.28843158739E-02  0.18326001706E-01  0.51100000000E-03 0. -1.
</event>
<event>
 8    1  0.1150307E+005  0.1043930E+01  0.7957747E-01            NaN
         13   -1    0    0    0    0  0.00000000000E+00  0.00000000000E+00  0.74505805969E-08  0.10566000000E+00  0.10566000000E+00 0.  1.
     999900   -1    0    0    0    0 -0.00000000000E+00 -0.00000000000E+00 -0.74505805969E-08  0.93827000000E+00  0.93827000000E+00 0.  1.
     999902    2    1    2    0    0  0.55553614325E-02 -0.17866813093E-01 -0.15222071772E-01  0.10198095415E+01  0.10195242539E+01 0.  0.
     999903    2    3    3    0    0 -0.11700695202E+00  0.10462054548E-01  0.48090474380E-01  0.12861229960E+00  0.20696581268E-01 0.  0.
         14    1    1    2    0    0 -0.55553614325E-02  0.17866813093E-01  0.15222071772E-01  0.24120458531E-01  0.00000000000E+00 0. -1.
     999901    1    3    3    0    0  0.12256231345E+00 -0.28328867640E-01 -0.63312546152E-01  0.89119724187E+00  0.88000000000E+00 0.  1.
        -11    1    4    4    0    0 -0.74768539944E-01 -0.31345587563E-02  0.32329827000E-01  0.81520787894E-01  0.51100000000E-03 0. -1.
         11    1    4    4    0    0 -0.42238412072E-01  0.13596613304E-01  0.15760647380E-01  0.47091511703E-01  0.51100000000E-03 0.  1.
</event>
<event>
 8    1  0.1150307E+005  0.1043930E+01  0.7957747E-01            NaN
         13   -1    0    0    0    0  0.00000000000E+00  0.00000000000E+00  0.74505805969E-08  0.10566000000E+00  0.10566000000E+00 0. -1.
     999900   -1    0    0    0    0 -0.00000000000E+00 -0.00000000000E+00 -0.74505805969E-08  0.93827000000E+00  0.93827000000E+00 0.  1.
     999902    2    1    2    0    0  0.17764600738E-01 -0.15842178619E-01 -0.22243218229E-02  0.10200238654E+01  0.10197436848E+01 0.  0.
     999903    2    3    3    0    0 -0.12476207989E+00  0.97195105987E-02  0.17239109000E-01  0.12797785776E+00  0.20520714729E-01 0.  0.
         14    1    1    2    0    0 -0.17764600738E-01  0.15842178619E-01  0.22243218229E-02  0.23906134575E-01  0.00000000000E+00 0. -1.
     999901    1    3    3    0    0  0.14252668063E+00 -0.25561689217E-01 -0.19463430823E-01  0.89204600766E+00  0.88000000000E+00 0. -1.
        -11    1    4    4    0    0 -0.76241776108E-01 -0.31286415451E-02  0.14756119742E-01  0.77721303469E-01  0.51100000000E-03 0. -1.
         11    1    4    4    0    0 -0.48520303784E-01  0.12848152144E-01  0.24829892585E-02  0.50256554293E-01  0.51100000000E-03 0.  1.
</event>
<event>
 8    1  0.1150307E+005  0.1043930E+01  0.7957747E-01            NaN
         13   -1    0    0    0    0  0.00000000000E+00  0.00000000000E+00  0.74505805969E-08  0.10566000000E+00  0.10566000000E+00 0.  1.
     999900   -1    0    0    0    0 -0.00000000000E+00 -0.00000000000E+00 -0.74505805969E-08  0.93827000000E+00  0.93827000000E+00 0.  1.
     999902    2    1    2    0    0  0.15489679310E-01 -0.11076298969E-01  0.12712816954E-01  0.10210339244E+01  0.10207771767E+01 0.  0.
     999903    2    3    3    0    0 -0.12428392359E+00 -0.28060965127E-01 -0.10445239357E-01  0.12953999029E+00  0.20918762642E-01 0.  0.
         14    1    1    2    0    0 -0.15489679310E-01  0.11076298969E-01 -0.12712816954E-01  0.22896075621E-01  0.00000000000E+00 0. -1.
     999901    1    3    3    0    0  0.13977360290E+00  0.16984666159E-01  0.23158056311E-01  0.89149393409E+00  0.88000000000E+00 0. -1.
        -11    1    4    4    0    0 -0.97362375669E-01 -0.22796071061E-01 -0.16746633687E-01  0.10138936785E+00  0.51100000000E-03 0.  1.
         11    1    4    4    0    0 -0.26921547923E-01 -0.52648940668E-02  0.63013943296E-02  0.28150622437E-01  0.51100000000E-03 0. -1.
</event>
<event>
 8    1  0.1150307E+005  0.1043930E+01  0.7957747E-01            NaN
         13   -1    0    0    0    0  0.00000000000E+00  0.00000000000E+00  0.74505805969E-08  0.10566000000E+00  0.10566000000E+00 0. -1.
     999900   -1    0    0    0    0 -0.00000000000E+00 -0.00000000000E+00 -0.74505805969E-08  0.93827000000E+00  0.93827000000E+00 0.  1.
     999902    2    1    2    0    0  0.99874295888E-02  0.20420185838E-01  0.48604705230E-02  0.10206844216E+01  0.10204196841E+01 0.  0.
     999903    2    3    3    0    0 -0.82423373417E-01  0.10104051508E+00 -0.67901469644E-02  0.13210401960E+00  0.20064090495E-01 0.  0.
         14    1    1    2    0    0 -0.99874295888E-02 -0.20420185838E-01 -0.48604705230E-02  0.23245578358E-01  0.00000000000E+00 0.  1.
     999901    1    3    3    0    0  0.92410803005E-01 -0.80620329239E-01  0.11650617487E-01  0.88858040204E+00  0.88000000000E+00 0. -1.
        -11    1    4    4    0    0 -0.46331529800E-01  0.56478567983E-01  0.61641496467E-02  0.73312326091E-01  0.51100000000E-03 0.  1.
         11    1    4    4    0    0 -0.36091843616E-01  0.44561947094E-01 -0.12954296611E-01  0.58791693513E-01  0.51100000000E-03 0. -1.
</event>
<event>
 8    1  0.1150307E+005  0.1043930E+01  0.7957747E-01            NaN
         13   -1    0    0    0    0  0.00000000000E+00  0.00000000000E+00  0.74505805969E-08  0.10566000000E+00  0.10566000000E+00 0.  1.
     999900   -1    0    0    0    0 -0.00000000000E+00 -0.00000000000E+00 -0.74505805969E-08  0.93827000000E+00  0.93827000000E+00 0.  1.
     999902    2    1    2    0    0 -0.22880569345E-03 -0.23572102197E-01 -0.28359814234E-02  0.10201868085E+01  0.10199104789E+01 0.  0.
     999903    2    3    3    0    0  0.96319224462E-01 -0.42781093442E-02  0.85309081133E-01  0.13031977775E+00  0.20246232442E-01 0.  0.
         14    1    1    2    0    0  0.22880569345E-03  0.23572102197E-01  0.28359814234E-02  0.23743191543E-01  0.00000000000E+00 0.  1.
     999901    1    3    3    0    0 -0.96548030156E-01 -0.19293992853E-01 -0.88145062557E-01  0.88986703071E+00  0.88000000000E+00 0.  1.
        -11    1    4    4    0    0  0.69373299548E-01  0.57397004943E-02  0.57021221389E-01  0.89984885740E-01  0.51100000000E-03 0.  1.
         11    1    4    4    0    0  0.26945924915E-01 -0.10017809838E-01  0.28287859744E-01  0.40334892009E-01  0.51100000000E-03 0. -1.
</event>
<event>
 8    1  0.1150307E+005  0.1043930E+01  0.7957747E-01            NaN
         13   -1    0    0    0    0  0.00000000000E+00  0.00000000000E+00  0.74505805969E-08  0.10566000000E+00  0.10566000000E+00 0. -1.
     999900   -1    0    0    0    0 -0.00000000000E+00 -0.00000000000E+00 -0.74505805969E-08  0.93827000000E+00  0.93827000000E+00 0. -1.
     999902    2    1    2    0    0  0.15597948488E-01 -0.11084868946E-01  0.13819171095E-01  0.10203261909E+01  0.10200531339E+01 0.  0.
     999903    2    3    3    0    0  0.11621413730E+00  0.72995667962E-02  0.61298306354E-01  0.13313068071E+00  0.20181337930E-01 0.  0.
         14    1    1    2    0    0 -0.15597948488E-01  0.11084868946E-01 -0.13819171095E-01  0.23603809149E-01  0.00000000000E+00 0.  1.
     999901    1    3    3    0    0 -0.10061618881E+00 -0.18384435742E-01 -0.47479135260E-01  0.88719551014E+00  0.88000000000E+00 0. -1.
        -11    1    4    4    0    0  0.56373027738E-01  0.48878843170E-02  0.41051101523E-01  0.69908967427E-01  0.51100000000E-03 0. -1.
         11    1    4    4    0    0  0.59841109563E-01  0.24116824792E-02  0.20247204832E-01  0.63221713284E-01  0.51100000000E-03 0.  1.
</event>
<event>
 8    1  0.1150307E+005  0.1043930E+01  0.7957747E-01            NaN
         13   -1    0    0    0    0  0.00000000000E+00  0.00000000000E+00  0.74505805969E-08  0.10566000000E+00  0.10566000000E+00 0. -1.
     999900   -1    0    0    0    0 -0.00000000000E+00 -0.00000000000E+00 -0.74505805969E-08  0.93827000000E+00  0.93827000000E+00 0. -1.
     999902    2    1    2    0    0  0.13565164725E-01 -0.15752315627E-02  0.21396398600E-01  0.10185469166E+01  0.10182305831E+01 0.  0.
     999903    2    3    3    0    0 -0.88232498041E-01  0.10253264309E-01  0.92423167007E-01  0.12975702059E+00  0.20118137444E-01 0.  0.
         14    1    1    2    0    0 -0.13565164725E-01  0.15752315627E-02 -0.21396398600E-01  0.25383083373E-01  0.00000000000E+00 0.  1.
     999901    1    3    3    0    0  0.10179766277E+00 -0.11828495872E-01 -0.71026768407E-01  0.88878989603E+00  0.88000000000E+00 0. -1.
        -11    1    4    4    0    0 -0.59101742808E-01  0.45167982805E-02  0.47757678443E-01  0.76121445342E-01  0.51100000000E-03 0. -1.
         11    1    4    4    0    0 -0.29130755233E-01  0.57364660287E-02  0.44665488565E-01  0.53635575253E-01  0.51100000000E-03 0.  1.
</event>
<event>
 8    1  0.1150307E+005  0.1043930E+01  0.7957747E-01            NaN
         13   -1    0    0    0    0  0.00000000000E+00  0.00000000000E+00  0.74505805969E-08  0.10566000000E+00  0.10566000000E+00 0.  1.
     999900   -1    0    0    0    0 -0.00000000000E+00 -0.00000000000E+00 -0.74505805969E-08  0.93827000000E+00  0.93827000000E+00 0.  1.
     999902    2    1    2    0    0 -0.35048478963E-01  0.11590120127E-01  0.18285527408E-02  0.10069696108E+01  0.10062910746E+01 0.  0.
     999903    2    3    3    0    0  0.47958567300E-01 -0.29827953480E-01 -0.99845856187E-01  0.11627139484E+00  0.18976598044E-01 0.  0.
         14    1    1    2    0    0  0.35048478963E-01 -0.11590120127E-01 -0.18285527408E-02  0.36960389166E-01  0.00000000000E+00 0. -1.
     999901    1    3    3    0    0 -0.83007046263E-01  0.41418073607E-01  0.10167440893E+00  0.89069821600E+00  0.88000000000E+00 0. -1.
        -11    1    4    4    0    0  0.16180358432E-01 -0.47059749602E-02 -0.16441240184E-01  0.23548369351E-01  0.51100000000E-03 0. -1.
         11    1    4    4    0    0  0.31778208868E-01 -0.25121978519E-01 -0.83404616003E-01  0.92723025486E-01  0.51100000000E-03 0.  1.
</event>
<event>
 8    1  0.1150307E+005  0.1043930E+01  0.7957747E-01            NaN
         13   -1    0    0    0    0  0.00000000000E+00  0.00000000000E+00  0.74505805969E-08  0.10566000000E+00  0.10566000000E+00 0.  1.
     999900   -1    0    0    0    0 -0.00000000000E+00 -0.00000000000E+00 -0.74505805969E-08  0.93827000000E+00  0.93827000000E+00 0. -1.
     999902    2    1    2    0    0 -0.13736821938E-01  0.19777267700E-01 -0.29675859350E-02  0.10196679481E+01  0.10193792608E+01 0.  0.
     999903    2    3    3    0    0 -0.47288108732E-01  0.44578990891E-01  0.11199268092E+00  0.13121047741E+00  0.21222090995E-01 0.  0.
         14    1    1    2    0    0  0.13736821938E-01 -0.19777267700E-01  0.29675859350E-02  0.24262051869E-01  0.00000000000E+00 0.  1.
     999901    1    3    3    0    0  0.33551286794E-01 -0.24801723191E-01 -0.11496026686E+00  0.88845747072E+00  0.88000000000E+00 0. -1.
        -11    1    4    4    0    0 -0.31938632409E-01  0.21581141140E-01  0.48482147194E-01  0.61940306833E-01  0.51100000000E-03 0.  1.
         11    1    4    4    0    0 -0.15349476324E-01  0.22997849751E-01  0.63510533729E-01  0.69270170579E-01  0.51100000000E-03 0. -1.
</event>
<event>
 8    1  0.1150307E+005  0.1043930E+01  0.7957747E-01            NaN
         13   -1    0    0    0    0  0.00000000000E+00  0.00000000000E+00  0.74505805969E-08  0.10566000000E+00  0.10566000000E+00 0.  1.
     999900   -1    0    0    0    0 -0.00000000000E+00 -0.00000000000E+00 -0.74505805969E-08  0.93827000000E+00  0.93827000000E+00 0. -1.
     999902    2    1    2    0    0  0.18193374024E-01  0.15247635029E-01  0.21272912853E-02  0.10200969431E+01  0.10198184930E+01 0.  0.
     999903    2    3    3    0    0 -0.65421297627E-02 -0.30513375338E-01  0.12475557521E+00  0.13007244276E+00  0.19519766448E-01 0.  0.
         14    1    1    2    0    0 -0.18193374024E-01 -0.15247635029E-01 -0.21272912853E-02  0.23833056887E-01  0.00000000000E+00 0. -1.
     999901    1    3    3    0    0  0.24735503787E-01  0.45761010368E-01 -0.12262828392E+00  0.89002450036E+00  0.88000000000E+00 0. -1.
        -11    1    4    4    0    0  0.63818152203E-02 -0.15717443666E-01  0.51358454144E-01  0.54089902329E-01  0.51100000000E-03 0.  1.
         11    1    4    4    0    0 -0.12923944983E-01 -0.14795931672E-01  0.73397121067E-01  0.75982540428E-01  0.51100000000E-03 0. -1.
</event>
<event>
 8    1  0.1150307E+005  0.1043930E+01  0.7957747E-01            NaN
         13   -1    0    0    0    0  0.00000000000E+00  0.00000000000E+00  0.74505805969E-08  0.10566000000E+00  0.10566000000E+00 0.  1.
     999900   -1    0    0    0    0 -0.00000000000E+00 -0.00000000000E+00 -0.74505805969E-08  0.93827000000E+00  0.93827000000E+00 0. -1.
     999902    2    1    2    0    0  0.21713354690E-01  0.11900058819E-01 -0.69945318558E-02  0.10182005490E+01  0.10178754115E+01 0.  0.
     999903    2    3    3    0    0  0.90375428621E-01 -0.36720107937E-01 -0.86074494300E-01  0.13065785063E+00  0.12106648435E-01 0.  0.
         14    1    1    2    0    0 -0.21713354690E-01 -0.11900058819E-01  0.69945318558E-02  0.25729450978E-01  0.00000000000E+00 0.  1.
     999901    1    3    3    0    0 -0.68662073932E-01  0.48620166756E-01  0.79079962444E-01  0.88754269839E+00  0.88000000000E+00 0.  1.
        -11    1    4    4    0    0  0.19234044705E-01 -0.95502738184E-02 -0.25557948555E-01  0.33386015951E-01  0.51100000000E-03 0. -1.
         11    1    4    4    0    0  0.71141383917E-01 -0.27169834119E-01 -0.60516545744E-01  0.97271834677E-01  0.51100000000E-03 0.  1.
</event>
<event>
 8    1  0.1150307E+005  0.1043930E+01  0.7957747E-01            NaN
         13   -1    0    0    0    0  0.00000000000E+00  0.00000000000E+00  0.74505805969E-08  0.10566000000E+00  0.10566000000E+00 0. -1.
     999900   -1    0    0    0    0 -0.00000000000E+00 -0.00000000000E+00 -0.74505805969E-08  0.93827000000E+00  0.93827000000E+00 0. -1.
     999902    2    1    2    0    0 -0.29988436324E-01  0.11504986533E-01  0.53260943110E-02  0.10113717705E+01  0.10108475750E+01 0.  0.
     999903    2    3    3    0    0  0.10947870810E+00 -0.40909827827E-01 -0.70503007891E-02  0.11876235294E+00  0.19889399088E-01 0.  0.
         14    1    1    2    0    0  0.29988436324E-01 -0.11504986533E-01 -0.53260943110E-02  0.32558229511E-01  0.00000000000E+00 0.  1.
     999901    1    3    3    0    0 -0.13946714442E+00  0.52414814360E-01  0.12376395100E-01  0.89260941755E+00  0.88000000000E+00 0. -1.
        -11    1    4    4    0    0  0.83960659724E-01 -0.28958851936E-01 -0.13540367473E-01  0.89842140218E-01  0.51100000000E-03 0.  1.
         11    1    4    4    0    0  0.25518048372E-01 -0.11950975891E-01  0.64900666835E-02  0.28920212724E-01  0.51100000000E-03 0. -1.
</event>
<event>
 8    1  0.1150307E+005  0.1043930E+01  0.7957747E-01            NaN
         13   -1    0    0    0    0  0.00000000000E+00  0.00000000000E+00  0.74505805969E-08  0.10566000000E+00  0.10566000000E+00 0. -1.
     999900   -1    0    0    0    0 -0.00000000000E+00 -0.00000000000E+00 -0.74505805969E-08  0.93827000000E+00  0.93827000000E+00 0.  1.
     999902    2    1    2    0    0  0.12538342106E-01 -0.77596094035E-02  0.19037041330E-01  0.10198503301E+01  0.10195660181E+01 0.  0.
     999903    2    3    3    0    0 -0.47056488216E-01  0.10785328644E+00 -0.45980530155E-01  0.12791694126E+00  0.20047200054E-01 0.  0.
         14    1    1    2    0    0 -0.12538342106E-01  0.77596094035E-02 -0.19037041330E-01  0.24079669920E-01  0.00000000000E+00 0.  1.
     999901    1    3    3    0    0  0.59594830322E-01 -0.11561289584E+00  0.65017571485E-01  0.89193338882E+00  0.88000000000E+00 0. -1.
        -11    1    4    4    0    0 -0.38767688094E-01  0.81869423033E-01 -0.26453218101E-01  0.94369327309E-01  0.51100000000E-03 0. -1.
         11    1    4    4    0    0 -0.82888001220E-02  0.25983863404E-01 -0.19527312054E-01  0.33547613953E-01  0.51100000000E-03 0.  1.
</event>
<event>
 8    1  0.1150307E+005  0.1043930E+01  0.7957747E-01            NaN
         13   -1    0    0    0    0  0.00000000000E+00  0.00000000000E+00  0.74505805969E-08  0.10566000000E+00  0.10566000000E+00 0.  1.
     999900   -1    0    0    0    0 -0.00000000000E+00 -0.00000000000E+00 -0.74505805969E-08  0.93827000000E+00  0.93827000000E+00 0. -1.
     999902    2    1    2    0    0 -0.11696915897E-01 -0.12290854140E-01 -0.16317404673E-01  0.10203898082E+01  0.10201182382E+01 0.  0.
     999903    2    3    3    0    0 -0.25530783713E-01  0.54016835243E-01 -0.11617228414E+00  0.13215612126E+00  0.19990031990E-01 0.  0.
         14    1    1    2    0    0  0.11696915897E-01  0.12290854140E-01  0.16317404673E-01  0.23540191849E-01  0.00000000000E+00 0.  1.
     999901    1    3    3    0    0  0.13833867816E-01 -0.66307689383E-01  0.99854879464E-01  0.88823368689E+00  0.88000000000E+00 0.  1.
        -11    1    4    4    0    0  0.10980263821E-02  0.18406477009E-01 -0.37290323394E-01  0.41603285900E-01  0.51100000000E-03 0. -1.
         11    1    4    4    0    0 -0.26628810095E-01  0.35610358234E-01 -0.78881960743E-01  0.90552835363E-01  0.51100000000E-03 0.  1.
</event>
<event>
 8    1  0.1208043E+005  0.1043930E+01  0.7957747E-01            NaN
         13   -1    0    0    0    0  0.00000000000E+00  0.00000000000E+00  0.74505805969E-08  0.10566000000E+00  0.10566000000E+00 0.  1.
     999900   -1    0    0    0    0 -0.00000000000E+00 -0.00000000000E+00 -0.74505805969E-08  0.93827000000E+00  0.93827000000E+00 0.  1.
     999902    2    1    2    0    0 -0.43199326474E-02 -0.21273135989E-01  0.91565334526E-02  0.10203704958E+01  0.10200984749E+01 0.  0.
     999903    2    3    3    0    0  0.50167039759E-01 -0.12083006245E+00 -0.63587765460E-02  0.13294661929E+00  0.22753761691E-01 0.  0.
         14    1    1    2    0    0  0.43199326474E-02  0.21273135989E-01 -0.91565334526E-02  0.23559504191E-01  0.00000000000E+00 0.  1.
     999901    1    3    3    0    0 -0.54486972406E-01  0.99556926465E-01  0.15515309999E-01  0.88742387652E+00  0.88000000000E+00 0. -1.
        -11    1    4    4    0    0  0.36565770623E-01 -0.75507623801E-01  0.57690342075E-02  0.84095182443E-01  0.51100000000E-03 0. -1.
         11    1    4    4    0    0  0.13601269136E-01 -0.45322438652E-01 -0.12127810754E-01  0.48851436848E-01  0.51100000000E-03 0.  1.
</event>
<event>
 8    1  0.1150307E+005  0.1043930E+01  0.7957747E-01            NaN
         13   -1    0    0    0    0  0.00000000000E+00  0.00000000000E+00  0.74505805969E-08  0.10566000000E+00  0.10566000000E+00 0.  1.
     999900   -1    0    0    0    0 -0.00000000000E+00 -0.00000000000E+00 -0.74505805969E-08  0.93827000000E+00  0.93827000000E+00 0. -1.
     999902    2    1    2    0    0  0.37298569610E-02  0.18696418732E-01  0.12215946707E-01  0.10212871808E+01  0.10210361445E+01 0.  0.
     999903    2    3    3    0    0  0.13043123005E+00  0.17133431304E-02 -0.55069413348E-03  0.13195897936E+00  0.19940603151E-01 0.  0.
         14    1    1    2    0    0 -0.37298569610E-02 -0.18696418732E-01 -0.12215946707E-01  0.22642819177E-01  0.00000000000E+00 0. -1.
     999901    1    3    3    0    0 -0.12670137308E+00  0.16983075601E-01  0.12766640841E-01  0.88932820146E+00  0.88000000000E+00 0. -1.
        -11    1    4    4    0    0  0.10210683669E+00 -0.60637486178E-02  0.32336563653E-02  0.10233910690E+00  0.51100000000E-03 0. -1.
         11    1    4    4    0    0  0.28324393352E-01  0.77770917482E-02 -0.37843504988E-02  0.29619872459E-01  0.51100000000E-03 0.  1.
</event>
<event>
 8    1  0.1150307E+005  0.1043930E+01  0.7957747E-01            NaN
         13   -1    0    0    0    0  0.00000000000E+00  0.00000000000E+00  0.74505805969E-08  0.10566000000E+00  0.10566000000E+00 0.  1.
     999900   -1    0    0    0    0 -0.00000000000E+00 -0.00000000000E+00 -0.74505805969E-08  0.93827000000E+00  0.93827000000E+00 0.  1.
     999902    2    1    2    0    0  0.10347601952E-01  0.20696201404E-01 -0.17790973427E-01  0.10147422568E+01  0.10143223962E+01 0.  0.
     999903    2    3    3    0    0 -0.57831174489E-02  0.59363320400E-01 -0.11222549851E+00  0.12869867674E+00  0.20281484762E-01 0.  0.
         14    1    1    2    0    0 -0.10347601952E-01 -0.20696201404E-01  0.17790973427E-01  0.29187743219E-01  0.00000000000E+00 0.  1.
     999901    1    3    3    0    0  0.16130719401E-01 -0.38667118997E-01  0.94434525079E-01  0.88604358004E+00  0.88000000000E+00 0. -1.
        -11    1    4    4    0    0  0.29607172881E-02  0.16005138854E-01 -0.16177652243E-01  0.22954473849E-01  0.51100000000E-03 0. -1.
         11    1    4    4    0    0 -0.87438347370E-02  0.43358181546E-01 -0.96047846264E-01  0.10574420289E+00  0.51100000000E-03 0.  1.
</event>
<event>
 8    1  0.1150307E+005  0.1043930E+01  0.7957747E-01            NaN
         13   -1    0    0    0    0  0.00000000000E+00  0.00000000000E+00  0.74505805969E-08  0.10566000000E+00  0.10566000000E+00 0.  1.
     999900   -1    0    0    0    0 -0.00000000000E+00 -0.00000000000E+00 -0.74505805969E-08  0.93827000000E+00  0.93827000000E+00 0. -1.
     999902    2    1    2    0    0 -0.20938537106E-01 -0.40963968340E-02  0.12357099234E-01  0.10192743575E+01  0.10189761112E+01 0.  0.
     999903    2    3    3    0    0  0.10873755961E+00  0.43524365533E-01 -0.44036952462E-01  0.12671404243E+00  0.19974185868E-01 0.  0.
         14    1    1    2    0    0  0.20938537106E-01  0.40963968340E-02 -0.12357099234E-01  0.24655642450E-01  0.00000000000E+00 0. -1.
     999901    1    3    3    0    0 -0.12967609671E+00 -0.47620762367E-01  0.56394051695E-01  0.89256031512E+00  0.88000000000E+00 0.  1.
        -11    1    4    4    0    0  0.93402813525E-01  0.44369594489E-01 -0.39462944703E-01  0.11068121618E+00  0.51100000000E-03 0. -1.
         11    1    4    4    0    0  0.15334746084E-01 -0.84522895622E-03 -0.45740077581E-02  0.16032826246E-01  0.51100000000E-03 0.  1.
</event>
<event>
 8    1  0.1150307E+005  0.1043930E+01  0.7957747E-01            NaN
         13   -1    0    0    0    0  0.00000000000E+00  0.00000000000E+00  0.74505805969E-08  0.10566000000E+00  0.10566000000E+00 0. -1.
     999900   -1    0    0    0    0 -0.00000000000E+00 -0.00000000000E+00 -0.74505805969E-08  0.93827000000E+00  0.93827000000E+00 0. -1.
     999902    2    1    2    0    0 -0.34143894551E-02 -0.19011062775E-01 -0.14166536094E-01  0.10199765178E+01  0.10196952131E+01 0.  0.
     999903    2    3    3    0    0 -0.19376548703E-01  0.81601656930E-01 -0.96765847630E-01  0.13025726089E+00  0.23854636759E-01 0.  0.
         14    1    1    2    0    0  0.34143894551E-02  0.19011062775E-01  0.14166536094E-01  0.23953482170E-01  0.00000000000E+00 0.  1.
     999901    1    3    3    0    0  0.15962159247E-01 -0.10061271971E+00  0.82599311537E-01  0.88971925693E+00  0.88000000000E+00 0.  1.
        -11    1    4    4    0    0 -0.21440810574E-01  0.61145310361E-01 -0.83857171400E-01  0.10597520301E+00  0.51100000000E-03 0. -1.
         11    1    4    4    0    0  0.20642618718E-02  0.20456346568E-01 -0.12908676231E-01  0.24282057883E-01  0.51100000000E-03 0.  1.
</event>
<event>
 8    1  0.1150307E+005  0.1043930E+01  0.7957747E-01            NaN
         13   -1    0    0    0    0  0.00000000000E+00  0.00000000000E+00  0.74505805969E-08  0.10566000000E+00  0.10566000000E+00 0. -1.
     999900   -1    0    0    0    0 -0.00000000000E+00 -0.00000000000E+00 -0.74505805969E-08  0.93827000000E+00  0.93827000000E+00 0. -1.
     999902    2    1    2    0    0  0.98734748727E-03  0.22050385845E-01  0.14023368977E-01  0.10177794886E+01  0.10174434815E+01 0.  0.
     999903    2    3    3    0    0 -0.66092271284E-01  0.10845623176E+00 -0.21565610155E-01  0.13029302619E+00  0.19500117970E-01 0.  0.
         14    1    1    2    0    0 -0.98734748727E-03 -0.22050385845E-01 -0.14023368977E-01  0.26150511438E-01  0.00000000000E+00 0.  1.
     999901    1    3    3    0    0  0.67079618771E-01 -0.86405845914E-01  0.35588979131E-01  0.88748646237E+00  0.88000000000E+00 0. -1.
        -11    1    4    4    0    0 -0.38798314468E-01  0.79186701330E-01 -0.10762126510E-01  0.88836520424E-01  0.51100000000E-03 0. -1.
         11    1    4    4    0    0 -0.27293956817E-01  0.29269530430E-01 -0.10803483645E-01  0.41456505764E-01  0.51100000000E-03 0.  1.
</event>
<event>
 8    1  0.1150307E+005  0.1043930E+01  0.7957747E-01            NaN
         13   -1    0    0    0    0  0.00000000000E+00  0.00000000000E+00  0.74505805969E-08  0.10566000000E+00  0.10566000000E+00 0. -1.
     999900   -1    0    0    0    0 -0.00000000000E+00 -0.00000000000E+00 -0.74505805969E-08  0.93827000000E+00  0.93827000000E+00 0.  1.
     999902    2    1    2    0    0  0.81228210506E-02 -0.20215013780E-01 -0.12117012862E-01  0.10190011211E+01  0.10186961450E+01 0.  0.
     999903    2    3    3    0    0 -0.68812184222E-01 -0.45373640860E-01  0.95831075536E-01  0.12871760368E+00  0.24305194424E-01 0.  0.
         14    1    1    2    0    0 -0.81228210506E-02  0.20215013780E-01  0.12117012862E-01  0.24928878929E-01  0.00000000000E+00 0. -1.
     999901    1    3    3    0    0  0.76935005273E-01  0.25158627080E-01 -0.10794808840E+00  0.89028351739E+00  0.88000000000E+00 0.  1.
        -11    1    4    4    0    0 -0.17506430013E-02 -0.69308810783E-02  0.16319051797E-01  0.17823423801E-01  0.51100000000E-03 0. -1.
         11    1    4    4    0    0 -0.67061541221E-01 -0.38442759782E-01  0.79512023739E-01  0.11089417988E+00  0.51100000000E-03 0.  1.
</event>
<event>
 8    1  0.1150307E+005  0.1043930E+01  0.7957747E-01            NaN
         13   -1    0    0    0    0  0.00000000000E+00  0.00000000000E+00  0.74505805969E-08  0.10566000000E+00  0.10566000000E+00 0. -1.
     999900   -1    0    0    0    0 -0.00000000000E+00 -0.00000000000E+00 -0.74505805969E-08  0.93827000000E+00  0.93827000000E+00 0. -1.
     999902    2    1    2    0    0 -0.16361166160E-01 -0.18790033185E-02  0.18029763596E-01  0.10195109339E+01  0.10192184524E+01 0.  0.
     999903    2    3    3    0    0  0.51838358120E-01  0.19594035781E-01  0.11727432187E+00  0.13105060908E+00  0.18704383429E-01 0.  0.
         14    1    1    2    0    0  0.16361166160E-01  0.18790033185E-02 -0.18029763596E-01  0.24419066053E-01  0.00000000000E+00 0.  1.
     999901    1    3    3    0    0 -0.68199524281E-01 -0.21473039100E-01 -0.99244558271E-01  0.88846032487E+00  0.88000000000E+00 0. -1.
        -11    1    4    4    0    0  0.25887899390E-01  0.37739720204E-02  0.71168916925E-01  0.75826789837E-01  0.51100000000E-03 0. -1.
         11    1    4    4    0    0  0.25950458730E-01  0.15820063761E-01  0.46105404942E-01  0.55223819241E-01  0.51100000000E-03 0.  1.
</event>
<event>
 8    1  0.1150307E+005  0.1043930E+01  0.7957747E-01            NaN
         13   -1    0    0    0    0  0.00000000000E+00  0.00000000000E+00  0.74505805969E-08  0.10566000000E+00  0.10566000000E+00 0. -1.
     999900   -1    0    0    0    0 -0.00000000000E+00 -0.00000000000E+00 -0.74505805969E-08  0.93827000000E+00  0.93827000000E+00 0. -1.
     999902    2    1    2    0    0  0.16041601959E-01  0.34613588593E-03  0.18697044693E-01  0.10192919748E+01  0.10189941598E+01 0.  0.
     999903    2    3    3    0    0  0.33797894996E-01 -0.12172058277E+00 -0.21065236176E-01  0.12979964282E+00  0.21118833450E-01 0.  0.
         14    1    1    2    0    0 -0.16041601959E-01 -0.34613588593E-03 -0.18697044693E-01  0.24638025159E-01  0.00000000000E+00 0.  1.
     999901    1    3    3    0    0 -0.17756293037E-01  0.12206671865E+00  0.39762280869E-01  0.88949233202E+00  0.88000000000E+00 0.  1.
        -11    1    4    4    0    0  0.24840944444E-01 -0.83659512145E-01 -0.46652571193E-02  0.87395722082E-01  0.51100000000E-03 0.  1.
         11    1    4    4    0    0  0.89569505522E-02 -0.38061070620E-01 -0.16399979056E-01  0.42403920738E-01  0.51100000000E-03 0. -1.
</event>
<event>
 8    1  0.1150307E+005  0.1043930E+01  0.7957747E-01            NaN
         13   -1    0    0    0    0  0.00000000000E+00  0.00000000000E+00  0.74505805969E-08  0.10566000000E+00  0.10566000000E+00 0. -1.
     999900   -1    0    0    0    0 -0.00000000000E+00 -0.00000000000E+00 -0.74505805969E-08  0.93827000000E+00  0.93827000000E+00 0.  1.
     999902    2    1    2    0    0 -0.17243388023E-01  0.89286682159E-02  0.12630667693E-01  0.10207656025E+01  0.10205027319E+01 0.  0.
     999903    2    3    3    0    0  0.27398447688E-01 -0.86392081874E-01  0.92317005737E-01  0.13091794620E+00  0.20070185429E-01 0.  0.
         14    1    1    2    0    0  0.17243388023E-01 -0.89286682159E-02 -0.12630667693E-01  0.23164397531E-01  0.00000000000E+00 0.  1.
     999901    1    3    3    0    0 -0.44641835711E-01  0.95320750090E-01 -0.79686338044E-01  0.88984765627E+00  0.88000000000E+00 0.  1.
        -11    1    4    4    0    0  0.17864459927E-01 -0.34231527833E-01  0.28784521292E-01  0.48163743763E-01  0.51100000000E-03 0.  1.
         11    1    4    4    0    0  0.95339877611E-02 -0.52160554041E-01  0.63532484445E-01  0.82754202438E-01  0.51100000000E-03 0. -1.
</event>
<event>
 8    1  0.1150307E+005  0.1043930E+01  0.7957747E-01            NaN
         13   -1    0    0    0    0  0.00000000000E+00  0.00000000000E+00  0.74505805969E-08  0.10566000000E+00  0.10566000000E+00 0. -1.
     999900   -1    0    0    0    0 -0.00000000000E+00 -0.00000000000E+00 -0.74505805969E-08  0.93827000000E+00  0.93827000000E+00 0.  1.
     999902    2    1    2    0    0 -0.11304373700E-02 -0.69420313378E-02  0.21101006994E-01  0.10216876489E+01  0.10214455099E+01 0.  0.
     999903    2    3    3    0    0  0.77545505208E-01  0.29121948200E-01 -0.97527006051E-01  0.12951999644E+00  0.20062884227E-01 0.  0.
         14    1    1    2    0    0  0.11304373700E-02  0.69420313378E-02 -0.21101006994E-01  0.22242351132E-01  0.00000000000E+00 0.  1.
     999901    1    3    3    0    0 -0.78675942578E-01 -0.36063979538E-01  0.11862801304E+00  0.89216765243E+00  0.88000000000E+00 0.  1.
        -11    1    4    4    0    0  0.36003470335E-01  0.56762548929E-02 -0.32254638850E-01  0.48673325283E-01  0.51100000000E-03 0. -1.
         11    1    4    4    0    0  0.41542034873E-01  0.23445693307E-01 -0.65272367201E-01  0.80846671156E-01  0.51100000000E-03 0.  1.
</event>
<event>
 8    1  0.1150307E+005  0.1043930E+01  0.7957747E-01            NaN
         13   -1    0    0    0    0  0.00000000000E+00  0.00000000000E+00  0.74505805969E-08  0.10566000000E+00  0.10566000000E+00 0.  1.
     999900   -1    0    0    0    0 -0.00000000000E+00 -0.00000000000E+00 -0.74505805969E-08  0.93827000000E+00  0.93827000000E+00 0.  1.
     999902    2    1    2    0    0 -0.18536737098E-01  0.13387082594E-01  0.92710145833E-02  0.10192566072E+01  0.10189579260E+01 0.  0.
     999903    2    3    3    0    0 -0.20830987818E-01  0.12333896003E+00  0.36561816091E-01  0.13199144568E+00  0.20941495207E-01 0.  0.
         14    1    1    2    0    0  0.18536737098E-01 -0.13387082594E-01 -0.92710145833E-02  0.24673392836E-01  0.00000000000E+00 0. -1.
     999901    1    3    3    0    0  0.22942507204E-02 -0.10995187744E+00 -0.27290801507E-01  0.88726516149E+00  0.88000000000E+00 0.  1.
        -11    1    4    4    0    0  0.23720009463E-03  0.42775985913E-01  0.55847469321E-02  0.43142690621E-01  0.51100000000E-03 0. -1.
         11    1    4    4    0    0 -0.21068187913E-01  0.80562974118E-01  0.30977069159E-01  0.88848755058E-01  0.51100000000E-03 0.  1.
</event>
<event>
 8    1  0.1150307E+005  0.1043930E+01  0.7957747E-01            NaN
         13   -1    0    0    0    0  0.00000000000E+00  0.00000000000E+00  0.74505805969E-08  0.10566000000E+00  0.10566000000E+00 0.  1.
     999900   -1    0    0    0    0 -0.00000000000E+00 -0.00000000000E+00 -0.74505805969E-08  0.93827000000E+00  0.93827000000E+00 0. -1.
     999902    2    1    2    0    0 -0.11726997409E-01 -0.18575507680E-01  0.97998066877E-02  0.10198757246E+01  0.10195920191E+01 0.  0.
     999903    2    3    3    0    0 -0.98881419374E-01  0.77771016616E-01 -0.23387149334E-01  0.12971848003E+00  0.21308664545E-01 0.  0.
         14    1    1    2    0    0  0.11726997409E-01  0.18575507680E-01 -0.97998066877E-02  0.24054275398E-01  0.00000000000E+00 0. -1.
     999901    1    3    3    0    0  0.87154421964E-01 -0.96346524296E-01  0.33186956022E-01  0.89015724457E+00  0.88000000000E+00 0. -1.
        -11    1    4    4    0    0 -0.39866199268E-01  0.32136189996E-01  0.10376914997E-02  0.51219005029E-01  0.51100000000E-03 0.  1.
         11    1    4    4    0    0 -0.59015220106E-01  0.45634826620E-01 -0.24424840834E-01  0.78499475002E-01  0.51100000000E-03 0. -1.
</event>
<event>
 8    1  0.1150307E+005  0.1043930E+01  0.7957747E-01            NaN
         13   -1    0    0    0    0  0.00000000000E+00  0.00000000000E+00  0.74505805969E-08  0.10566000000E+00  0.10566000000E+00 0.  1.
     999900   -1    0    0    0    0 -0.00000000000E+00 -0.00000000000E+00 -0.74505805969E-08  0.93827000000E+00  0.93827000000E+00 0.  1.
     999902    2    1    2    0    0  0.41660079160E-02 -0.18812193153E-01  0.13693133363E-01  0.10202919769E+01  0.10200181185E+01 0.  0.
     999903    2    3    3    0    0 -0.47108056899E-01 -0.99007234846E-01 -0.69250249276E-01  0.13128135880E+00  0.20435179627E-01 0.  0.
         14    1    1    2    0    0 -0.41660079160E-02  0.18812193153E-01 -0.13693133363E-01  0.23638023066E-01  0.00000000000E+00 0. -1.
     999901    1    3    3    0    0  0.51274064815E-01  0.80195041693E-01  0.82943382639E-01  0.88901061814E+00  0.88000000000E+00 0. -1.
        -11    1    4    4    0    0 -0.10447078336E-01 -0.39225656370E-01 -0.33116684299E-01  0.52390547462E-01  0.51100000000E-03 0. -1.
         11    1    4    4    0    0 -0.36660978563E-01 -0.59781578476E-01 -0.36133564977E-01  0.78890811336E-01  0.51100000000E-03 0.  1.
</event>
<event>
 8    1  0.1150307E+005  0.1043930E+01  0.7957747E-01            NaN
         13   -1    0    0    0    0  0.00000000000E+00  0.00000000000E+00  0.74505805969E-08  0.10566000000E+00  0.10566000000E+00 0.  1.
     999900   -1    0    0    0    0 -0.00000000000E+00 -0.00000000000E+00 -0.74505805969E-08  0.93827000000E+00  0.93827000000E+00 0.  1.
     999902    2    1    2    0    0  0.10033481410E-01 -0.20926094536E-01 -0.53886479848E-02  0.10201054390E+01  0.10198271897E+01 0.  0.
     999903    2    3    3    0    0 -0.63996438076E-01 -0.38171677513E-01 -0.10584276116E+00  0.13113476005E+00  0.21000336973E-01 0.  0.
         14    1    1    2    0    0 -0.10033481410E-01  0.20926094536E-01  0.53886479848E-02  0.23824561042E-01  0.00000000000E+00 0. -1.
     999901    1    3    3    0    0  0.74029919486E-01  0.17245582977E-01  0.10045411317E+00  0.88897067891E+00  0.88000000000E+00 0. -1.
        -11    1    4    4    0    0 -0.34361243753E-01 -0.28005006720E-01 -0.75280483222E-01  0.87363537868E-01  0.51100000000E-03 0. -1.
         11    1    4    4    0    0 -0.29635194322E-01 -0.10166670794E-01 -0.30562277933E-01  0.43771222179E-01  0.51100000000E-03 0.  1.
</event>
<event>
 8    1  0.1150307E+005  0.1043930E+01  0.7957747E-01            NaN
         13   -1    0    0    0    0  0.00000000000E+00  0.00000000000E+00  0.74505805969E-08  0.10566000000E+00  0.10566000000E+00 0.  1.
     999900   -1    0    0    0    0 -0.00000000000E+00 -0.00000000000E+00 -0.74505805969E-08  0.93827000000E+00  0.93827000000E+00 0. -1.
     999902    2    1    2    0    0  0.22429677549E-01  0.34541007102E-02  0.75262432957E-02  0.10200204708E+01  0.10197402097E+01 0.  0.
     999903    2    3    3    0    0 -0.30470760175E-01 -0.11102369168E+00  0.56106050032E-01  0.12970388732E+00  0.20505662515E-01 0.  0.
         14    1    1    2    0    0 -0.22429677549E-01 -0.34541007102E-02 -0.75262432957E-02  0.23909529164E-01  0.00000000000E+00 0.  1.
     999901    1    3    3    0    0  0.52900437724E-01  0.11447779239E+00 -0.48579806737E-01  0.89031658352E+00  0.88000000000E+00 0. -1.
        -11    1    4    4    0    0 -0.96236213643E-02 -0.37059633918E-01  0.82415595097E-02  0.39169056389E-01  0.51100000000E-03 0. -1.
         11    1    4    4    0    0 -0.20847138811E-01 -0.73964057765E-01  0.47864490523E-01  0.90534830930E-01  0.51100000000E-03 0.  1.
</event>
<event>
 8    1  0.1150307E+005  0.1043930E+01  0.7957747E-01            NaN
         13   -1    0    0    0    0  0.00000000000E+00  0.00000000000E+00  0.74505805969E-08  0.10566000000E+00  0.10566000000E+00 0.  1.
     999900   -1    0    0    0    0 -0.00000000000E+00 -0.00000000000E+00 -0.74505805969E-08  0.93827000000E+00  0.93827000000E+00 0. -1.
     999902    2    1    2    0    0 -0.25754523754E-01  0.48810603494E-02 -0.60084001858E-02  0.10170372293E+01  0.10166816142E+01 0.  0.
     999903    2    3    3    0    0 -0.33853014336E-02  0.11761429204E+00 -0.47605206457E-01  0.12858944921E+00  0.20601184612E-01 0.  0.
         14    1    1    2    0    0  0.25754523754E-01 -0.48810603494E-02  0.60084001858E-02  0.26892770715E-01  0.00000000000E+00 0.  1.
     999901    1    3    3    0    0 -0.22369222321E-01 -0.11273323169E+00  0.41596806271E-01  0.88844778008E+00  0.88000000000E+00 0. -1.
        -11    1    4    4    0    0  0.15322272714E-02  0.36797091606E-01 -0.52275046242E-02  0.37201634328E-01  0.51100000000E-03 0. -1.
         11    1    4    4    0    0 -0.49175287050E-02  0.80817200434E-01 -0.42377701833E-01  0.91387814878E-01  0.51100000000E-03 0.  1.
</event>
<event>
 8    1  0.1150307E+005  0.1043930E+01  0.7957747E-01            NaN
         13   -1    0    0    0    0  0.00000000000E+00  0.00000000000E+00  0.74505805969E-08  0.10566000000E+00  0.10566000000E+00 0.  1.
     999900   -1    0    0    0    0 -0.00000000000E+00 -0.00000000000E+00 -0.74505805969E-08  0.93827000000E+00  0.93827000000E+00 0.  1.
     999902    2    1    2    0    0 -0.24551203948E-02  0.13573875677E-01 -0.19595794663E-01  0.10199660086E+01  0.10196844540E+01 0.  0.
     999903    2    3    3    0    0 -0.11710434924E+00 -0.47981381742E-01  0.19105240968E-01  0.12955528000E+00  0.20097729667E-01 0.  0.
         14    1    1    2    0    0  0.24551203948E-02 -0.13573875677E-01  0.19595794663E-01  0.23963991435E-01  0.00000000000E+00 0.  1.
     999901    1    3    3    0    0  0.11464922884E+00  0.61555257419E-01 -0.38701035630E-01  0.89041072857E+00  0.88000000000E+00 0.  1.
        -11    1    4    4    0    0 -0.85878455607E-01 -0.25437131236E-01  0.11634303250E-01  0.90320401439E-01  0.51100000000E-03 0.  1.
         11    1    4    4    0    0 -0.31225893633E-01 -0.22544250506E-01  0.74709377176E-02  0.39234878558E-01  0.51100000000E-03 0. -1.
</event>
<event>
 8    1  0.1150307E+005  0.1043930E+01  0.7957747E-01            NaN
         13   -1    0    0    0    0  0.00000000000E+00  0.00000000000E+00  0.74505805969E-08  0.10566000000E+00  0.10566000000E+00 0. -1.
     999900   -1    0    0    0    0 -0.00000000000E+00 -0.00000000000E+00 -0.74505805969E-08  0.93827000000E+00  0.93827000000E+00 0. -1.
     999902    2    1    2    0    0  0.92447391023E-02 -0.18344657758E-01 -0.12366729707E-01  0.10199523506E+01  0.10196704711E+01 0.  0.
     999903    2    3    3    0    0 -0.12701323483E+00  0.93074037495E-02 -0.14929079818E-01  0.12903291671E+00  0.14409253414E-01 0.  0.
         14    1    1    2    0    0 -0.92447391023E-02  0.18344657758E-01  0.12366729707E-01  0.23977649447E-01  0.00000000000E+00 0.  1.
     999901    1    3    3    0    0  0.13625797393E+00 -0.27652061508E-01  0.25623501113E-02  0.89091943385E+00  0.88000000000E+00 0.  1.
        -11    1    4    4    0    0 -0.45328693499E-01 -0.11524651335E-02 -0.10585405955E-01  0.46565336576E-01  0.51100000000E-03 0.  1.
         11    1    4    4    0    0 -0.81684541329E-01  0.10459868883E-01 -0.43436738625E-02  0.82467580132E-01  0.51100000000E-03 0. -1.
</event>
<event>
 8    1  0.1150307E+005  0.1043930E+01  0.7957747E-01            NaN
         13   -1    0    0    0    0  0.00000000000E+00  0.00000000000E+00  0.74505805969E-08  0.10566000000E+00  0.10566000000E+00 0. -1.
     999900   -1    0    0    0    0 -0.00000000000E+00 -0.00000000000E+00 -0.74505805969E-08  0.93827000000E+00  0.93827000000E+00 0. -1.
     999902    2    1    2    0    0  0.19828588659E-01 -0.81911850546E-02 -0.79304858948E-02  0.10210572860E+01  0.10208010679E+01 0.  0.
     999903    2    3    3    0    0  0.25068432568E-01  0.93513863918E-01 -0.86794197262E-01  0.13168061777E+00  0.20815459709E-01 0.  0.
         14    1    1    2    0    0 -0.19828588659E-01  0.81911850546E-02  0.79304858948E-02  0.22872714035E-01  0.00000000000E+00 0. -1.
     999901    1    3    3    0    0 -0.52398439091E-02 -0.10170504897E+00  0.78863711368E-01  0.88937666819E+00  0.88000000000E+00 0.  1.
        -11    1    4    4    0    0  0.27262563032E-01  0.87999793014E-01 -0.85268884783E-01  0.12553188737E+00  0.51100000000E-03 0.  1.
         11    1    4    4    0    0 -0.21941304646E-02  0.55140709038E-02 -0.15253124793E-02  0.61487304045E-02  0.51100000000E-03 0. -1.
</event>
<event>
 8    1  0.1150307E+005  0.1043930E+01  0.7957747E-01            NaN
         13   -1    0    0    0    0  0.00000000000E+00  0.00000000000E+00  0.74505805969E-08  0.10566000000E+00  0.10566000000E+00 0. -1.
     999900   -1    0    0    0    0 -0.00000000000E+00 -0.00000000000E+00 -0.74505805969E-08  0.93827000000E+00  0.93827000000E+00 0.  1.
     999902    2    1    2    0    0  0.12176536266E-01  0.77082892096E-02  0.20218915144E-01  0.10191007775E+01  0.10187982649E+01 0.  0.
     999903    2    3    3    0    0  0.83653699463E-01 -0.19578421400E-01  0.98552845746E-01  0.13231458341E+00  0.20328048583E-01 0.  0.
         14    1    1    2    0    0 -0.12176536266E-01 -0.77082892096E-02 -0.20218915144E-01  0.24829222452E-01  0.00000000000E+00 0.  1.
     999901    1    3    3    0    0 -0.71477163197E-01  0.27286710610E-01 -0.78333930602E-01  0.88678619414E+00  0.88000000000E+00 0.  1.
        -11    1    4    4    0    0  0.71577470346E-01 -0.16167221059E-01  0.71344587196E-01  0.10234756734E+00  0.51100000000E-03 0. -1.
         11    1    4    4    0    0  0.12076229117E-01 -0.34112003417E-02  0.27208258550E-01  0.29967016064E-01  0.51100000000E-03 0.  1.
</event>
<event>
 8    1  0.1150307E+005  0.1043930E+01  0.7957747E-01            NaN
         13   -1    0    0    0    0  0.00000000000E+00  0.00000000000E+00  0.74505805969E-08  0.10566000000E+00  0.10566000000E+00 0.  1.
     999900   -1    0    0    0    0 -0.00000000000E+00 -0.00000000000E+00 -0.74505805969E-08  0.93827000000E+00  0.93827000000E+00 0. -1.
     999902    2    1    2    0    0  0.16670854939E-01  0.19485714617E-01 -0.11205290606E-01  0.10159448429E+01  0.10155593310E+01 0.  0.
     999903    2    3    3    0    0 -0.56835447459E-01 -0.28227440595E-01 -0.10752835094E+00  0.12636187680E+00  0.19440194514E-01 0.  0.
         14    1    1    2    0    0 -0.16670854939E-01 -0.19485714617E-01  0.11205290606E-01  0.27985157068E-01  0.00000000000E+00 0.  1.
     999901    1    3    3    0    0  0.73506302398E-01  0.47713155212E-01  0.96323060336E-01  0.88958296613E+00  0.88000000000E+00 0.  1.
        -11    1    4    4    0    0 -0.24897551671E-01 -0.22871756408E-01 -0.59432138151E-01  0.68377229299E-01  0.51100000000E-03 0. -1.
         11    1    4    4    0    0 -0.31937895788E-01 -0.53556841873E-02 -0.48096212791E-01  0.57984647505E-01  0.51100000000E-03 0.  1.
</event>
<event>
 7    1  0.1150307E+005  0.1043930E+01  0.7957747E-01            NaN
         13   -1    0    0    0    0  0.00000000000E+00  0.00000000000E+00  0.74505805969E-08  0.10566000000E+00  0.10566000000E+00 0.  1.
     999900   -1    0    0    0    0 -0.00000000000E+00 -0.00000000000E+00 -0.74505805969E-08  0.93827000000E+00  0.93827000000E+00 0.  1.
     999903    2    1    2    0    0 -0.85837258102E-01 -0.12642948599E-01 -0.71679580893E-01  0.11480349956E+00  0.22671615869E-01 0.  0.
         14    1    1    2    0    0  0.14599881428E-01  0.39889926596E-01 -0.35724581564E-02  0.42627751979E-01  0.00000000000E+00 0.  1.
     999901    1    1    2    0    0  0.71237376673E-01 -0.27246977997E-01  0.75252039049E-01  0.88649874846E+00  0.88000000000E+00 0.  1.
        -11    1    3    3    0    0 -0.37186048051E-01 -0.16804844363E-01 -0.34228691837E-01  0.53264147694E-01  0.51100000000E-03 0.  1.
         11    1    3    3    0    0 -0.48651210051E-01  0.41618957643E-02 -0.37450889056E-01  0.61539351864E-01  0.51100000000E-03 0. -1.
</event>
<event>
 8    1  0.1150307E+005  0.1043930E+01  0.7957747E-01            NaN
         13   -1    0    0    0    0  0.00000000000E+00  0.00000000000E+00  0.74505805969E-08  0.10566000000E+00  0.10566000000E+00 0. -1.
     999900   -1    0    0    0    0 -0.00000000000E+00 -0.00000000000E+00 -0.74505805969E-08  0.93827000000E+00  0.93827000000E+00 0.  1.
     999902    2    1    2    0    0  0.21276044996E-01  0.82516302922E-02  0.74318824990E-02  0.10199301589E+01  0.10196477513E+01 0.  0.
     999903    2    3    3    0    0 -0.86582555476E-01  0.27819770178E-01 -0.87956941614E-01  0.12801344896E+00  0.19507460366E-01 0.  0.
         14    1    1    2    0    0 -0.21276044996E-01 -0.82516302922E-02 -0.74318824990E-02  0.23999841054E-01  0.00000000000E+00 0.  1.
     999901    1    3    3    0    0  0.10785860047E+00 -0.19568139885E-01  0.95388824113E-01  0.89191670999E+00  0.88000000000E+00 0. -1.
        -11    1    4    4    0    0 -0.67952886398E-01  0.28993722744E-01 -0.75047173585E-01  0.10531177575E+00  0.51100000000E-03 0.  1.
         11    1    4    4    0    0 -0.18629669078E-01 -0.11739525666E-02 -0.12909768029E-01  0.22701673201E-01  0.51100000000E-03 0. -1.
</event>
<event>
 8    1  0.1150307E+005  0.1043930E+01  0.7957747E-01            NaN
         13   -1    0    0    0    0  0.00000000000E+00  0.00000000000E+00  0.74505805969E-08  0.10566000000E+00  0.10566000000E+00 0.  1.
     999900   -1    0    0    0    0 -0.00000000000E+00 -0.00000000000E+00 -0.74505805969E-08  0.93827000000E+00  0.93827000000E+00 0. -1.
     999902    2    1    2    0    0 -0.31230338251E-02 -0.52391857808E-02  0.23656535548E-01  0.10194998121E+01  0.10192070608E+01 0.  0.
     999903    2    3    3    0    0  0.42309242054E-01  0.11414775941E+00 -0.34925489246E-01  0.12834932647E+00  0.20832111379E-01 0.  0.
         14    1    1    2    0    0  0.31230338251E-02  0.52391857808E-02 -0.23656535548E-01  0.24430187926E-01  0.00000000000E+00 0. -1.
     999901    1    3    3    0    0 -0.45432275879E-01 -0.11938694519E+00  0.58582024795E-01  0.89115048561E+00  0.88000000000E+00 0.  1.
        -11    1    4    4    0    0  0.24614512585E-02  0.32207252842E-01 -0.70763514080E-02  0.33071161881E-01  0.51100000000E-03 0.  1.
         11    1    4    4    0    0  0.39847790795E-01  0.81940506563E-01 -0.27849137838E-01  0.95278164584E-01  0.51100000000E-03 0. -1.
</event>
<event>
 8    1  0.1150307E+005  0.1043930E+01  0.7957747E-01            NaN
         13   -1    0    0    0    0  0.00000000000E+00  0.00000000000E+00  0.74505805969E-08  0.10566000000E+00  0.10566000000E+00 0. -1.
     999900   -1    0    0    0    0 -0.00000000000E+00 -0.00000000000E+00 -0.74505805969E-08  0.93827000000E+00  0.93827000000E+00 0. -1.
     999902    2    1    2    0    0 -0.23249035124E-01  0.17777291893E-02 -0.30471123699E-02  0.10204148379E+01  0.10201438519E+01 0.  0.
     999903    2    3    3    0    0 -0.67680667004E-01 -0.85654424458E-01  0.71186333054E-01  0.13186030618E+00  0.20057248486E-01 0.  0.
         14    1    1    2    0    0  0.23249035124E-01 -0.17777291893E-02  0.30471123699E-02  0.23515162110E-01  0.00000000000E+00 0.  1.
     999901    1    3    3    0    0  0.44431631880E-01  0.87432153648E-01 -0.74233445424E-01  0.88855453171E+00  0.88000000000E+00 0. -1.
        -11    1    4    4    0    0 -0.30139249280E-01 -0.23255045255E-01  0.21818567777E-01  0.43880320165E-01  0.51100000000E-03 0. -1.
         11    1    4    4    0    0 -0.37541417724E-01 -0.62399379204E-01  0.49367765276E-01  0.87979986015E-01  0.51100000000E-03 0.  1.
</event>
<event>
 8    1  0.1150307E+005  0.1043930E+01  0.7957747E-01            NaN
         13   -1    0    0    0    0  0.00000000000E+00  0.00000000000E+00  0.74505805969E-08  0.10566000000E+00  0.10566000000E+00 0.  1.
     999900   -1    0    0    0    0 -0.00000000000E+00 -0.00000000000E+00 -0.74505805969E-08  0.93827000000E+00  0.93827000000E+00 0. -1.
     999902    2    1    2    0    0 -0.28220956868E-02  0.17949612059E-01  0.20715146346E-01  0.10163751441E+01  0.10160015568E+01 0.  0.
     999903    2    3    3    0    0 -0.12419820883E+00 -0.16910762236E-01  0.10153019499E-01  0.12729755181E+00  0.19758895141E-01 0.  0.
         14    1    1    2    0    0  0.28220956868E-02 -0.17949612059E-01 -0.20715146346E-01  0.27554855929E-01  0.00000000000E+00 0. -1.
     999901    1    3    3    0    0  0.12137611314E+00  0.34860374295E-01  0.10562126847E-01  0.88907759226E+00  0.88000000000E+00 0.  1.
        -11    1    4    4    0    0 -0.54353684220E-01 -0.27041934978E-02  0.13035771106E-01  0.55962738497E-01  0.51100000000E-03 0. -1.
         11    1    4    4    0    0 -0.69844524605E-01 -0.14206568738E-01 -0.28827516067E-02  0.71334813313E-01  0.51100000000E-03 0.  1.
</event>
<event>
 8    1  0.1150307E+005  0.1043930E+01  0.7957747E-01            NaN
         13   -1    0    0    0    0  0.00000000000E+00  0.00000000000E+00  0.74505805969E-08  0.10566000000E+00  0.10566000000E+00 0. -1.
     999900   -1    0    0    0    0 -0.00000000000E+00 -0.00000000000E+00 -0.74505805969E-08  0.93827000000E+00  0.93827000000E+00 0.  1.
     999902    2    1    2    0    0  0.18428824248E-01 -0.13015770240E-01  0.81239467171E-02  0.10199502096E+01  0.10196682792E+01 0.  0.
     999903    2    3    3    0    0 -0.94207688400E-01  0.75939235913E-01  0.35394659570E-01  0.12790555326E+00  0.21568322222E-01 0.  0.
         14    1    1    2    0    0 -0.18428824248E-01  0.13015770240E-01 -0.81239467171E-02  0.23979790415E-01  0.00000000000E+00 0. -1.
     999901    1    3    3    0    0  0.11263651265E+00 -0.88955006153E-01 -0.27270712853E-01  0.89204465633E+00  0.88000000000E+00 0. -1.
        -11    1    4    4    0    0 -0.62778681693E-01  0.45832067112E-01  0.32601518956E-01  0.84290339957E-01  0.51100000000E-03 0. -1.
         11    1    4    4    0    0 -0.31429006707E-01  0.30107168801E-01  0.27931406143E-02  0.43615213301E-01  0.51100000000E-03 0.  1.
</event>
<event>
 8    1  0.1150307E+005  0.1043930E+01  0.7957747E-01            NaN
         13   -1    0    0    0    0  0.00000000000E+00  0.00000000000E+00  0.74505805969E-08  0.10566000000E+00  0.10566000000E+00 0.  1.
     999900   -1    0    0    0    0 -0.00000000000E+00 -0.00000000000E+00 -0.74505805969E-08  0.93827000000E+00  0.93827000000E+00 0.  1.
     999902    2    1    2    0    0  0.11385462056E-01  0.14489006153E-01  0.14914883437E-01  0.10202231699E+01  0.10199476960E+01 0.  0.
     999903    2    3    3    0    0 -0.41350773091E-01 -0.21009386267E-01  0.12053907966E+00  0.13163005874E+00  0.25407122888E-01 0.  0.
         14    1    1    2    0    0 -0.11385462056E-01 -0.14489006153E-01 -0.14914883437E-01  0.23706830102E-01  0.00000000000E+00 0. -1.
     999901    1    3    3    0    0  0.52736235148E-01  0.35498392420E-01 -0.10562419622E+00  0.88859311115E+00  0.88000000000E+00 0.  1.
        -11    1    4    4    0    0 -0.22708136024E-01 -0.74520179613E-02  0.30867575976E-01  0.39041777380E-01  0.51100000000E-03 0.  1.
         11    1    4    4    0    0 -0.18642637068E-01 -0.13557368305E-01  0.89671503683E-01  0.92588281364E-01  0.51100000000E-03 0. -1.
</event>
<event>
 8    1  0.1150307E+005  0.1043930E+01  0.7957747E-01            NaN
         13   -1    0    0    0    0  0.00000000000E+00  0.00000000000E+00  0.74505805969E-08  0.10566000000E+00  0.10566000000E+00 0.  1.
     999900   -1    0    0    0    0 -0.00000000000E+00 -0.00000000000E+00 -0.74505805969E-08  0.93827000000E+00  0.93827000000E+00 0. -1.
     999902    2    1    2    0    0  0.87322879756E-02 -0.15927739953E-01  0.15491090094E-01  0.10200570105E+01  0.10197776155E+01 0.  0.
     999903    2    3    3    0    0 -0.36972202419E-01  0.13390381099E-02  0.12505926666E+00  0.13191725387E+00  0.19839478765E-01 0.  0.
         14    1    1    2    0    0 -0.87322879756E-02  0.15927739953E-01 -0.15491090094E-01  0.23872989456E-01  0.00000000000E+00 0. -1.
     999901    1    3    3    0    0  0.45704490394E-01 -0.17266778063E-01 -0.10956817656E+00  0.88813975667E+00  0.88000000000E+00 0. -1.
        -11    1    4    4    0    0 -0.34416207433E-01 -0.37893957247E-02  0.90810622752E-01  0.97188812009E-01  0.51100000000E-03 0. -1.
         11    1    4    4    0    0 -0.25559949863E-02  0.51284338346E-02  0.34248643904E-01  0.34728441863E-01  0.51100000000E-03 0.  1.
</event>
<event>
 8    1  0.1150307E+005  0.1043930E+01  0.7957747E-01            NaN
         13   -1    0    0    0    0  0.00000000000E+00  0.00000000000E+00  0.74505805969E-08  0.10566000000E+00  0.10566000000E+00 0.  1.
     999900   -1    0    0    0    0 -0.00000000000E+00 -0.00000000000E+00 -0.74505805969E-08  0.93827000000E+00  0.93827000000E+00 0.  1.
     999902    2    1    2    0    0  0.17124320241E-01  0.60356660289E-02 -0.14752105038E-01  0.10205356372E+01  0.10202674603E+01 0.  0.
     999903    2    3    3    0    0 -0.10940203330E+00  0.50755494750E-01  0.40092787778E-01  0.12867424466E+00  0.20117267926E-01 0.  0.
         14    1    1    2    0    0 -0.17124320241E-01 -0.60356660289E-02  0.14752105038E-01  0.23394362807E-01  0.00000000000E+00 0.  1.
     999901    1    3    3    0    0  0.12652635354E+00 -0.44719828721E-01 -0.54844892815E-01  0.89186139253E+00  0.88000000000E+00 0.  1.
        -11    1    4    4    0    0 -0.59812758322E-01  0.32376971268E-01  0.32013340080E-01  0.75172796879E-01  0.51100000000E-03 0. -1.
         11    1    4    4    0    0 -0.49589274981E-01  0.18378523483E-01  0.80794476981E-02  0.53501447781E-01  0.51100000000E-03 0.  1.
</event>
<event>
 8    1  0.1150307E+005  0.1043930E+01  0.7957747E-01            NaN
         13   -1    0    0    0    0  0.00000000000E+00  0.00000000000E+00  0.74505805969E-08  0.10566000000E+00  0.10566000000E+00 0. -1.
     999900   -1    0    0    0    0 -0.00000000000E+00 -0.00000000000E+00 -0.74505805969E-08  0.93827000000E+00  0.93827000000E+00 0. -1.
     999902    2    1    2    0    0 -0.13874179905E-01 -0.21220468704E-02 -0.17962338375E-01  0.10211343524E+01  0.10208798774E+01 0.  0.
     999903    2    3    3    0    0  0.62587986613E-01  0.12415495401E-01  0.10974046878E+00  0.12851695953E+00  0.20055867100E-01 0.  0.
         14    1    1    2    0    0  0.13874179905E-01  0.21220468704E-02  0.17962338375E-01  0.22795647630E-01  0.00000000000E+00 0. -1.
     999901    1    3    3    0    0 -0.76462166518E-01 -0.14537542272E-01 -0.12770280715E+00  0.89261739284E+00  0.88000000000E+00 0. -1.
        -11    1    4    4    0    0  0.38360853050E-02 -0.41788106924E-02  0.11858813530E-01  0.13155629541E-01  0.51100000000E-03 0.  1.
         11    1    4    4    0    0  0.58751901308E-01  0.16594306094E-01  0.97881655248E-01  0.11536132999E+00  0.51100000000E-03 0. -1.
</event>
<event>
 8    1  0.1150307E+005  0.1043930E+01  0.7957747E-01            NaN
         13   -1    0    0    0    0  0.00000000000E+00  0.00000000000E+00  0.74505805969E-08  0.10566000000E+00  0.10566000000E+00 0. -1.
     999900   -1    0    0    0    0 -0.00000000000E+00 -0.00000000000E+00 -0.74505805969E-08  0.93827000000E+00  0.93827000000E+00 0.  1.
     999902    2    1    2    0    0  0.23771968356E-01  0.26259009160E-02 -0.32340686360E-02  0.10197957705E+01  0.10195101532E+01 0.  0.
     999903    2    3    3    0    0 -0.10361972094E+00 -0.71562011825E-01  0.55436398617E-02  0.12749002855E+00  0.19099930129E-01 0.  0.
         14    1    1    2    0    0 -0.23771968356E-01 -0.26259009160E-02  0.32340686360E-02  0.24134229532E-01  0.00000000000E+00 0.  1.
     999901    1    3    3    0    0  0.12739168930E+00  0.74187912741E-01 -0.87777084977E-02  0.89230574192E+00  0.88000000000E+00 0. -1.
        -11    1    4    4    0    0 -0.73749399151E-01 -0.49352511984E-01 -0.47486317744E-02  0.88867625933E-01  0.51100000000E-03 0. -1.
         11    1    4    4    0    0 -0.29870321793E-01 -0.22209499841E-01  0.10292271636E-01  0.38622402614E-01  0.51100000000E-03 0.  1.
</event>
<event>
 8    1  0.1150307E+005  0.1043930E+01  0.7957747E-01            NaN
         13   -1    0    0    0    0  0.00000000000E+00  0.00000000000E+00  0.74505805969E-08  0.10566000000E+00  0.10566000000E+00 0. -1.
     999900   -1    0    0    0    0 -0.00000000000E+00 -0.00000000000E+00 -0.74505805969E-08  0.93827000000E+00  0.93827000000E+00 0. -1.
     999902    2    1    2    0    0 -0.10700888186E-01  0.97402144533E-02 -0.17964313900E-01  0.10208627644E+01  0.10206021195E+01 0.  0.
     999903    2    3    3    0    0 -0.10474578867E+00 -0.76165961214E-01  0.59036032239E-02  0.13137190338E+00  0.21231829292E-01 0.  0.
         14    1    1    2    0    0  0.10700888186E-01 -0.97402144533E-02  0.17964313900E-01  0.23067235626E-01  0.00000000000E+00 0. -1.
     999901    1    3    3    0    0  0.94044900482E-01  0.85906175667E-01 -0.23867917123E-01  0.88949086099E+00  0.88000000000E+00 0. -1.
        -11    1    4    4    0    0 -0.60435285541E-01 -0.56370747363E-01  0.56277054625E-02  0.82837292848E-01  0.51100000000E-03 0.  1.
         11    1    4    4    0    0 -0.44310503128E-01 -0.19795213851E-01  0.27589776136E-03  0.48534610531E-01  0.51100000000E-03 0. -1.
</event>
<event>
 8    1  0.1150307E+005  0.1043930E+01  0.7957747E-01            NaN
         13   -1    0    0    0    0  0.00000000000E+00  0.00000000000E+00  0.74505805969E-08  0.10566000000E+00  0.10566000000E+00 0. -1.
     999900   -1    0    0    0    0 -0.00000000000E+00 -0.00000000000E+00 -0.74505805969E-08  0.93827000000E+00  0.93827000000E+00 0.  1.
     999902    2    1    2    0    0  0.32063821896E-02  0.21034449098E-01  0.89085464920E-02  0.10208628993E+01  0.10206022575E+01 0.  0.
     999903    2    3    3    0    0 -0.27068237087E-01 -0.45700479243E-01 -0.11586667033E+00  0.12904511633E+00  0.20157715438E-01 0.  0.
         14    1    1    2    0    0 -0.32063821896E-02 -0.21034449098E-01 -0.89085464920E-02  0.23067100733E-01  0.00000000000E+00 0.  1.
     999901    1    3    3    0    0  0.30274619276E-01  0.66734928341E-01  0.12477521683E+00  0.89181778294E+00  0.88000000000E+00 0. -1.
        -11    1    4    4    0    0 -0.19776457284E-01 -0.25237202816E-01 -0.88309399499E-01  0.93951241767E-01  0.51100000000E-03 0. -1.
         11    1    4    4    0    0 -0.72917798025E-02 -0.20463276426E-01 -0.27557270836E-01  0.35093874561E-01  0.51100000000E-03 0.  1.
</event>
<event>
 8    1  0.1150307E+005  0.1043930E+01  0.7957747E-01            NaN
         13   -1    0    0    0    0  0.00000000000E+00  0.00000000000E+00  0.74505805969E-08  0.10566000000E+00  0.10566000000E+00 0.  1.
     999900   -1    0    0    0    0 -0.00000000000E+00 -0.00000000000E+00 -0.74505805969E-08  0.93827000000E+00  0.93827000000E+00 0.  1.
     999902    2    1    2    0    0 -0.12895589337E-01  0.19127636097E-01 -0.76547468579E-03  0.10208486517E+01  0.10205876842E+01 0.  0.
     999903    2    3    3    0    0  0.71380463763E-01 -0.92969635868E-01 -0.48460798978E-01  0.12846807401E+00  0.20422370147E-01 0.  0.
         14    1    1    2    0    0  0.12895589337E-01 -0.19127636097E-01  0.76547468579E-03  0.23081348282E-01  0.00000000000E+00 0. -1.
     999901    1    3    3    0    0 -0.84276053099E-01  0.11209727196E+00  0.47695324293E-01  0.89238057771E+00  0.88000000000E+00 0. -1.
        -11    1    4    4    0    0  0.58916633943E-01 -0.86752583084E-01 -0.44941846389E-01  0.11409299323E+00  0.51100000000E-03 0. -1.
         11    1    4    4    0    0  0.12463829820E-01 -0.62170527832E-02 -0.35189525893E-02  0.14375080779E-01  0.51100000000E-03 0.  1.
</event>
<event>
 8    1  0.1150307E+005  0.1043930E+01  0.7957747E-01            NaN
         13   -1    0    0    0    0  0.00000000000E+00  0.00000000000E+00  0.74505805969E-08  0.10566000000E+00  0.10566000000E+00 0.  1.
     999900   -1    0    0    0    0 -0.00000000000E+00 -0.00000000000E+00 -0.74505805969E-08  0.93827000000E+00  0.93827000000E+00 0. -1.
     999902    2    1    2    0    0 -0.72313356870E-02 -0.20457641014E-01  0.89809978702E-02  0.10204466950E+01  0.10201764513E+01 0.  0.
     999903    2    3    3    0    0 -0.23484859138E-01 -0.12987548932E+00 -0.44813022859E-02  0.13341925681E+00  0.19011435568E-01 0.  0.
         14    1    1    2    0    0  0.72313356870E-02  0.20457641014E-01 -0.89809978702E-02  0.23483305015E-01  0.00000000000E+00 0. -1.
     999901    1    3    3    0    0  0.16253523451E-01  0.10941784831E+00  0.13462300156E-01  0.88702743818E+00  0.88000000000E+00 0. -1.
        -11    1    4    4    0    0 -0.25599633270E-01 -0.98291531071E-01 -0.10723164936E-02  0.10157744478E+00  0.51100000000E-03 0.  1.
         11    1    4    4    0    0  0.21147741320E-02 -0.31583958249E-01 -0.34089857922E-02  0.31841812031E-01  0.51100000000E-03 0. -1.
</event>
<event>
 8    1  0.1150307E+005  0.1043930E+01  0.7957747E-01            NaN
         13   -1    0    0    0    0  0.00000000000E+00  0.00000000000E+00  0.74505805969E-08  0.10566000000E+00  0.10566000000E+00 0. -1.
     999900   -1    0    0    0    0 -0.00000000000E+00 -0.00000000000E+00 -0.74505805969E-08  0.93827000000E+00  0.93827000000E+00 0. -1.
     999902    2    1    2    0    0 -0.22324231856E-01 -0.10140558682E-01  0.89768281499E-03  0.10193941468E+01  0.10190988266E+01 0.  0.
     999903    2    3    3    0    0  0.34354338613E-02 -0.12371036607E+00  0.37951236471E-01  0.13094908525E+00  0.19781549484E-01 0.  0.
         14    1    1    2    0    0  0.22324231856E-01  0.10140558682E-01 -0.89768281499E-03  0.24535853211E-01  0.00000000000E+00 0.  1.
     999901    1    3    3    0    0 -0.25759665717E-01  0.11356980739E+00 -0.37053553656E-01  0.88844506154E+00  0.88000000000E+00 0. -1.
        -11    1    4    4    0    0  0.11219254210E-03 -0.92735435772E-01  0.19586940283E-01  0.94782820097E-01  0.51100000000E-03 0.  1.
         11    1    4    4    0    0  0.33232413192E-02 -0.30974930299E-01  0.18364296188E-01  0.36166265156E-01  0.51100000000E-03 0. -1.
</event>
<event>
 8    1  0.1150307E+005  0.1043930E+01  0.7957747E-01            NaN
         13   -1    0    0    0    0  0.00000000000E+00  0.00000000000E+00  0.74505805969E-08  0.10566000000E+00  0.10566000000E+00 0. -1.
     999900   -1    0    0    0    0 -0.00000000000E+00 -0.00000000000E+00 -0.74505805969E-08  0.93827000000E+00  0.93827000000E+00 0.  1.
     999902    2    1    2    0    0  0.65035364683E-02 -0.52377057411E-02  0.23162890068E-01  0.10193078753E+01  0.10190104492E+01 0.  0.
     999903    2    3    3    0    0 -0.84055316304E-01  0.86789712606E-01  0.42117654718E-01  0.12968478959E+00  0.21130485050E-01 0.  0.
         14    1    1    2    0    0 -0.65035364683E-02  0.52377057411E-02 -0.23162890068E-01  0.24622124691E-01  0.00000000000E+00 0.  1.
     999901    1    3    3    0    0  0.90558852773E-01 -0.92027418347E-01 -0.18954764651E-01  0.88962308572E+00  0.88000000000E+00 0.  1.
        -11    1    4    4    0    0 -0.28322315842E-01  0.41824646856E-01  0.11529222385E-01  0.51813499680E-01  0.51100000000E-03 0.  1.
         11    1    4    4    0    0 -0.55733000463E-01  0.44965065750E-01  0.30588432333E-01  0.77871289909E-01  0.51100000000E-03 0. -1.
</event>
<event>
 8    1  0.1150307E+005  0.1043930E+01  0.7957747E-01            NaN
         13   -1    0    0    0    0  0.00000000000E+00  0.00000000000E+00  0.74505805969E-08  0.10566000000E+00  0.10566000000E+00 0. -1.
     999900   -1    0    0    0    0 -0.00000000000E+00 -0.00000000000E+00 -0.74505805969E-08  0.93827000000E+00  0.93827000000E+00 0. -1.
     999902    2    1    2    0    0 -0.21670300886E-02 -0.22959376655E-01  0.10429418178E-02  0.10208450109E+01  0.10205839600E+01 0.  0.
     999903    2    3    3    0    0  0.11114117557E+00 -0.27799163732E-01  0.61346894777E-01  0.13152013223E+00  0.20222494255E-01 0.  0.
         14    1    1    2    0    0  0.21670300886E-02  0.22959376655E-01 -0.10429418178E-02  0.23084989136E-01  0.00000000000E+00 0. -1.
     999901    1    3    3    0    0 -0.11330820565E+00  0.48397870771E-02 -0.60303952959E-01  0.88932487863E+00  0.88000000000E+00 0. -1.
        -11    1    4    4    0    0  0.15169549457E-01 -0.10618031856E-01  0.63618573160E-02  0.19585509458E-01  0.51100000000E-03 0. -1.
         11    1    4    4    0    0  0.95971626109E-01 -0.17181131876E-01  0.54985037461E-01  0.11193462278E+00  0.51100000000E-03 0.  1.
</event>
<event>
 8    1  0.1150307E+005  0.1043930E+01  0.7957747E-01            NaN
         13   -1    0    0    0    0  0.00000000000E+00  0.00000000000E+00  0.74505805969E-08  0.10566000000E+00  0.10566000000E+00 0. -1.
     999900   -1    0    0    0    0 -0.00000000000E+00 -0.00000000000E+00 -0.74505805969E-08  0.93827000000E+00  0.93827000000E+00 0. -1.
     999902    2    1    2    0    0 -0.13613632914E-01  0.97849106716E-02  0.12932632587E-01  0.10227562317E+01  0.10225370316E+01 0.  0.
     999903    2    3    3    0    0  0.94599095288E-01  0.57570485845E-02  0.90954014575E-01  0.13269243947E+00  0.18775470330E-01 0.  0.
         14    1    1    2    0    0  0.13613632914E-01 -0.97849106716E-02 -0.12932632587E-01  0.21173768290E-01  0.00000000000E+00 0.  1.
     999901    1    3    3    0    0 -0.10821272820E+00  0.40278620871E-02 -0.78021381988E-01  0.89006379224E+00  0.88000000000E+00 0.  1.
        -11    1    4    4    0    0  0.59831635404E-01  0.76370358814E-02  0.68433864795E-01  0.91222825455E-01  0.51100000000E-03 0. -1.
         11    1    4    4    0    0  0.34767459884E-01 -0.18799872969E-02  0.22520149780E-01  0.41469614010E-01  0.51100000000E-03 0.  1.
</event>
<event>
 8    1  0.1150307E+005  0.1043930E+01  0.7957747E-01            NaN
         13   -1    0    0    0    0  0.00000000000E+00  0.00000000000E+00  0.74505805969E-08  0.10566000000E+00  0.10566000000E+00 0.  1.
     999900   -1    0    0    0    0 -0.00000000000E+00 -0.00000000000E+00 -0.74505805969E-08  0.93827000000E+00  0.93827000000E+00 0.  1.
     999902    2    1    2    0    0 -0.21030583365E-01  0.10676787547E-01  0.30575104088E-02  0.10201470734E+01  0.10198698072E+01 0.  0.
     999903    2    3    3    0    0 -0.46177628805E-01  0.11790247750E+00  0.34547468193E-01  0.13272308231E+00  0.19710946594E-01 0.  0.
         14    1    1    2    0    0  0.21030583365E-01 -0.10676787547E-01 -0.30575104088E-02  0.23782926626E-01  0.00000000000E+00 0. -1.
     999901    1    3    3    0    0  0.25147045440E-01 -0.10722568995E+00 -0.31489957784E-01  0.88742399107E+00  0.88000000000E+00 0.  1.
        -11    1    4    4    0    0 -0.46042796893E-01  0.99103440367E-01  0.27984588180E-01  0.11280438526E+00  0.51100000000E-03 0. -1.
         11    1    4    4    0    0 -0.13483191198E-03  0.18799037133E-01  0.65628800133E-02  0.19918697042E-01  0.51100000000E-03 0.  1.
</event>
<event>
 8    1  0.1150307E+005  0.1043930E+01  0.7957747E-01            NaN
         13   -1    0    0    0    0  0.00000000000E+00  0.00000000000E+00  0.74505805969E-08  0.10566000000E+00  0.10566000000E+00 0.  1.
     999900   -1    0    0    0    0 -0.00000000000E+00 -0.00000000000E+00 -0.74505805969E-08  0.93827000000E+00  0.93827000000E+00 0. -1.
     999902    2    1    2    0    0 -0.10988420992E-01  0.77861988892E-02  0.18539407946E-01  0.10210153772E+01  0.10207582087E+01 0.  0.
     999903    2    3    3    0    0 -0.28163355006E-01 -0.11590872700E+00  0.51210842930E-01  0.13159824467E+00  0.21622673445E-01 0.  0.
         14    1    1    2    0    0  0.10988420992E-01 -0.77861988892E-02 -0.18539407946E-01  0.22914622756E-01  0.00000000000E+00 0. -1.
     999901    1    3    3    0    0  0.17174934013E-01  0.12369492589E+00 -0.32671434984E-01  0.88941713257E+00  0.88000000000E+00 0.  1.
        -11    1    4    4    0    0 -0.61644766357E-02 -0.65769252410E-01  0.22600953575E-01  0.69818762222E-01  0.51100000000E-03 0. -1.
         11    1    4    4    0    0 -0.21998878370E-01 -0.50139474591E-01  0.28609889356E-01  0.61779482450E-01  0.51100000000E-03 0.  1.
</event>
<event>
 8    1  0.1150307E+005  0.1043930E+01  0.7957747E-01            NaN
         13   -1    0    0    0    0  0.00000000000E+00  0.00000000000E+00  0.74505805969E-08  0.10566000000E+00  0.10566000000E+00 0.  1.
     999900   -1    0    0    0    0 -0.00000000000E+00 -0.00000000000E+00 -0.74505805969E-08  0.93827000000E+00  0.93827000000E+00 0. -1.
     999902    2    1    2    0    0 -0.13421869885E-01  0.14680096759E-01 -0.12867119154E-01  0.10202400319E+01  0.10199649544E+01 0.  0.
     999903    2    3    3    0    0 -0.18897503255E-01  0.12871126539E+00 -0.18242949053E-01  0.13284948119E+00  0.19810956439E-01 0.  0.
         14    1    1    2    0    0  0.13421869885E-01 -0.14680096759E-01  0.12867119154E-01  0.23689968075E-01  0.00000000000E+00 0. -1.
     999901    1    3    3    0    0  0.54756333692E-02 -0.11403116863E+00  0.53758298988E-02  0.88739055073E+00  0.88000000000E+00 0.  1.
        -11    1    4    4    0    0  0.15916881887E-02  0.47472224954E-01 -0.22692745286E-02  0.47555823421E-01  0.51100000000E-03 0. -1.
         11    1    4    4    0    0 -0.20489191443E-01  0.81239040439E-01 -0.15973674524E-01  0.85293657772E-01  0.51100000000E-03 0.  1.
</event>
<event>
 8    1  0.1150307E+005  0.1043930E+01  0.7957747E-01            NaN
         13   -1    0    0    0    0  0.00000000000E+00  0.00000000000E+00  0.74505805969E-08  0.10566000000E+00  0.10566000000E+00 0.  1.
     999900   -1    0    0    0    0 -0.00000000000E+00 -0.00000000000E+00 -0.74505805969E-08  0.93827000000E+00  0.93827000000E+00 0.  1.
     999902    2    1    2    0    0  0.77165191761E-02  0.23380760305E-01 -0.20625033094E-01  0.10118115223E+01  0.10113016167E+01 0.  0.
     999903    2    3    3    0    0  0.10843556839E+00 -0.22602666277E-01 -0.52823491902E-01  0.12428938558E+00  0.19707284305E-01 0.  0.
         14    1    1    2    0    0 -0.77165191761E-02 -0.23380760305E-01  0.20625033094E-01  0.32118477716E-01  0.00000000000E+00 0.  1.
     999901    1    3    3    0    0 -0.10071904922E+00  0.45983426582E-01  0.32198458808E-01  0.88752213671E+00  0.88000000000E+00 0.  1.
        -11    1    4    4    0    0  0.57530210973E-01 -0.18536764764E-01 -0.36793391251E-01  0.70762642568E-01  0.51100000000E-03 0.  1.
         11    1    4    4    0    0  0.50905357421E-01 -0.40659015133E-02 -0.16030100651E-01  0.53526743009E-01  0.51100000000E-03 0. -1.
</event>
<event>
 8    1  0.1150307E+005  0.1043930E+01  0.7957747E-01            NaN
         13   -1    0    0    0    0  0.00000000000E+00  0.00000000000E+00  0.74505805969E-08  0.10566000000E+00  0.10566000000E+00 0.  1.
     999900   -1    0    0    0    0 -0.00000000000E+00 -0.00000000000E+00 -0.74505805969E-08  0.93827000000E+00  0.93827000000E+00 0.  1.
     999902    2    1    2    0    0 -0.12954014689E-01 -0.17704277567E-01  0.76500472521E-02  0.10206970242E+01  0.10204325769E+01 0.  0.
     999903    2    3    3    0    0 -0.17657038515E-01  0.11952708845E+00  0.42401658620E-01  0.12937091064E+00  0.18450907375E-01 0.  0.
         14    1    1    2    0    0  0.12954014689E-01  0.17704277567E-01 -0.76500472521E-02  0.23232975782E-01  0.00000000000E+00 0.  1.
     999901    1    3    3    0    0  0.47030238262E-02 -0.13723136602E+00 -0.34751611368E-01  0.89132611358E+00  0.88000000000E+00 0. -1.
        -11    1    4    4    0    0 -0.10553593681E-01  0.59755829173E-01  0.11703922849E-01  0.61801135837E-01  0.51100000000E-03 0. -1.
         11    1    4    4    0    0 -0.71034448342E-02  0.59771259280E-01  0.30697735771E-01  0.67569774803E-01  0.51100000000E-03 0.  1.
</event>
<event>
 8    1  0.1150307E+005  0.1043930E+01  0.7957747E-01            NaN
         13   -1    0    0    0    0  0.00000000000E+00  0.00000000000E+00  0.74505805969E-08  0.10566000000E+00  0.10566000000E+00 0. -1.
     999900   -1    0    0    0    0 -0.00000000000E+00 -0.00000000000E+00 -0.74505805969E-08  0.93827000000E+00  0.93827000000E+00 0.  1.
     999902    2    1    2    0    0 -0.83887983189E-02 -0.18004251368E-01 -0.89105245385E-02  0.10221602400E+01  0.10219283897E+01 0.  0.
     999903    2    3    3    0    0 -0.57676869631E-01 -0.26758225888E-01  0.11408171562E+00  0.13219786032E+00  0.20469794580E-01 0.  0.
         14    1    1    2    0    0  0.83887983189E-02  0.18004251368E-01  0.89105245385E-02  0.21769760038E-01  0.00000000000E+00 0. -1.
     999901    1    3    3    0    0  0.49288071312E-01  0.87539745197E-02 -0.12299224016E+00  0.88996237964E+00  0.88000000000E+00 0.  1.
        -11    1    4    4    0    0 -0.56296440505E-01 -0.21178359161E-01  0.96681253098E-01  0.11386543783E+00  0.51100000000E-03 0. -1.
         11    1    4    4    0    0 -0.13804291260E-02 -0.55798667274E-02  0.17400462523E-01  0.18332422488E-01  0.51100000000E-03 0.  1.
</event>
<event>
 8    1  0.1150307E+005  0.1043930E+01  0.7957747E-01            NaN
         13   -1    0    0    0    0  0.00000000000E+00  0.00000000000E+00  0.74505805969E-08  0.10566000000E+00  0.10566000000E+00 0. -1.
     999900   -1    0    0    0    0 -0.00000000000E+00 -0.00000000000E+00 -0.74505805969E-08  0.93827000000E+00  0.93827000000E+00 0.  1.
     999902    2    1    2    0    0  0.47518943246E-02 -0.13160242172E-01  0.18929482759E-01  0.10203907181E+01  0.10201191694E+01 0.  0.
     999903    2    3    3    0    0  0.69345886876E-01  0.85078952723E-01  0.68759545271E-01  0.13117400752E+00  0.20771734643E-01 0.  0.
         14    1    1    2    0    0 -0.47518943246E-02  0.13160242172E-01 -0.18929482759E-01  0.23539281875E-01  0.00000000000E+00 0.  1.
     999901    1    3    3    0    0 -0.64593992552E-01 -0.98239194895E-01 -0.49830062513E-01  0.88921671060E+00  0.88000000000E+00 0.  1.
        -11    1    4    4    0    0  0.33783982990E-01  0.51041867336E-01  0.28228543138E-01  0.67407280738E-01  0.51100000000E-03 0. -1.
         11    1    4    4    0    0  0.35561903887E-01  0.34037085386E-01  0.40531002133E-01  0.63766726783E-01  0.51100000000E-03 0.  1.
</event>
<event>
 8    1  0.1150307E+005  0.1043930E+01  0.7957747E-01            NaN
         13   -1    0    0    0    0  0.00000000000E+00  0.00000000000E+00  0.74505805969E-08  0.10566000000E+00  0.10566000000E+00 0. -1.
     999900   -1    0    0    0    0 -0.00000000000E+00 -0.00000000000E+00 -0.74505805969E-08  0.93827000000E+00  0.93827000000E+00 0. -1.
     999902    2    1    2    0    0  0.19187011234E-01 -0.12381529996E-01 -0.43097424892E-02  0.10206917220E+01  0.10204271526E+01 0.  0.
     999903    2    3    3    0    0  0.88630488858E-01 -0.71710970622E-01  0.65860610308E-01  0.13318608395E+00  0.20077004415E-01 0.  0.
         14    1    1    2    0    0 -0.19187011234E-01  0.12381529996E-01  0.43097424892E-02  0.23238278023E-01  0.00000000000E+00 0. -1.
     999901    1    3    3    0    0 -0.69443477623E-01  0.59329440626E-01 -0.70170352798E-01  0.88750563802E+00  0.88000000000E+00 0. -1.
        -11    1    4    4    0    0  0.23782045120E-01 -0.27004106824E-01  0.29014765452E-01  0.46226888178E-01  0.51100000000E-03 0. -1.
         11    1    4    4    0    0  0.64848443737E-01 -0.44706863799E-01  0.36845844857E-01  0.86959195776E-01  0.51100000000E-03 0.  1.
</event>
<event>
 8    1  0.1150307E+005  0.1043930E+01  0.7957747E-01            NaN
         13   -1    0    0    0    0  0.00000000000E+00  0.00000000000E+00  0.74505805969E-08  0.10566000000E+00  0.10566000000E+00 0. -1.
     999900   -1    0    0    0    0 -0.00000000000E+00 -0.00000000000E+00 -0.74505805969E-08  0.93827000000E+00  0.93827000000E+00 0.  1.
     999902    2    1    2    0    0  0.17698664278E-01  0.19328090869E-02 -0.14615713287E-01  0.10208952970E+01  0.10206353952E+01 0.  0.
     999903    2    3    3    0    0 -0.65006364481E-01  0.38918122574E-01  0.10188198664E+00  0.12860624668E+00  0.20473880868E-01 0.  0.
         14    1    1    2    0    0 -0.17698664278E-01 -0.19328090869E-02  0.14615713287E-01  0.23034703017E-01  0.00000000000E+00 0. -1.
     999901    1    3    3    0    0  0.82705028760E-01 -0.36985313487E-01 -0.11649769992E+00  0.89228905030E+00  0.88000000000E+00 0.  1.
        -11    1    4    4    0    0 -0.34155968289E-01  0.14938704150E-01  0.64658585092E-01  0.74637716997E-01  0.51100000000E-03 0.  1.
         11    1    4    4    0    0 -0.30850396193E-01  0.23979418423E-01  0.37223401543E-01  0.53968529687E-01  0.51100000000E-03 0. -1.
</event>
<event>
 8    1  0.1150307E+005  0.1043930E+01  0.7957747E-01            NaN
         13   -1    0    0    0    0  0.00000000000E+00  0.00000000000E+00  0.74505805969E-08  0.10566000000E+00  0.10566000000E+00 0.  1.
     999900   -1    0    0    0    0 -0.00000000000E+00 -0.00000000000E+00 -0.74505805969E-08  0.93827000000E+00  0.93827000000E+00 0. -1.
     999902    2    1    2    0    0  0.13605180514E-01  0.19363949295E-01  0.57705233647E-02  0.10195709686E+01  0.10192799408E+01 0.  0.
     999903    2    3    3    0    0 -0.11082156528E+00  0.49390403744E-01  0.40900001749E-01  0.12961721518E+00  0.20173770481E-01 0.  0.
         14    1    1    2    0    0 -0.13605180514E-01 -0.19363949295E-01 -0.57705233647E-02  0.24359031365E-01  0.00000000000E+00 0. -1.
     999901    1    3    3    0    0  0.12442674579E+00 -0.30026454449E-01 -0.35129478385E-01  0.88995375345E+00  0.88000000000E+00 0.  1.
        -11    1    4    4    0    0 -0.82776831238E-01  0.41758033926E-01  0.23163897513E-01  0.95564451844E-01  0.51100000000E-03 0.  1.
         11    1    4    4    0    0 -0.28044734041E-01  0.76323698178E-02  0.17736104236E-01  0.34052763338E-01  0.51100000000E-03 0. -1.
</event>
<event>
 8    1  0.1150307E+005  0.1043930E+01  0.7957747E-01            NaN
         13   -1    0    0    0    0  0.00000000000E+00  0.00000000000E+00  0.74505805969E-08  0.10566000000E+00  0.10566000000E+00 0.  1.
     999900   -1    0    0    0    0 -0.00000000000E+00 -0.00000000000E+00 -0.74505805969E-08  0.93827000000E+00  0.93827000000E+00 0. -1.
     999902    2    1    2    0    0  0.14691683607E-01 -0.91262710911E-02  0.15769866940E-01  0.10205243790E+01  0.10202559409E+01 0.  0.
     999903    2    3    3    0    0  0.49785827791E-01  0.79367948485E-01 -0.87077550131E-01  0.12943492386E+00  0.19824224647E-01 0.  0.
         14    1    1    2    0    0 -0.14691683607E-01  0.91262710911E-02 -0.15769866940E-01  0.23405621003E-01  0.00000000000E+00 0. -1.
     999901    1    3    3    0    0 -0.35094144184E-01 -0.88494219576E-01  0.10284741707E+00  0.89108945513E+00  0.88000000000E+00 0.  1.
        -11    1    4    4    0    0  0.24317698891E-01  0.54281302826E-01 -0.60859863154E-01  0.85099908226E-01  0.51100000000E-03 0.  1.
         11    1    4    4    0    0  0.25468128900E-01  0.25086645659E-01 -0.26217686977E-01  0.44335015637E-01  0.51100000000E-03 0. -1.
</event>
<event>
 8    1  0.1150307E+005  0.1043930E+01  0.7957747E-01            NaN
         13   -1    0    0    0    0  0.00000000000E+00  0.00000000000E+00  0.74505805969E-08  0.10566000000E+00  0.10566000000E+00 0.  1.
     999900   -1    0    0    0    0 -0.00000000000E+00 -0.00000000000E+00 -0.74505805969E-08  0.93827000000E+00  0.93827000000E+00 0.  1.
     999902    2    1    2    0    0 -0.10976040110E-01 -0.20724152415E-01  0.42304401560E-02  0.10201001747E+01  0.10198218010E+01 0.  0.
     999903    2    3    3    0    0 -0.21047024795E-01 -0.11091424037E+00 -0.66351717910E-01  0.13262199596E+00  0.21002318316E-01 0.  0.
         14    1    1    2    0    0  0.10976040110E-01  0.20724152415E-01 -0.42304401560E-02  0.23829825298E-01  0.00000000000E+00 0.  1.
     999901    1    3    3    0    0  0.10070984685E-01  0.90190087954E-01  0.70582158066E-01  0.88747817874E+00  0.88000000000E+00 0.  1.
        -11    1    4    4    0    0 -0.11801323309E-01 -0.97214750950E-01 -0.60344877247E-01  0.11502931959E+00  0.51100000000E-03 0. -1.
         11    1    4    4    0    0 -0.92457014861E-02 -0.13699489419E-01 -0.60068406631E-02  0.17592676376E-01  0.51100000000E-03 0.  1.
</event>
<event>
 8    1  0.1150307E+005  0.1043930E+01  0.7957747E-01            NaN
         13   -1    0    0    0    0  0.00000000000E+00  0.00000000000E+00  0.74505805969E-08  0.10566000000E+00  0.10566000000E+00 0.  1.
     999900   -1    0    0    0    0 -0.00000000000E+00 -0.00000000000E+00 -0.74505805969E-08  0.93827000000E+00  0.93827000000E+00 0. -1.
     999902    2    1    2    0    0 -0.16420707050E-01  0.16484488014E-01 -0.48138522327E-02  0.10201697151E+01  0.10198929829E+01 0.  0.
     999903    2    3    3    0    0  0.23597552516E-02  0.54227325312E-01 -0.11855913336E+00  0.13184814241E+00  0.19531853418E-01 0.  0.
         14    1    1    2    0    0  0.16420707050E-01 -0.16484488014E-01  0.48138522327E-02  0.23760284898E-01  0.00000000000E+00 0. -1.
     999901    1    3    3    0    0 -0.18780462302E-01 -0.37742837298E-01  0.11374528113E+00  0.88832157269E+00  0.88000000000E+00 0.  1.
        -11    1    4    4    0    0 -0.66089723234E-02  0.39134629485E-01 -0.89269400134E-01  0.97695878426E-01  0.51100000000E-03 0. -1.
         11    1    4    4    0    0  0.89687275750E-02  0.15092695827E-01 -0.29289733228E-01  0.34152263984E-01  0.51100000000E-03 0.  1.
</event>
<event>
 8    1  0.1150307E+005  0.1043930E+01  0.7957747E-01            NaN
         13   -1    0    0    0    0  0.00000000000E+00  0.00000000000E+00  0.74505805969E-08  0.10566000000E+00  0.10566000000E+00 0.  1.
     999900   -1    0    0    0    0 -0.00000000000E+00 -0.00000000000E+00 -0.74505805969E-08  0.93827000000E+00  0.93827000000E+00 0. -1.
     999902    2    1    2    0    0  0.62719491245E-03  0.21184629994E-01 -0.10569411567E-01  0.10202467911E+01  0.10199718724E+01 0.  0.
     999903    2    3    3    0    0  0.27362003573E-01 -0.48630549662E-01 -0.11554393562E+00  0.13086017104E+00  0.25697737351E-01 0.  0.
         14    1    1    2    0    0 -0.62719491245E-03 -0.21184629994E-01  0.10569411567E-01  0.23683208868E-01  0.00000000000E+00 0. -1.
     999901    1    3    3    0    0 -0.26734808660E-01  0.69815179656E-01  0.10497452405E+00  0.88938662010E+00  0.88000000000E+00 0.  1.
        -11    1    4    4    0    0  0.20641990357E-01 -0.35589111918E-01 -0.10503510352E+00  0.11280651908E+00  0.51100000000E-03 0.  1.
         11    1    4    4    0    0  0.67200132152E-02 -0.13041437744E-01 -0.10508832099E-01  0.18053651961E-01  0.51100000000E-03 0. -1.
</event>
<event>
 8    1  0.1150307E+005  0.1043930E+01  0.7957747E-01            NaN
         13   -1    0    0    0    0  0.00000000000E+00  0.00000000000E+00  0.74505805969E-08  0.10566000000E+00  0.10566000000E+00 0. -1.
     999900   -1    0    0    0    0 -0.00000000000E+00 -0.00000000000E+00 -0.74505805969E-08  0.93827000000E+00  0.93827000000E+00 0. -1.
     999902    2    1    2    0    0  0.12642766673E-01 -0.13289194069E-01  0.16446706064E-01  0.10192939214E+01  0.10189961540E+01 0.  0.
     999903    2    3    3    0    0 -0.11377700325E+00  0.28512014872E-01  0.48982220217E-01  0.12868297437E+00  0.20047656597E-01 0.  0.
         14    1    1    2    0    0 -0.12642766673E-01  0.13289194069E-01 -0.16446706064E-01  0.24636078594E-01  0.00000000000E+00 0.  1.
     999901    1    3    3    0    0  0.12641976992E+00 -0.41801208942E-01 -0.32535514154E-01  0.89061094703E+00  0.88000000000E+00 0.  1.
        -11    1    4    4    0    0 -0.80623828751E-01  0.26943058980E-01  0.41762414782E-01  0.94712673909E-01  0.51100000000E-03 0.  1.
         11    1    4    4    0    0 -0.33153174499E-01  0.15689558928E-02  0.72198054352E-02  0.33970300462E-01  0.51100000000E-03 0. -1.
</event>
<event>
 8    1  0.1150307E+005  0.1043930E+01  0.7957747E-01            NaN
         13   -1    0    0    0    0  0.00000000000E+00  0.00000000000E+00  0.74505805969E-08  0.10566000000E+00  0.10566000000E+00 0. -1.
     999900   -1    0    0    0    0 -0.00000000000E+00 -0.00000000000E+00 -0.74505805969E-08  0.93827000000E+00  0.93827000000E+00 0.  1.
     999902    2    1    2    0    0 -0.19976212881E-01 -0.13258743583E-01 -0.10053681074E-02  0.10199330392E+01  0.10196507002E+01 0.  0.
     999903    2    3    3    0    0 -0.61970533549E-01  0.62258824871E-01 -0.94777761607E-01  0.13074257148E+00  0.19856676415E-01 0.  0.
         14    1    1    2    0    0  0.19976212881E-01  0.13258743583E-01  0.10053681074E-02  0.23996960797E-01  0.00000000000E+00 0. -1.
     999901    1    3    3    0    0  0.41994320668E-01 -0.75517568454E-01  0.93772393500E-01  0.88919046773E+00  0.88000000000E+00 0. -1.
        -11    1    4    4    0    0 -0.27482058891E-02  0.63924196360E-02 -0.18980222691E-02  0.72304407850E-02  0.51100000000E-03 0. -1.
         11    1    4    4    0    0 -0.59222327660E-01  0.55866405235E-01 -0.92879739338E-01  0.12351213069E+00  0.51100000000E-03 0.  1.
</event>
<event>
 8    1  0.1150307E+005  0.1043930E+01  0.7957747E-01            NaN
         13   -1    0    0    0    0  0.00000000000E+00  0.00000000000E+00  0.74505805969E-08  0.10566000000E+00  0.10566000000E+00 0. -1.
     999900   -1    0    0    0    0 -0.00000000000E+00 -0.00000000000E+00 -0.74505805969E-08  0.93827000000E+00  0.93827000000E+00 0. -1.
     999902    2    1    2    0    0 -0.15896197218E-01 -0.17235972935E-01 -0.65282123507E-02  0.10195910311E+01  0.10193004883E+01 0.  0.
     999903    2    3    3    0    0  0.10612451927E+00  0.55918345625E-01  0.36084489795E-01  0.12714694215E+00  0.21794025032E-01 0.  0.
         14    1    1    2    0    0  0.15896197218E-01  0.17235972935E-01  0.65282123507E-02  0.24338968867E-01  0.00000000000E+00 0. -1.
     999901    1    3    3    0    0 -0.12202071649E+00 -0.73154318560E-01 -0.42612702146E-01  0.89244408898E+00  0.88000000000E+00 0. -1.
        -11    1    4    4    0    0  0.51574018735E-01  0.15044837401E-01  0.14587708557E-01  0.55671257422E-01  0.51100000000E-03 0. -1.
         11    1    4    4    0    0  0.54550500533E-01  0.40873508223E-01  0.21496781238E-01  0.71475684729E-01  0.51100000000E-03 0.  1.
</event>
<event>
 8    1  0.1150307E+005  0.1043930E+01  0.7957747E-01            NaN
         13   -1    0    0    0    0  0.00000000000E+00  0.00000000000E+00  0.74505805969E-08  0.10566000000E+00  0.10566000000E+00 0.  1.
     999900   -1    0    0    0    0 -0.00000000000E+00 -0.00000000000E+00 -0.74505805969E-08  0.93827000000E+00  0.93827000000E+00 0.  1.
     999902    2    1    2    0    0  0.58405462753E-02  0.22784312067E-01  0.11112713754E-03  0.10204087499E+01  0.10201376219E+01 0.  0.
     999903    2    3    3    0    0  0.42269131205E-01 -0.99730577670E-01  0.66735787785E-01  0.12868245477E+00  0.19303917222E-01 0.  0.
         14    1    1    2    0    0 -0.58405462753E-02 -0.22784312067E-01 -0.11112713754E-03  0.23521250103E-01  0.00000000000E+00 0. -1.
     999901    1    3    3    0    0 -0.36428584930E-01  0.12251488974E+00 -0.66624660647E-01  0.89172629512E+00  0.88000000000E+00 0.  1.
        -11    1    4    4    0    0  0.13949329175E-01 -0.14978529938E-01  0.15466111754E-01  0.25659342886E-01  0.51100000000E-03 0.  1.
         11    1    4    4    0    0  0.28319802030E-01 -0.84752047732E-01  0.51269676031E-01  0.10302311189E+00  0.51100000000E-03 0. -1.
</event>
<event>
 8    1  0.1150307E+005  0.1043930E+01  0.7957747E-01            NaN
         13   -1    0    0    0    0  0.00000000000E+00  0.00000000000E+00  0.74505805969E-08  0.10566000000E+00  0.10566000000E+00 0. -1.
     999900   -1    0    0    0    0 -0.00000000000E+00 -0.00000000000E+00 -0.74505805969E-08  0.93827000000E+00  0.93827000000E+00 0. -1.
     999902    2    1    2    0    0 -0.82896117580E-02  0.18198127692E-01 -0.11609378623E-01  0.10208071285E+01  0.10205452104E+01 0.  0.
     999903    2    3    3    0    0  0.11990910688E+00  0.37683315679E-01  0.24764304042E-01  0.13056130357E+00  0.25194385103E-01 0.  0.
         14    1    1    2    0    0  0.82896117580E-02 -0.18198127692E-01  0.11609378623E-01  0.23122871504E-01  0.00000000000E+00 0. -1.
     999901    1    3    3    0    0 -0.12819871864E+00 -0.19485187988E-01 -0.36373682665E-01  0.89024582493E+00  0.88000000000E+00 0.  1.
        -11    1    4    4    0    0  0.61167577834E-01  0.27643872906E-01  0.22940690749E-01  0.70937949648E-01  0.51100000000E-03 0. -1.
         11    1    4    4    0    0  0.58741529048E-01  0.10039442774E-01  0.18236132932E-02  0.59623353919E-01  0.51100000000E-03 0.  1.
</event>
<event>
 8    1  0.1150307E+005  0.1043930E+01  0.7957747E-01            NaN
         13   -1    0    0    0    0  0.00000000000E+00  0.00000000000E+00  0.74505805969E-08  0.10566000000E+00  0.10566000000E+00 0. -1.
     999900   -1    0    0    0    0 -0.00000000000E+00 -0.00000000000E+00 -0.74505805969E-08  0.93827000000E+00  0.93827000000E+00 0. -1.
     999902    2    1    2    0    0  0.12922033160E-01 -0.19394613586E-01  0.56082747850E-02  0.10199595448E+01  0.10196778365E+01 0.  0.
     999903    2    3    3    0    0  0.28008111740E-01 -0.10339935624E+00 -0.74523896592E-01  0.13220645330E+00  0.21186173226E-01 0.  0.
         14    1    1    2    0    0 -0.12922033160E-01  0.19394613586E-01 -0.56082747850E-02  0.23970455215E-01  0.00000000000E+00 0.  1.
     999901    1    3    3    0    0 -0.15086078580E-01  0.84004742656E-01  0.80132171377E-01  0.88775309149E+00  0.88000000000E+00 0.  1.
        -11    1    4    4    0    0  0.29642195578E-01 -0.73524604821E-01 -0.54122575492E-01  0.95989799310E-01  0.51100000000E-03 0. -1.
         11    1    4    4    0    0 -0.16340838380E-02 -0.29874751421E-01 -0.20401321100E-01  0.36216653988E-01  0.51100000000E-03 0.  1.
</event>
<event>
 8    1  0.1150307E+005  0.1043930E+01  0.7957747E-01            NaN
         13   -1    0    0    0    0  0.00000000000E+00  0.00000000000E+00  0.74505805969E-08  0.10566000000E+00  0.10566000000E+00 0. -1.
     999900   -1    0    0    0    0 -0.00000000000E+00 -0.00000000000E+00 -0.74505805969E-08  0.93827000000E+00  0.93827000000E+00 0.  1.
     999902    2    1    2    0    0  0.21399642844E-01  0.91048272206E-02  0.31861693076E-02  0.10204567329E+01  0.10201867229E+01 0.  0.
     999903    2    3    3    0    0 -0.11584646657E+00  0.48450065691E-01  0.20350782252E-01  0.12878461478E+00  0.20087557919E-01 0.  0.
         14    1    1    2    0    0 -0.21399642844E-01 -0.91048272206E-02 -0.31861693076E-02  0.23473267080E-01  0.00000000000E+00 0.  1.
     999901    1    3    3    0    0  0.13724610941E+00 -0.39345238470E-01 -0.17164612945E-01  0.89167211814E+00  0.88000000000E+00 0.  1.
        -11    1    4    4    0    0 -0.28661225496E-01  0.61149474759E-02 -0.17933109878E-02  0.29365549797E-01  0.51100000000E-03 0. -1.
         11    1    4    4    0    0 -0.87185241070E-01  0.42335118215E-01  0.22144093240E-01  0.99419064979E-01  0.51100000000E-03 0.  1.
</event>
<event>
 8    1  0.1150307E+005  0.1043930E+01  0.7957747E-01            NaN
         13   -1    0    0    0    0  0.00000000000E+00  0.00000000000E+00  0.74505805969E-08  0.10566000000E+00  0.10566000000E+00 0.  1.
     999900   -1    0    0    0    0 -0.00000000000E+00 -0.00000000000E+00 -0.74505805969E-08  0.93827000000E+00  0.93827000000E+00 0. -1.
     999902    2    1    2    0    0 -0.33105966367E-02  0.14397217731E-01 -0.19057620255E-01  0.10198170819E+01  0.10195319749E+01 0.  0.
     999903    2    3    3    0    0 -0.80425431833E-02 -0.31729650057E-01 -0.12654975060E+00  0.13206450528E+00  0.18834568888E-01 0.  0.
         14    1    1    2    0    0  0.33105966367E-02 -0.14397217731E-01  0.19057620255E-01  0.24112918078E-01  0.00000000000E+00 0.  1.
     999901    1    3    3    0    0  0.47319465465E-02  0.46126867788E-01  0.10749213034E+00  0.88775257664E+00  0.88000000000E+00 0.  1.
        -11    1    4    4    0    0  0.43843805475E-02 -0.17698914565E-01 -0.49138901921E-01  0.52415333373E-01  0.51100000000E-03 0.  1.
         11    1    4    4    0    0 -0.12426923731E-01 -0.14030735492E-01 -0.77410848674E-01  0.79649171906E-01  0.51100000000E-03 0. -1.
</event>
<event>
 8    1  0.1150307E+005  0.1043930E+01  0.7957747E-01            NaN
         13   -1    0    0    0    0  0.00000000000E+00  0.00000000000E+00  0.74505805969E-08  0.10566000000E+00  0.10566000000E+00 0.  1.
     999900   -1    0    0    0    0 -0.00000000000E+00 -0.00000000000E+00 -0.74505805969E-08  0.93827000000E+00  0.93827000000E+00 0.  1.
     999902    2    1    2    0    0 -0.51622013854E-03  0.43807457235E-02  0.24562046827E-01  0.10189750093E+01  0.10186693860E+01 0.  0.
     999903    2    3    3    0    0  0.33982491889E-01 -0.11217858961E+00  0.52861341832E-01  0.13016845561E+00  0.20264739224E-01 0.  0.
         14    1    1    2    0    0  0.51622013854E-03 -0.43807457235E-02 -0.24562046827E-01  0.24954990697E-01  0.00000000000E+00 0. -1.
     999901    1    3    3    0    0 -0.34498712027E-01  0.11655933533E+00 -0.28299295004E-01  0.88880655369E+00  0.88000000000E+00 0. -1.
        -11    1    4    4    0    0  0.25674908178E-01 -0.94613825180E-01  0.51354665355E-01  0.11067312049E+00  0.51100000000E-03 0. -1.
         11    1    4    4    0    0  0.83075837103E-02 -0.17564764425E-01  0.15066764765E-02  0.19495335119E-01  0.51100000000E-03 0.  1.
</event>
<event>
 8    1  0.1150307E+005  0.1043930E+01  0.7957747E-01            NaN
         13   -1    0    0    0    0  0.00000000000E+00  0.00000000000E+00  0.74505805969E-08  0.10566000000E+00  0.10566000000E+00 0. -1.
     999900   -1    0    0    0    0 -0.00000000000E+00 -0.00000000000E+00 -0.74505805969E-08  0.93827000000E+00  0.93827000000E+00 0.  1.
     999902    2    1    2    0    0  0.13188310504E-01  0.18877657472E-01  0.61801553748E-02  0.10200869338E+01  0.10198082470E+01 0.  0.
     999903    2    3    3    0    0 -0.12213596181E-02  0.84940108059E-01 -0.98128184360E-01  0.13135068737E+00  0.20187838680E-01 0.  0.
         14    1    1    2    0    0 -0.13188310504E-01 -0.18877657472E-01 -0.61801553748E-02  0.23843066205E-01  0.00000000000E+00 0.  1.
     999901    1    3    3    0    0  0.14409670122E-01 -0.66062450587E-01  0.10430833973E+00  0.88873624642E+00  0.88000000000E+00 0. -1.
        -11    1    4    4    0    0 -0.96454126120E-02  0.28127769242E-01 -0.37038773829E-01  0.47500918673E-01  0.51100000000E-03 0. -1.
         11    1    4    4    0    0  0.84240529939E-02  0.56812338817E-01 -0.61089410531E-01  0.83849768698E-01  0.51100000000E-03 0.  1.
</event>
<event>
 8    1  0.1150307E+005  0.1043930E+01  0.7957747E-01            NaN
         13   -1    0    0    0    0  0.00000000000E+00  0.00000000000E+00  0.74505805969E-08  0.10566000000E+00  0.10566000000E+00 0.  1.
     999900   -1    0    0    0    0 -0.00000000000E+00 -0.00000000000E+00 -0.74505805969E-08  0.93827000000E+00  0.93827000000E+00 0.  1.
     999902    2    1    2    0    0  0.12445564071E-01  0.13863091064E-01  0.11271534542E-01  0.10221555919E+01  0.10219236415E+01 0.  0.
     999903    2    3    3    0    0  0.60460064544E-01  0.10959491825E+00 -0.42890101316E-01  0.13400951278E+00  0.21272593023E-01 0.  0.
         14    1    1    2    0    0 -0.12445564071E-01 -0.13863091064E-01 -0.11271534542E-01  0.21774408140E-01  0.00000000000E+00 0. -1.
     999901    1    3    3    0    0 -0.48014500473E-01 -0.95731827182E-01  0.54161635858E-01  0.88814607908E+00  0.88000000000E+00 0.  1.
        -11    1    4    4    0    0  0.37427122080E-01  0.86119500926E-01 -0.28727851046E-01  0.98198311868E-01  0.51100000000E-03 0. -1.
         11    1    4    4    0    0  0.23032942464E-01  0.23475417321E-01 -0.14162250270E-01  0.35811200910E-01  0.51100000000E-03 0.  1.
</event>
<event>
 8    1  0.1150307E+005  0.1043930E+01  0.7957747E-01            NaN
         13   -1    0    0    0    0  0.00000000000E+00  0.00000000000E+00  0.74505805969E-08  0.10566000000E+00  0.10566000000E+00 0. -1.
     999900   -1    0    0    0    0 -0.00000000000E+00 -0.00000000000E+00 -0.74505805969E-08  0.93827000000E+00  0.93827000000E+00 0.  1.
     999902    2    1    2    0    0  0.11273728774E-01  0.20469383856E-01 -0.62301830358E-02  0.10197451325E+01  0.10194583010E+01 0.  0.
     999903    2    3    3    0    0  0.28057250379E-01  0.49469872191E-01 -0.11755924333E+00  0.13209831388E+00  0.19882436602E-01 0.  0.
         14    1    1    2    0    0 -0.11273728774E-01 -0.20469383856E-01  0.62301830358E-02  0.24184867511E-01  0.00000000000E+00 0. -1.
     999901    1    3    3    0    0 -0.16783521605E-01 -0.29000488335E-01  0.11132906029E+00  0.88764681861E+00  0.88000000000E+00 0. -1.
        -11    1    4    4    0    0  0.57820617063E-02  0.23410829927E-02 -0.48529946530E-02  0.79199485640E-02  0.51100000000E-03 0. -1.
         11    1    4    4    0    0  0.22275188672E-01  0.47128789198E-01 -0.11270624867E+00  0.12417836532E+00  0.51100000000E-03 0.  1.
</event>
<event>
 8    1  0.1150307E+005  0.1043930E+01  0.7957747E-01            NaN
         13   -1    0    0    0    0  0.00000000000E+00  0.00000000000E+00  0.74505805969E-08  0.10566000000E+00  0.10566000000E+00 0.  1.
     999900   -1    0    0    0    0 -0.00000000000E+00 -0.00000000000E+00 -0.74505805969E-08  0.93827000000E+00  0.93827000000E+00 0.  1.
     999902    2    1    2    0    0 -0.13028448581E-01  0.91150339030E-02  0.15812962327E-01  0.10215051456E+01  0.10212589723E+01 0.  0.
     999903    2    3    3    0    0 -0.84961291972E-01  0.10098024045E+00 -0.76180784492E-03  0.13364914767E+00  0.21120706109E-01 0.  0.
         14    1    1    2    0    0  0.13028448581E-01 -0.91150339030E-02 -0.15812962327E-01  0.22424854359E-01  0.00000000000E+00 0. -1.
     999901    1    3    3    0    0  0.71932843392E-01 -0.91865206544E-01  0.16574770171E-01  0.88785599797E+00  0.88000000000E+00 0. -1.
        -11    1    4    4    0    0 -0.82539874855E-02  0.20117016924E-01  0.38780495615E-02  0.22093507388E-01  0.51100000000E-03 0. -1.
         11    1    4    4    0    0 -0.76707304487E-01  0.80863223524E-01 -0.46398574064E-02  0.11155564028E+00  0.51100000000E-03 0.  1.
</event>
<event>
 8    1  0.1150307E+005  0.1043930E+01  0.7957747E-01            NaN
         13   -1    0    0    0    0  0.00000000000E+00  0.00000000000E+00  0.74505805969E-08  0.10566000000E+00  0.10566000000E+00 0. -1.
     999900   -1    0    0    0    0 -0.00000000000E+00 -0.00000000000E+00 -0.74505805969E-08  0.93827000000E+00  0.93827000000E+00 0.  1.
     999902    2    1    2    0    0  0.38783223394E-02  0.13860587459E-01  0.23441957041E-01  0.10164221353E+01  0.10160498386E+01 0.  0.
     999903    2    3    3    0    0 -0.69001221854E-01 -0.71015638659E-01  0.78231867448E-01  0.12764919694E+00  0.19227658328E-01 0.  0.
         14    1    1    2    0    0 -0.38783223394E-02 -0.13860587459E-01 -0.23441957041E-01  0.27507864671E-01  0.00000000000E+00 0.  1.
     999901    1    3    3    0    0  0.72879544193E-01  0.84876226117E-01 -0.54789910407E-01  0.88877293838E+00  0.88000000000E+00 0.  1.
        -11    1    4    4    0    0 -0.17661462864E-01 -0.18824394619E-01  0.31776116244E-01  0.40942249423E-01  0.51100000000E-03 0. -1.
         11    1    4    4    0    0 -0.51339758989E-01 -0.52191244040E-01  0.46455751204E-01  0.86706947521E-01  0.51100000000E-03 0.  1.
</event>
<event>
 8    1  0.1150307E+005  0.1043930E+01  0.7957747E-01            NaN
         13   -1    0    0    0    0  0.00000000000E+00  0.00000000000E+00  0.74505805969E-08  0.10566000000E+00  0.10566000000E+00 0. -1.
     999900   -1    0    0    0    0 -0.00000000000E+00 -0.00000000000E+00 -0.74505805969E-08  0.93827000000E+00  0.93827000000E+00 0. -1.
     999902    2    1    2    0    0  0.20999508534E-01  0.77557242365E-02 -0.25564492610E-02  0.10213985542E+01  0.10211500088E+01 0.  0.
     999903    2    3    3    0    0  0.96601290549E-02 -0.12718529418E+00  0.21294866075E-01  0.13072097773E+00  0.19107211953E-01 0.  0.
         14    1    1    2    0    0 -0.20999508534E-01 -0.77557242365E-02  0.25564492610E-02  0.22531445802E-01  0.00000000000E+00 0. -1.
     999901    1    3    3    0    0  0.11339379479E-01  0.13494101842E+00 -0.23851315336E-01  0.89067757647E+00  0.88000000000E+00 0. -1.
        -11    1    4    4    0    0  0.13181013740E-01 -0.73389697586E-01  0.66932547280E-02  0.74865530218E-01  0.51100000000E-03 0. -1.
         11    1    4    4    0    0 -0.35208846854E-02 -0.53795596594E-01  0.14601611347E-01  0.55855447513E-01  0.51100000000E-03 0.  1.
</event>
<event>
 8    1  0.1150307E+005  0.1043930E+01  0.7957747E-01            NaN
         13   -1    0    0    0    0  0.00000000000E+00  0.00000000000E+00  0.74505805969E-08  0.10566000000E+00  0.10566000000E+00 0.  1.
     999900   -1    0    0    0    0 -0.00000000000E+00 -0.00000000000E+00 -0.74505805969E-08  0.93827000000E+00  0.93827000000E+00 0. -1.
     999902    2    1    2    0    0  0.20832848135E-01  0.35823727197E-02 -0.14380772388E-01  0.10183634678E+01  0.10180424868E+01 0.  0.
     999903    2    3    3    0    0  0.50338657315E-01 -0.45171670006E-01 -0.11067649672E+00  0.13127811901E+00  0.20253330955E-01 0.  0.
         14    1    1    2    0    0 -0.20832848135E-01 -0.35823727197E-02  0.14380772388E-01  0.25566532229E-01  0.00000000000E+00 0.  1.
     999901    1    3    3    0    0 -0.29505809179E-01  0.48754042726E-01  0.96295724328E-01  0.88708534876E+00  0.88000000000E+00 0.  1.
        -11    1    4    4    0    0  0.19837530157E-01 -0.99992350081E-02 -0.22844574311E-01  0.31869232811E-01  0.51100000000E-03 0.  1.
         11    1    4    4    0    0  0.30501127157E-01 -0.35172434998E-01 -0.87831922405E-01  0.99408886202E-01  0.51100000000E-03 0. -1.
</event>
<event>
 8    1  0.1150307E+005  0.1043930E+01  0.7957747E-01            NaN
         13   -1    0    0    0    0  0.00000000000E+00  0.00000000000E+00  0.74505805969E-08  0.10566000000E+00  0.10566000000E+00 0. -1.
     999900   -1    0    0    0    0 -0.00000000000E+00 -0.00000000000E+00 -0.74505805969E-08  0.93827000000E+00  0.93827000000E+00 0.  1.
     999902    2    1    2    0    0 -0.21818712069E-01  0.41696472575E-02  0.18949410892E-02  0.10216357641E+01  0.10213924816E+01 0.  0.
     999903    2    3    3    0    0  0.13445470524E-01 -0.39254999653E-01 -0.12273002324E+00  0.13109623980E+00  0.20045693025E-01 0.  0.
         14    1    1    2    0    0  0.21818712069E-01 -0.41696472575E-02 -0.18949410892E-02  0.22294235944E-01  0.00000000000E+00 0. -1.
     999901    1    3    3    0    0 -0.35264182593E-01  0.43424646911E-01  0.12462496433E+00  0.89053952426E+00  0.88000000000E+00 0. -1.
        -11    1    4    4    0    0  0.17461399414E-01 -0.24510465071E-01 -0.91515031932E-01  0.96337560474E-01  0.51100000000E-03 0. -1.
         11    1    4    4    0    0 -0.40159288903E-02 -0.14744534582E-01 -0.31214991309E-01  0.34758679323E-01  0.51100000000E-03 0.  1.
</event>
<event>
 8    1  0.1150307E+005  0.1043930E+01  0.7957747E-01            NaN
         13   -1    0    0    0    0  0.00000000000E+00  0.00000000000E+00  0.74505805969E-08  0.10566000000E+00  0.10566000000E+00 0. -1.
     999900   -1    0    0    0    0 -0.00000000000E+00 -0.00000000000E+00 -0.74505805969E-08  0.93827000000E+00  0.93827000000E+00 0. -1.
     999902    2    1    2    0    0  0.10747125767E-01 -0.13654673809E-01  0.17865515280E-01  0.10190075710E+01  0.10187027547E+01 0.  0.
     999903    2    3    3    0    0 -0.88356378099E-01  0.28513010818E-01  0.88286166616E-01  0.12964898968E+00  0.19863835786E-01 0.  0.
         14    1    1    2    0    0 -0.10747125767E-01  0.13654673809E-01 -0.17865515280E-01  0.24922428961E-01  0.00000000000E+00 0.  1.
     999901    1    3    3    0    0  0.99103503866E-01 -0.42167684628E-01 -0.70420651336E-01  0.88935858136E+00  0.88000000000E+00 0. -1.
        -11    1    4    4    0    0 -0.80281347704E-01  0.28503081009E-01  0.72319565700E-01  0.11174927794E+00  0.51100000000E-03 0. -1.
         11    1    4    4    0    0 -0.80750303948E-02  0.99298093712E-05  0.15966600916E-01  0.17899711738E-01  0.51100000000E-03 0.  1.
</event>
<event>
 8    1  0.1150307E+005  0.1043930E+01  0.7957747E-01            NaN
         13   -1    0    0    0    0  0.00000000000E+00  0.00000000000E+00  0.74505805969E-08  0.10566000000E+00  0.10566000000E+00 0.  1.
     999900   -1    0    0    0    0 -0.00000000000E+00 -0.00000000000E+00 -0.74505805969E-08  0.93827000000E+00  0.93827000000E+00 0. -1.
     999902    2    1    2    0    0 -0.20339148643E-01 -0.96055347248E-02  0.45024689421E-02  0.10209905255E+01  0.10207327925E+01 0.  0.
     999903    2    3    3    0    0  0.11052148049E+00  0.55692474686E-01  0.29316399140E-01  0.12857578702E+00  0.18858217367E-01 0.  0.
         14    1    1    2    0    0  0.20339148643E-01  0.96055347248E-02 -0.45024689421E-02  0.22939474524E-01  0.00000000000E+00 0. -1.
     999901    1    3    3    0    0 -0.13086062913E+00 -0.65298009410E-01 -0.24813930197E-01  0.89241473846E+00  0.88000000000E+00 0. -1.
        -11    1    4    4    0    0  0.10282439004E+00  0.48513753790E-01  0.22152466692E-01  0.11583364104E+00  0.51100000000E-03 0.  1.
         11    1    4    4    0    0  0.76970904472E-02  0.71787208954E-02  0.71639324480E-02  0.12742145980E-01  0.51100000000E-03 0. -1.
</event>
<event>
 8    1  0.1150307E+005  0.1043930E+01  0.7957747E-01            NaN
         13   -1    0    0    0    0  0.00000000000E+00  0.00000000000E+00  0.74505805969E-08  0.10566000000E+00  0.10566000000E+00 0.  1.
     999900   -1    0    0    0    0 -0.00000000000E+00 -0.00000000000E+00 -0.74505805969E-08  0.93827000000E+00  0.93827000000E+00 0.  1.
     999902    2    1    2    0    0 -0.23138356384E-01  0.54025147573E-02  0.25611639871E-02  0.10200316682E+01  0.10197516726E+01 0.  0.
     999903    2    3    3    0    0 -0.49002031453E-01  0.11933063608E+00 -0.19989108371E-01  0.13202431390E+00  0.19744751537E-01 0.  0.
         14    1    1    2    0    0  0.23138356384E-01 -0.54025147573E-02 -0.25611639871E-02  0.23898331800E-01  0.00000000000E+00 0. -1.
     999901    1    3    3    0    0  0.25863675069E-01 -0.11392812132E+00  0.22550272358E-01  0.88800735430E+00  0.88000000000E+00 0.  1.
        -11    1    4    4    0    0 -0.33376983960E-01  0.58081773738E-01 -0.14746608505E-01  0.68594745296E-01  0.51100000000E-03 0. -1.
         11    1    4    4    0    0 -0.15625047493E-01  0.61248862338E-01 -0.52424998655E-02  0.63429568599E-01  0.51100000000E-03 0.  1.
</event>
<event>
 8    1  0.1150307E+005  0.1043930E+01  0.7957747E-01            NaN
         13   -1    0    0    0    0  0.00000000000E+00  0.00000000000E+00  0.74505805969E-08  0.10566000000E+00  0.10566000000E+00 0.  1.
     999900   -1    0    0    0    0 -0.00000000000E+00 -0.00000000000E+00 -0.74505805969E-08  0.93827000000E+00  0.93827000000E+00 0.  1.
     999902    2    1    2    0    0  0.21946919682E-01  0.70377652351E-02 -0.22358969284E-02  0.10207740794E+01  0.10205114034E+01 0.  0.
     999903    2    3    3    0    0  0.24471978090E-01  0.94896460726E-01  0.86125597411E-01  0.13199217142E+00  0.20002470287E-01 0.  0.
         14    1    1    2    0    0 -0.21946919682E-01 -0.70377652351E-02  0.22358969284E-02  0.23155920584E-01  0.00000000000E+00 0.  1.
     999901    1    3    3    0    0 -0.25250584078E-02 -0.87858695491E-01 -0.88361494339E-01  0.88878190799E+00  0.88000000000E+00 0.  1.
        -11    1    4    4    0    0  0.25212592897E-02  0.22135106543E-01  0.30661985113E-01  0.37904328805E-01  0.51100000000E-03 0. -1.
         11    1    4    4    0    0  0.21950718800E-01  0.72761354183E-01  0.55463612298E-01  0.94087842618E-01  0.51100000000E-03 0.  1.
</event>
<event>
 8    1  0.1150307E+005  0.1043930E+01  0.7957747E-01            NaN
         13   -1    0    0    0    0  0.00000000000E+00  0.00000000000E+00  0.74505805969E-08  0.10566000000E+00  0.10566000000E+00 0.  1.
     999900   -1    0    0    0    0 -0.00000000000E+00 -0.00000000000E+00 -0.74505805969E-08  0.93827000000E+00  0.93827000000E+00 0. -1.
     999902    2    1    2    0    0 -0.14462645565E-01 -0.10469372440E-01  0.15379398393E-01  0.10203651582E+01  0.10200930125E+01 0.  0.
     999903    2    3    3    0    0  0.77901944320E-01 -0.65594889723E-01  0.80335821576E-01  0.13143918991E+00  0.21237088516E-01 0.  0.
         14    1    1    2    0    0  0.14462645565E-01  0.10469372440E-01 -0.15379398393E-01  0.23564841840E-01  0.00000000000E+00 0. -1.
     999901    1    3    3    0    0 -0.92364589885E-01  0.55125517283E-01 -0.64956423184E-01  0.88892596825E+00  0.88000000000E+00 0.  1.
        -11    1    4    4    0    0  0.33180334594E-01 -0.15523387008E-01  0.32839840576E-01  0.49199861768E-01  0.51100000000E-03 0. -1.
         11    1    4    4    0    0  0.44721609726E-01 -0.50071502715E-01  0.47495981000E-01  0.82239328139E-01  0.51100000000E-03 0.  1.
</event>
<event>
 8    1  0.1150307E+005  0.1043930E+01  0.7957747E-01            NaN
         13   -1    0    0    0    0  0.00000000000E+00  0.00000000000E+00  0.74505805969E-08  0.10566000000E+00  0.10566000000E+00 0.  1.
     999900   -1    0    0    0    0 -0.00000000000E+00 -0.00000000000E+00 -0.74505805969E-08  0.93827000000E+00  0.93827000000E+00 0.  1.
     999902    2    1    2    0    0 -0.20972381762E-01  0.75413156732E-02 -0.97615370249E-02  0.10195989531E+01  0.10193086016E+01 0.  0.
     999903    2    3    3    0    0  0.76656850036E-01  0.58608138032E-01  0.82552554321E-01  0.12793692142E+00  0.15548155433E-01 0.  0.
         14    1    1    2    0    0  0.20972381762E-01 -0.75413156732E-02  0.97615370249E-02  0.24331046914E-01  0.00000000000E+00 0. -1.
     999901    1    3    3    0    0 -0.97629231798E-01 -0.51066822359E-01 -0.92314091346E-01  0.89166203166E+00  0.88000000000E+00 0.  1.
        -11    1    4    4    0    0  0.28477571818E-01  0.31084884354E-01  0.38365688833E-01  0.57003765951E-01  0.51100000000E-03 0. -1.
         11    1    4    4    0    0  0.48179278218E-01  0.27523253678E-01  0.44186865488E-01  0.70933155473E-01  0.51100000000E-03 0.  1.
</event>
<event>
 8    1  0.1150307E+005  0.1043930E+01  0.7957747E-01            NaN
         13   -1    0    0    0    0  0.00000000000E+00  0.00000000000E+00  0.74505805969E-08  0.10566000000E+00  0.10566000000E+00 0.  1.
     999900   -1    0    0    0    0 -0.00000000000E+00 -0.00000000000E+00 -0.74505805969E-08  0.93827000000E+00  0.93827000000E+00 0.  1.
     999902    2    1    2    0    0  0.48149172106E-02  0.23277628319E-01 -0.26709951171E-02  0.10200100162E+01  0.10197295071E+01 0.  0.
     999903    2    3    3    0    0  0.96744111699E-02  0.52893330838E-01  0.11825391449E+00  0.13123358863E+00  0.18627072052E-01 0.  0.
         14    1    1    2    0    0 -0.48149172106E-02 -0.23277628319E-01  0.26709951171E-02  0.23919983755E-01  0.00000000000E+00 0.  1.
     999901    1    3    3    0    0 -0.48594939593E-02 -0.29615702519E-01 -0.12092490961E+00  0.88877642761E+00  0.88000000000E+00 0.  1.
        -11    1    4    4    0    0 -0.42223196117E-02  0.16371998177E-01  0.25695516164E-01  0.30763468256E-01  0.51100000000E-03 0.  1.
         11    1    4    4    0    0  0.13896730782E-01  0.36521332662E-01  0.92558398330E-01  0.10047012038E+00  0.51100000000E-03 0. -1.
</event>
<event>
 8    1  0.1150307E+005  0.1043930E+01  0.7957747E-01            NaN
         13   -1    0    0    0    0  0.00000000000E+00  0.00000000000E+00  0.74505805969E-08  0.10566000000E+00  0.10566000000E+00 0.  1.
     999900   -1    0    0    0    0 -0.00000000000E+00 -0.00000000000E+00 -0.74505805969E-08  0.93827000000E+00  0.93827000000E+00 0.  1.
     999902    2    1    2    0    0 -0.80313662150E-02 -0.16039890915E-02  0.17267918736E-01  0.10248183114E+01  0.10246400903E+01 0.  0.
     999903    2    3    3    0    0 -0.86151425132E-02  0.55578653671E-01  0.12307742492E+00  0.13663710970E+00  0.18932506348E-01 0.  0.
         14    1    1    2    0    0  0.80313662150E-02  0.16039890915E-02 -0.17267918736E-01  0.19111688616E-01  0.00000000000E+00 0. -1.
     999901    1    3    3    0    0  0.58377629819E-03 -0.57182642763E-01 -0.10580950619E+00  0.88818120169E+00  0.88000000000E+00 0.  1.
        -11    1    4    4    0    0 -0.78076485732E-02  0.42565609340E-01  0.10979947036E+00  0.11802107984E+00  0.51100000000E-03 0. -1.
         11    1    4    4    0    0 -0.80749393997E-03  0.13013044331E-01  0.13277954562E-01  0.18616029855E-01  0.51100000000E-03 0.  1.
</event>
<event>
 8    1  0.1150307E+005  0.1043930E+01  0.7957747E-01            NaN
         13   -1    0    0    0    0  0.00000000000E+00  0.00000000000E+00  0.74505805969E-08  0.10566000000E+00  0.10566000000E+00 0. -1.
     999900   -1    0    0    0    0 -0.00000000000E+00 -0.00000000000E+00 -0.74505805969E-08  0.93827000000E+00  0.93827000000E+00 0. -1.
     999902    2    1    2    0    0 -0.22198733702E-01 -0.19729038061E-01 -0.12830885439E-02  0.10142034961E+01  0.10137677576E+01 0.  0.
     999903    2    3    3    0    0  0.30110503472E-01 -0.45881503480E-01  0.11071454940E+00  0.12517949264E+00  0.20010975692E-01 0.  0.
         14    1    1    2    0    0  0.22198733702E-01  0.19729038061E-01  0.12830885439E-02  0.29726503948E-01  0.00000000000E+00 0. -1.
     999901    1    3    3    0    0 -0.52309237174E-01  0.26152465419E-01 -0.11199763794E+00  0.88902400341E+00  0.88000000000E+00 0. -1.
        -11    1    4    4    0    0  0.24551763570E-01 -0.46638701737E-01  0.10175226112E+00  0.11459381029E+00  0.51100000000E-03 0. -1.
         11    1    4    4    0    0  0.55587399020E-02  0.75719825737E-03  0.89622882796E-02  0.10585682345E-01  0.51100000000E-03 0.  1.
</event>
<event>
 8    1  0.1150307E+005  0.1043930E+01  0.7957747E-01            NaN
         13   -1    0    0    0    0  0.00000000000E+00  0.00000000000E+00  0.74505805969E-08  0.10566000000E+00  0.10566000000E+00 0. -1.
     999900   -1    0    0    0    0 -0.00000000000E+00 -0.00000000000E+00 -0.74505805969E-08  0.93827000000E+00  0.93827000000E+00 0.  1.
     999902    2    1    2    0    0 -0.12512366148E-01  0.16124719090E-01  0.94157716053E-02  0.10214528421E+01  0.10212055063E+01 0.  0.
     999903    2    3    3    0    0  0.61968657559E-01 -0.90519279000E-01  0.66784216254E-01  0.13004300164E+00  0.20425384831E-01 0.  0.
         14    1    1    2    0    0  0.12512366148E-01 -0.16124719090E-01 -0.94157716053E-02  0.22477157900E-01  0.00000000000E+00 0. -1.
     999901    1    3    3    0    0 -0.74481023707E-01  0.10664399809E+00 -0.57368444649E-01  0.89140984046E+00  0.88000000000E+00 0.  1.
        -11    1    4    4    0    0  0.44176985805E-01 -0.68818552271E-01  0.59236671966E-01  0.10097942185E+00  0.51100000000E-03 0.  1.
         11    1    4    4    0    0  0.17791671754E-01 -0.21700726729E-01  0.75475442878E-02  0.29063579789E-01  0.51100000000E-03 0. -1.
</event>
<event>
 8    1  0.1150307E+005  0.1043930E+01  0.7957747E-01            NaN
         13   -1    0    0    0    0  0.00000000000E+00  0.00000000000E+00  0.74505805969E-08  0.10566000000E+00  0.10566000000E+00 0. -1.
     999900   -1    0    0    0    0 -0.00000000000E+00 -0.00000000000E+00 -0.74505805969E-08  0.93827000000E+00  0.93827000000E+00 0. -1.
     999902    2    1    2    0    0 -0.23702534420E-02  0.22513210333E-01 -0.52893679647E-02  0.10206826312E+01  0.10204178524E+01 0.  0.
     999903    2    3    3    0    0 -0.36944000886E-01  0.50861470315E-01  0.11430427461E+00  0.13146859221E+00  0.16333253841E-01 0.  0.
         14    1    1    2    0    0  0.23702534420E-02 -0.22513210333E-01  0.52893679647E-02  0.23247368761E-01  0.00000000000E+00 0. -1.
     999901    1    3    3    0    0  0.34573747444E-01 -0.28348259982E-01 -0.11959364257E+00  0.88921403903E+00  0.88000000000E+00 0. -1.
        -11    1    4    4    0    0 -0.16066394072E-01  0.25004434390E-01  0.38044396610E-01  0.48280306462E-01  0.51100000000E-03 0. -1.
         11    1    4    4    0    0 -0.20877606814E-01  0.25857035925E-01  0.76259877997E-01  0.83188285751E-01  0.51100000000E-03 0.  1.
</event>
<event>
 8    1  0.1150307E+005  0.1043930E+01  0.7957747E-01            NaN
         13   -1    0    0    0    0  0.00000000000E+00  0.00000000000E+00  0.74505805969E-08  0.10566000000E+00  0.10566000000E+00 0. -1.
     999900   -1    0    0    0    0 -0.00000000000E+00 -0.00000000000E+00 -0.74505805969E-08  0.93827000000E+00  0.93827000000E+00 0. -1.
     999902    2    1    2    0    0 -0.12464257874E-01 -0.15894293394E-01 -0.12978527226E-01  0.10199210755E+01  0.10196384515E+01 0.  0.
     999903    2    3    3    0    0 -0.40920127457E-01  0.12059003552E+00  0.83403626252E-03  0.12883830972E+00  0.19549960071E-01 0.  0.
         14    1    1    2    0    0  0.12464257874E-01  0.15894293394E-01  0.12978527226E-01  0.24008924503E-01  0.00000000000E+00 0. -1.
     999901    1    3    3    0    0  0.28455869583E-01 -0.13648432891E+00 -0.13812563488E-01  0.89108276578E+00  0.88000000000E+00 0.  1.
        -11    1    4    4    0    0 -0.22595622310E-01  0.68802970392E-01 -0.91720639595E-02  0.72998621635E-01  0.51100000000E-03 0. -1.
         11    1    4    4    0    0 -0.18324505146E-01  0.51787065124E-01  0.10006100222E-01  0.55839688087E-01  0.51100000000E-03 0.  1.
</event>
<event>
 8    1  0.1150307E+005  0.1043930E+01  0.7957747E-01            NaN
         13   -1    0    0    0    0  0.00000000000E+00  0.00000000000E+00  0.74505805969E-08  0.10566000000E+00  0.10566000000E+00 0. -1.
     999900   -1    0    0    0    0 -0.00000000000E+00 -0.00000000000E+00 -0.74505805969E-08  0.93827000000E+00  0.93827000000E+00 0.  1.
     999902    2    1    2    0    0  0.74715928378E-02  0.21706561740E-01  0.39553622668E-02  0.10206352707E+01  0.10203693995E+01 0.  0.
     999903    2    3    3    0    0 -0.12499146516E+00  0.20257707935E-01  0.24376754257E-01  0.13048607301E+00  0.19978688844E-01 0.  0.
         14    1    1    2    0    0 -0.74715928378E-02 -0.21706561740E-01 -0.39553622668E-02  0.23294729291E-01  0.00000000000E+00 0. -1.
     999901    1    3    3    0    0  0.13246305800E+00  0.14488538050E-02 -0.20421391990E-01  0.89014919770E+00  0.88000000000E+00 0.  1.
        -11    1    4    4    0    0 -0.10408051605E+00  0.21023586574E-01  0.13933036816E-01  0.10709405049E+00  0.51100000000E-03 0.  1.
         11    1    4    4    0    0 -0.20910949107E-01 -0.76587863885E-03  0.10443717440E-01  0.23392022521E-01  0.51100000000E-03 0. -1.
</event>
<event>
 8    1  0.1150307E+005  0.1043930E+01  0.7957747E-01            NaN
         13   -1    0    0    0    0  0.00000000000E+00  0.00000000000E+00  0.74505805969E-08  0.10566000000E+00  0.10566000000E+00 0.  1.
     999900   -1    0    0    0    0 -0.00000000000E+00 -0.00000000000E+00 -0.74505805969E-08  0.93827000000E+00  0.93827000000E+00 0.  1.
     999902    2    1    2    0    0  0.69264934311E-02 -0.21285777922E-01  0.85058949208E-02  0.10199840003E+01  0.10197028734E+01 0.  0.
     999903    2    3    3    0    0 -0.66855034025E-01  0.10567428188E+00  0.17502245072E-01  0.12777129871E+00  0.19558291440E-01 0.  0.
         14    1    1    2    0    0 -0.69264934311E-02  0.21285777922E-01 -0.85058949208E-02  0.23945999695E-01  0.00000000000E+00 0. -1.
     999901    1    3    3    0    0  0.73781527456E-01 -0.12696005981E+00 -0.89963501514E-02  0.89221270160E+00  0.88000000000E+00 0. -1.
        -11    1    4    4    0    0 -0.46739344782E-01  0.81991699157E-01  0.20402550298E-01  0.96559464896E-01  0.51100000000E-03 0. -1.
         11    1    4    4    0    0 -0.20115689244E-01  0.23682582726E-01 -0.29003052255E-02  0.31211833809E-01  0.51100000000E-03 0.  1.
</event>
<event>
 8    1  0.1150307E+005  0.1043930E+01  0.7957747E-01            NaN
         13   -1    0    0    0    0  0.00000000000E+00  0.00000000000E+00  0.74505805969E-08  0.10566000000E+00  0.10566000000E+00 0.  1.
     999900   -1    0    0    0    0 -0.00000000000E+00 -0.00000000000E+00 -0.74505805969E-08  0.93827000000E+00  0.93827000000E+00 0.  1.
     999902    2    1    2    0    0  0.52728349459E-03 -0.18804159148E-01  0.14764512624E-01  0.10200162955E+01  0.10197359354E+01 0.  0.
     999903    2    3    3    0    0  0.58940041091E-01 -0.71682310589E-01 -0.89398439163E-01  0.13037700363E+00  0.19844396046E-01 0.  0.
         14    1    1    2    0    0 -0.52728349459E-03  0.18804159148E-01 -0.14764512624E-01  0.23913704485E-01  0.00000000000E+00 0. -1.
     999901    1    3    3    0    0 -0.58412757596E-01  0.52878151441E-01  0.10416295179E+00  0.88963929189E+00  0.88000000000E+00 0. -1.
        -11    1    4    4    0    0  0.93363003693E-02 -0.12850649026E-01 -0.62351958011E-02  0.17071744863E-01  0.51100000000E-03 0. -1.
         11    1    4    4    0    0  0.49603740721E-01 -0.58831661562E-01 -0.83163243362E-01  0.11330525876E+00  0.51100000000E-03 0.  1.
</event>
<event>
 8    1  0.1150307E+005  0.1043930E+01  0.7957747E-01            NaN
         13   -1    0    0    0    0  0.00000000000E+00  0.00000000000E+00  0.74505805969E-08  0.10566000000E+00  0.10566000000E+00 0.  1.
     999900   -1    0    0    0    0 -0.00000000000E+00 -0.00000000000E+00 -0.74505805969E-08  0.93827000000E+00  0.93827000000E+00 0.  1.
     999902    2    1    2    0    0  0.22382547520E-01 -0.83324577360E-02  0.20737262409E-02  0.10199569187E+01  0.10196751480E+01 0.  0.
     999903    2    3    3    0    0  0.10570384831E+00 -0.44336553752E-01 -0.64203773926E-01  0.13280899356E+00  0.19418306734E-01 0.  0.
         14    1    1    2    0    0 -0.22382547520E-01  0.83324577360E-02 -0.20737262409E-02  0.23973081277E-01  0.00000000000E+00 0. -1.
     999901    1    3    3    0    0 -0.83321300794E-01  0.36004096016E-01  0.66277500167E-01  0.88714792516E+00  0.88000000000E+00 0.  1.
        -11    1    4    4    0    0  0.55043204755E-01 -0.13681145579E-01 -0.26471887692E-01  0.62593530760E-01  0.51100000000E-03 0.  1.
         11    1    4    4    0    0  0.50660643560E-01 -0.30655408173E-01 -0.37731886234E-01  0.70215462798E-01  0.51100000000E-03 0. -1.
</event>
<event>
 8    1  0.1150307E+005  0.1043930E+01  0.7957747E-01            NaN
         13   -1    0    0    0    0  0.00000000000E+00  0.00000000000E+00  0.74505805969E-08  0.10566000000E+00  0.10566000000E+00 0.  1.
     999900   -1    0    0    0    0 -0.00000000000E+00 -0.00000000000E+00 -0.74505805969E-08  0.93827000000E+00  0.93827000000E+00 0.  1.
     999902    2    1    2    0    0  0.36252362778E-02  0.23353311379E-01 -0.50879525807E-02  0.10197554938E+01  0.10194689109E+01 0.  0.
     999903    2    3    3    0    0 -0.10943160712E+00 -0.19754207574E-01 -0.63308900825E-01  0.12957023953E+00  0.20369700446E-01 0.  0.
         14    1    1    2    0    0 -0.36252362778E-02 -0.23353311379E-01  0.50879525807E-02  0.24174506239E-01  0.00000000000E+00 0.  1.
     999901    1    3    3    0    0  0.11305684339E+00  0.43107518953E-01  0.58220948244E-01  0.89018525423E+00  0.88000000000E+00 0. -1.
        -11    1    4    4    0    0 -0.80339008312E-01 -0.78937534782E-02 -0.38002164703E-01  0.89224958636E-01  0.51100000000E-03 0. -1.
         11    1    4    4    0    0 -0.29092598805E-01 -0.11860454096E-01 -0.25306736122E-01  0.40345280898E-01  0.51100000000E-03 0.  1.
</event>
<event>
 8    1  0.1150307E+005  0.1043930E+01  0.7957747E-01            NaN
         13   -1    0    0    0    0  0.00000000000E+00  0.00000000000E+00  0.74505805969E-08  0.10566000000E+00  0.10566000000E+00 0. -1.
     999900   -1    0    0    0    0 -0.00000000000E+00 -0.00000000000E+00 -0.74505805969E-08  0.93827000000E+00  0.93827000000E+00 0.  1.
     999902    2    1    2    0    0 -0.10380228988E-01  0.80709924523E-02  0.34678963089E-01  0.10068419891E+01  0.10061586706E+01 0.  0.
     999903    2    3    3    0    0  0.11357640105E+00 -0.14323422494E-01  0.19126545937E-01  0.11773646462E+00  0.19781077660E-01 0.  0.
         14    1    1    2    0    0  0.10380228988E-01 -0.80709924523E-02 -0.34678963089E-01  0.37088010920E-01  0.00000000000E+00 0.  1.
     999901    1    3    3    0    0 -0.12395663004E+00  0.22394414947E-01  0.15552417152E-01  0.88910552446E+00  0.88000000000E+00 0. -1.
        -11    1    4    4    0    0  0.22754459641E-01 -0.45148730265E-02 -0.38961634688E-02  0.23528508724E-01  0.51100000000E-03 0.  1.
         11    1    4    4    0    0  0.90821941410E-01 -0.98085494680E-02  0.23022709406E-01  0.94207955893E-01  0.51100000000E-03 0. -1.
</event>
<event>
 8    1  0.1150307E+005  0.1043930E+01  0.7957747E-01            NaN
         13   -1    0    0    0    0  0.00000000000E+00  0.00000000000E+00  0.74505805969E-08  0.10566000000E+00  0.10566000000E+00 0.  1.
     999900   -1    0    0    0    0 -0.00000000000E+00 -0.00000000000E+00 -0.74505805969E-08  0.93827000000E+00  0.93827000000E+00 0. -1.
     999902    2    1    2    0    0  0.10124634241E-01  0.21491623634E-01  0.17268108734E-03  0.10201723081E+01  0.10198956370E+01 0.  0.
     999903    2    3    3    0    0  0.43984857311E-01 -0.76320299633E-02 -0.12126373032E+00  0.13071095206E+00  0.19686166247E-01 0.  0.
         14    1    1    2    0    0 -0.10124634241E-01 -0.21491623634E-01 -0.17268108734E-03  0.23757691885E-01  0.00000000000E+00 0.  1.
     999901    1    3    3    0    0 -0.33860223069E-01  0.29123653597E-01  0.12143641141E+00  0.88946135606E+00  0.88000000000E+00 0.  1.
        -11    1    4    4    0    0  0.12836138958E-03 -0.33585343024E-02 -0.19816495547E-01  0.20105990303E-01  0.51100000000E-03 0.  1.
         11    1    4    4    0    0  0.43856495921E-01 -0.42734956609E-02 -0.10144723478E+00  0.11060496175E+00  0.51100000000E-03 0. -1.
</event>
<event>
 8    1  0.1150307E+005  0.1043930E+01  0.7957747E-01            NaN
         13   -1    0    0    0    0  0.00000000000E+00  0.00000000000E+00  0.74505805969E-08  0.10566000000E+00  0.10566000000E+00 0. -1.
     999900   -1    0    0    0    0 -0.00000000000E+00 -0.00000000000E+00 -0.74505805969E-08  0.93827000000E+00  0.93827000000E+00 0.  1.
     999902    2    1    2    0    0 -0.17808333434E-01 -0.33665223780E-02 -0.14131260348E-01  0.10209482087E+01  0.10206895131E+01 0.  0.
     999903    2    3    3    0    0 -0.11010852610E+00 -0.36141015116E-01 -0.65346539610E-01  0.13403417804E+00  0.16276675020E-01 0.  0.
         14    1    1    2    0    0  0.17808333434E-01  0.33665223780E-02  0.14131260348E-01  0.22981791306E-01  0.00000000000E+00 0. -1.
     999901    1    3    3    0    0  0.92300192669E-01  0.32774492738E-01  0.51215279263E-01  0.88691403065E+00  0.88000000000E+00 0. -1.
        -11    1    4    4    0    0 -0.88496077012E-01 -0.25064919228E-01 -0.57654566160E-01  0.10855466799E+00  0.51100000000E-03 0. -1.
         11    1    4    4    0    0 -0.21612449091E-01 -0.11076095887E-01 -0.76919734506E-02  0.25479510050E-01  0.51100000000E-03 0.  1.
</event>
<event>
 8    1  0.1150307E+005  0.1043930E+01  0.7957747E-01            NaN
         13   -1    0    0    0    0  0.00000000000E+00  0.00000000000E+00  0.74505805969E-08  0.10566000000E+00  0.10566000000E+00 0. -1.
     999900   -1    0    0    0    0 -0.00000000000E+00 -0.00000000000E+00 -0.74505805969E-08  0.93827000000E+00  0.93827000000E+00 0. -1.
     999902    2    1    2    0    0 -0.18991651141E-01 -0.11696343588E-01 -0.90167594400E-02  0.10198719615E+01  0.10195881662E+01 0.  0.
     999903    2    3    3    0    0  0.50611555296E-01  0.27366667598E-01 -0.11477720507E+00  0.12995297807E+00  0.20087450829E-01 0.  0.
         14    1    1    2    0    0  0.18991651141E-01  0.11696343588E-01  0.90167594400E-02  0.24058038515E-01  0.00000000000E+00 0. -1.
     999901    1    3    3    0    0 -0.69603206437E-01 -0.39063011186E-01  0.10576044563E+00  0.88991898342E+00  0.88000000000E+00 0.  1.
        -11    1    4    4    0    0  0.42127837159E-01  0.26093159230E-01 -0.79801631707E-01  0.93937048955E-01  0.51100000000E-03 0. -1.
         11    1    4    4    0    0  0.84837181368E-02  0.12735083677E-02 -0.34975573359E-01  0.36015929111E-01  0.51100000000E-03 0.  1.
</event>
<event>
 8    1  0.1150307E+005  0.1043930E+01  0.7957747E-01            NaN
         13   -1    0    0    0    0  0.00000000000E+00  0.00000000000E+00  0.74505805969E-08  0.10566000000E+00  0.10566000000E+00 0. -1.
     999900   -1    0    0    0    0 -0.00000000000E+00 -0.00000000000E+00 -0.74505805969E-08  0.93827000000E+00  0.93827000000E+00 0. -1.
     999902    2    1    2    0    0  0.15202558069E-01 -0.17580043279E-01 -0.52648985394E-02  0.10200994555E+01  0.10198210648E+01 0.  0.
     999903    2    3    3    0    0 -0.61082907448E-01  0.28565966342E-01  0.10742595979E+00  0.12844472638E+00  0.20262647467E-01 0.  0.
         14    1    1    2    0    0 -0.15202558069E-01  0.17580043279E-01  0.52648985394E-02  0.23830544479E-01  0.00000000000E+00 0. -1.
     999901    1    3    3    0    0  0.76285465516E-01 -0.46146009621E-01 -0.11269085833E+00  0.89165472914E+00  0.88000000000E+00 0. -1.
        -11    1    4    4    0    0 -0.44757394252E-01  0.19103069924E-01  0.59073467692E-01  0.76538142954E-01  0.51100000000E-03 0.  1.
         11    1    4    4    0    0 -0.16325513196E-01  0.94628964181E-02  0.48352492096E-01  0.51906583423E-01  0.51100000000E-03 0. -1.
</event>
<event>
 8    1  0.1150307E+005  0.1043930E+01  0.7957747E-01            NaN
         13   -1    0    0    0    0  0.00000000000E+00  0.00000000000E+00  0.74505805969E-08  0.10566000000E+00  0.10566000000E+00 0.  1.
     999900   -1    0    0    0    0 -0.00000000000E+00 -0.00000000000E+00 -0.74505805969E-08  0.93827000000E+00  0.93827000000E+00 0.  1.
     999902    2    1    2    0    0 -0.12820143145E-01  0.57749780592E-02 -0.18720467467E-01  0.10205171329E+01  0.10202485267E+01 0.  0.
     999903    2    3    3    0    0  0.81128941295E-01 -0.25695738012E-02  0.96893473465E-01  0.12795752969E+00  0.19906691817E-01 0.  0.
         14    1    1    2    0    0  0.12820143145E-01 -0.57749780592E-02  0.18720467467E-01  0.23412867062E-01  0.00000000000E+00 0.  1.
     999901    1    3    3    0    0 -0.93949084440E-01  0.83445518604E-02 -0.11561394093E+00  0.89255960325E+00  0.88000000000E+00 0.  1.
        -11    1    4    4    0    0  0.41176849706E-01 -0.29073976872E-03  0.33962223452E-01  0.53378939893E-01  0.51100000000E-03 0.  1.
         11    1    4    4    0    0  0.39952091589E-01 -0.22788340325E-02  0.62931250013E-01  0.74578589797E-01  0.51100000000E-03 0. -1.
</event>
<event>
 8    1  0.1150307E+005  0.1043930E+01  0.7957747E-01            NaN
         13   -1    0    0    0    0  0.00000000000E+00  0.00000000000E+00  0.74505805969E-08  0.10566000000E+00  0.10566000000E+00 0. -1.
     999900   -1    0    0    0    0 -0.00000000000E+00 -0.00000000000E+00 -0.74505805969E-08  0.93827000000E+00  0.93827000000E+00 0. -1.
     999902    2    1    2    0    0  0.10570359040E-01 -0.23185132955E-03 -0.21444582295E-01  0.10200206639E+01  0.10197404073E+01 0.  0.
     999903    2    3    3    0    0  0.70719226740E-01 -0.99540361800E-01  0.40747702825E-01  0.13021846849E+00  0.19671847725E-01 0.  0.
         14    1    1    2    0    0 -0.10570359040E-01  0.23185132955E-03  0.21444582295E-01  0.23909336148E-01  0.00000000000E+00 0. -1.
     999901    1    3    3    0    0 -0.60148867700E-01  0.99308510471E-01 -0.62192285120E-01  0.88980219536E+00  0.88000000000E+00 0. -1.
        -11    1    4    4    0    0  0.21346443879E-01 -0.46333001244E-01  0.19053213179E-01  0.54458275073E-01  0.51100000000E-03 0. -1.
         11    1    4    4    0    0  0.49372782862E-01 -0.53207360557E-01  0.21694489647E-01  0.75760193419E-01  0.51100000000E-03 0.  1.
</event>
<event>
 8    1  0.1150307E+005  0.1043930E+01  0.7957747E-01            NaN
         13   -1    0    0    0    0  0.00000000000E+00  0.00000000000E+00  0.74505805969E-08  0.10566000000E+00  0.10566000000E+00 0. -1.
     999900   -1    0    0    0    0 -0.00000000000E+00 -0.00000000000E+00 -0.74505805969E-08  0.93827000000E+00  0.93827000000E+00 0.  1.
     999902    2    1    2    0    0  0.12536600933E-02  0.23108362943E-01 -0.48287699810E-02  0.10202892487E+01  0.10200153263E+01 0.  0.
     999903    2    3    3    0    0  0.12023717919E+00 -0.28420313274E-01  0.34397052719E-01  0.12992362301E+00  0.20791755895E-01 0.  0.
         14    1    1    2    0    0 -0.12536600933E-02 -0.23108362943E-01  0.48287699810E-02  0.23640751279E-01  0.00000000000E+00 0.  1.
     999901    1    3    3    0    0 -0.11898351910E+00  0.51528676217E-01 -0.39225822700E-01  0.89036562572E+00  0.88000000000E+00 0.  1.
        -11    1    4    4    0    0  0.10051416519E+00 -0.25774641374E-01  0.20840333740E-01  0.10583954919E+00  0.51100000000E-03 0.  1.
         11    1    4    4    0    0  0.19723014003E-01 -0.26456718998E-02  0.13556718979E-01  0.24084073818E-01  0.51100000000E-03 0. -1.
</event>
<event>
 8    1  0.1150307E+005  0.1043930E+01  0.7957747E-01            NaN
         13   -1    0    0    0    0  0.00000000000E+00  0.00000000000E+00  0.74505805969E-08  0.10566000000E+00  0.10566000000E+00 0. -1.
     999900   -1    0    0    0    0 -0.00000000000E+00 -0.00000000000E+00 -0.74505805969E-08  0.93827000000E+00  0.93827000000E+00 0. -1.
     999902    2    1    2    0    0  0.89048451397E-02 -0.23929041777E-02  0.20442457385E-01  0.10215042041E+01  0.10212580099E+01 0.  0.
     999903    2    3    3    0    0 -0.12877239161E-01  0.80038873280E-01 -0.98786087752E-01  0.12938038809E+00  0.20212599166E-01 0.  0.
         14    1    1    2    0    0 -0.89048451397E-02  0.23929041777E-02 -0.20442457385E-01  0.22425795890E-01  0.00000000000E+00 0.  1.
     999901    1    3    3    0    0  0.21782084301E-01 -0.82431777458E-01  0.11922854514E+00  0.89212381602E+00  0.88000000000E+00 0.  1.
        -11    1    4    4    0    0 -0.12223712892E-01  0.29750864288E-01 -0.28663578891E-01  0.43085902087E-01  0.51100000000E-03 0. -1.
         11    1    4    4    0    0 -0.65352626874E-03  0.50288008992E-01 -0.70122508860E-01  0.86294486005E-01  0.51100000000E-03 0.  1.
</event>
<event>
 8    1  0.1150307E+005  0.1043930E+01  0.7957747E-01            NaN
         13   -1    0    0    0    0  0.00000000000E+00  0.00000000000E+00  0.74505805969E-08  0.10566000000E+00  0.10566000000E+00 0. -1.
     999900   -1    0    0    0    0 -0.00000000000E+00 -0.00000000000E+00 -0.74505805969E-08  0.93827000000E+00  0.93827000000E+00 0. -1.
     999902    2    1    2    0    0  0.22741179072E-01  0.57527279167E-02  0.75309365514E-02  0.10192932366E+01  0.10189954525E+01 0.  0.
     999903    2    3    3    0    0 -0.11268858375E+00 -0.54217974951E-01 -0.70945297341E-02  0.12679583600E+00  0.19711569210E-01 0.  0.
         14    1    1    2    0    0 -0.22741179072E-01 -0.57527279167E-02 -0.75309365514E-02  0.24636763371E-01  0.00000000000E+00 0.  1.
     999901    1    3    3    0    0  0.13542976282E+00  0.59970702868E-01  0.14625466285E-01  0.89249740063E+00  0.88000000000E+00 0.  1.
        -11    1    4    4    0    0 -0.94144624343E-01 -0.38705875680E-01 -0.10675209470E-01  0.10235026294E+00  0.51100000000E-03 0.  1.
         11    1    4    4    0    0 -0.18543959404E-01 -0.15512099271E-01  0.35806797361E-02  0.24445573066E-01  0.51100000000E-03 0. -1.
</event>
<event>
 7    1  0.1150307E+005  0.1043930E+01  0.7957747E-01            NaN
         13   -1    0    0    0    0  0.00000000000E+00  0.00000000000E+00  0.74505805969E-08  0.10566000000E+00  0.10566000000E+00 0.  1.
     999900   -1    0    0    0    0 -0.00000000000E+00 -0.00000000000E+00 -0.74505805969E-08  0.93827000000E+00  0.93827000000E+00 0. -1.
     999902    2    1    2    0    0 -0.21181092964E-01 -0.19285450920E-02  0.68408369108E-02  0.10215882222E+01  0.10213438895E+01 0.  0.
         14    1    1    2    0    0  0.21181092964E-01  0.19285450920E-02 -0.68408369108E-02  0.22341777793E-01  0.00000000000E+00 0. -1.
     999901    1    3    3    0    0 -0.77938428378E-01 -0.67244601830E-01  0.97513025152E-01  0.89135011369E+00  0.88000000000E+00 0.  1.
        -11    1    3    3    0    0  0.33536261772E-01  0.40835275641E-01 -0.29876803304E-01  0.60704901672E-01  0.51100000000E-03 0.  1.
         11    1    3    3    0    0  0.23221073642E-01  0.24480781097E-01 -0.60795384937E-01  0.69533206849E-01  0.51100000000E-03 0. -1.
</event>
<event>
 8    1  0.1150307E+005  0.1043930E+01  0.7957747E-01            NaN
         13   -1    0    0    0    0  0.00000000000E+00  0.00000000000E+00  0.74505805969E-08  0.10566000000E+00  0.10566000000E+00 0. -1.
     999900   -1    0    0    0    0 -0.00000000000E+00 -0.00000000000E+00 -0.74505805969E-08  0.93827000000E+00  0.93827000000E+00 0. -1.
     999902    2    1    2    0    0 -0.10597233949E-02  0.11306890915E-01 -0.21495821627E-01  0.10196187034E+01  0.10193288288E+01 0.  0.
     999903    2    3    3    0    0  0.89037940236E-01 -0.66724591632E-01  0.59521774093E-01  0.12789545479E+00  0.20844179885E-01 0.  0.
         14    1    1    2    0    0  0.10597233949E-02 -0.11306890915E-01  0.21495821627E-01  0.24311296619E-01  0.00000000000E+00 0. -1.
     999901    1    3    3    0    0 -0.90097663631E-01  0.78031482548E-01 -0.81017595720E-01  0.89172324859E+00  0.88000000000E+00 0. -1.
        -11    1    4    4    0    0  0.27209068966E-01 -0.25158295008E-01  0.30281033244E-01  0.47858910738E-01  0.51100000000E-03 0. -1.
         11    1    4    4    0    0  0.61828871270E-01 -0.41566296624E-01  0.29240740849E-01  0.80036544053E-01  0.51100000000E-03 0.  1.
</event>
<event>
 8    1  0.1150307E+005  0.1043930E+01  0.7957747E-01            NaN
         13   -1    0    0    0    0  0.00000000000E+00  0.00000000000E+00  0.74505805969E-08  0.10566000000E+00  0.10566000000E+00 0. -1.
     999900   -1    0    0    0    0 -0.00000000000E+00 -0.00000000000E+00 -0.74505805969E-08  0.93827000000E+00  0.93827000000E+00 0.  1.
     999902    2    1    2    0    0 -0.14325319407E-01  0.11635198681E-01 -0.13831316305E-01  0.10208670875E+01  0.10206065414E+01 0.  0.
     999903    2    3    3    0    0 -0.18730942449E-01 -0.69176565005E-01 -0.10917537534E+00  0.13202489659E+00  0.19366604980E-01 0.  0.
         14    1    1    2    0    0  0.14325319407E-01 -0.11635198681E-01  0.13831316305E-01  0.23062912547E-01  0.00000000000E+00 0. -1.
     999901    1    3    3    0    0  0.44056230425E-02  0.80811763686E-01  0.95344059033E-01  0.88884219086E+00  0.88000000000E+00 0. -1.
        -11    1    4    4    0    0 -0.42819200264E-02 -0.31082934418E-01 -0.63408597483E-01  0.70748816294E-01  0.51100000000E-03 0. -1.
         11    1    4    4    0    0 -0.14449022423E-01 -0.38093630587E-01 -0.45766777855E-01  0.61276080296E-01  0.51100000000E-03 0.  1.
</event>
<event>
 8    1  0.1150307E+005  0.1043930E+01  0.7957747E-01            NaN
         13   -1    0    0    0    0  0.00000000000E+00  0.00000000000E+00  0.74505805969E-08  0.10566000000E+00  0.10566000000E+00 0. -1.
     999900   -1    0    0    0    0 -0.00000000000E+00 -0.00000000000E+00 -0.74505805969E-08  0.93827000000E+00  0.93827000000E+00 0.  1.
     999902    2    1    2    0    0 -0.73404238053E-02  0.25313286722E-02 -0.23411919103E-01  0.10192640842E+01  0.10189655862E+01 0.  0.
     999903    2    3    3    0    0  0.19159854994E-01  0.12130956386E+00 -0.40455809162E-01  0.13072538041E+00  0.19218279368E-01 0.  0.
         14    1    1    2    0    0  0.73404238053E-02 -0.25313286722E-02  0.23411919103E-01  0.24665915807E-01  0.00000000000E+00 0. -1.
     999901    1    3    3    0    0 -0.26500278799E-01 -0.11877823519E+00  0.17043890059E-01  0.88853870378E+00  0.88000000000E+00 0.  1.
        -11    1    4    4    0    0 -0.34717231983E-03  0.40249928486E-01 -0.68559276955E-02  0.40834325479E-01  0.51100000000E-03 0. -1.
         11    1    4    4    0    0  0.19507027314E-01  0.81059635372E-01 -0.33599881467E-01  0.89891054932E-01  0.51100000000E-03 0.  1.
</event>
<event>
 8    1  0.1150307E+005  0.1043930E+01  0.7957747E-01            NaN
         13   -1    0    0    0    0  0.00000000000E+00  0.00000000000E+00  0.74505805969E-08  0.10566000000E+00  0.10566000000E+00 0. -1.
     999900   -1    0    0    0    0 -0.00000000000E+00 -0.00000000000E+00 -0.74505805969E-08  0.93827000000E+00  0.93827000000E+00 0. -1.
     999902    2    1    2    0    0 -0.42271872368E-02 -0.11064399142E-01  0.20721461863E-01  0.10200622598E+01  0.10197829891E+01 0.  0.
     999903    2    3    3    0    0  0.54319837931E-01 -0.10084585424E+00  0.63446193016E-01  0.13252980040E+00  0.20449877158E-01 0.  0.
         14    1    1    2    0    0  0.42271872368E-02  0.11064399142E-01 -0.20721461863E-01  0.23867740195E-01  0.00000000000E+00 0.  1.
     999901    1    3    3    0    0 -0.58547025168E-01  0.89781455103E-01 -0.42724731154E-01  0.88753245940E+00  0.88000000000E+00 0.  1.
        -11    1    4    4    0    0  0.36531074278E-01 -0.69377420121E-01  0.32263809392E-01  0.84787736896E-01  0.51100000000E-03 0. -1.
         11    1    4    4    0    0  0.17788763653E-01 -0.31468434124E-01  0.31182383625E-01  0.47742063508E-01  0.51100000000E-03 0.  1.
</event>
<event>
 8    1  0.1150307E+005  0.1043930E+01  0.7957747E-01            NaN
         13   -1    0    0    0    0  0.00000000000E+00  0.00000000000E+00  0.74505805969E-08  0.10566000000E+00  0.10566000000E+00 0. -1.
     999900   -1    0    0    0    0 -0.00000000000E+00 -0.00000000000E+00 -0.74505805969E-08  0.93827000000E+00  0.93827000000E+00 0.  1.
     999902    2    1    2    0    0 -0.13127076015E-01 -0.26526422270E-02 -0.20328186361E-01  0.10195867916E+01  0.10192961463E+01 0.  0.
     999903    2    3    3    0    0  0.89539047220E-01 -0.43698164939E-01  0.76850154399E-01  0.12735997193E+00  0.19693796536E-01 0.  0.
         14    1    1    2    0    0  0.13127076015E-01  0.26526422270E-02  0.20328186361E-01  0.24343208421E-01  0.00000000000E+00 0. -1.
     999901    1    3    3    0    0 -0.10266612323E+00  0.41045522712E-01 -0.97178340760E-01  0.89222681965E+00  0.88000000000E+00 0.  1.
        -11    1    4    4    0    0  0.76758992131E-01 -0.28998099666E-01  0.61097668754E-01  0.10230356253E+00  0.51100000000E-03 0.  1.
         11    1    4    4    0    0  0.12780055089E-01 -0.14700065273E-01  0.15752485645E-01  0.25056409401E-01  0.51100000000E-03 0. -1.
</event>
<event>
 8    1  0.1150307E+005  0.1043930E+01  0.7957747E-01            NaN
         13   -1    0    0    0    0  0.00000000000E+00  0.00000000000E+00  0.74505805969E-08  0.10566000000E+00  0.10566000000E+00 0.  1.
     999900   -1    0    0    0    0 -0.00000000000E+00 -0.00000000000E+00 -0.74505805969E-08  0.93827000000E+00  0.93827000000E+00 0. -1.
     999902    2    1    2    0    0 -0.72758525024E-02  0.17796962033E-01  0.15738196042E-01  0.10190832557E+01  0.10187803106E+01 0.  0.
     999903    2    3    3    0    0  0.54036913125E-01  0.11427409484E+00 -0.25468585536E-01  0.13073361101E+00  0.21542318036E-01 0.  0.
         14    1    1    2    0    0  0.72758525024E-02 -0.17796962033E-01 -0.15738196042E-01  0.24846744292E-01  0.00000000000E+00 0. -1.
     999901    1    3    3    0    0 -0.61312765627E-01 -0.96477132811E-01  0.41206781578E-01  0.88834964470E+00  0.88000000000E+00 0.  1.
        -11    1    4    4    0    0  0.19984100249E-01  0.46862358162E-01 -0.20903564501E-01  0.55069637779E-01  0.51100000000E-03 0. -1.
         11    1    4    4    0    0  0.34052812876E-01  0.67411736683E-01 -0.45650210352E-02  0.75663973233E-01  0.51100000000E-03 0.  1.
</event>
<event>
 8    1  0.1150307E+005  0.1043930E+01  0.7957747E-01            NaN
         13   -1    0    0    0    0  0.00000000000E+00  0.00000000000E+00  0.74505805969E-08  0.10566000000E+00  0.10566000000E+00 0.  1.
     999900   -1    0    0    0    0 -0.00000000000E+00 -0.00000000000E+00 -0.74505805969E-08  0.93827000000E+00  0.93827000000E+00 0. -1.
     999902    2    1    2    0    0  0.11812529015E-01  0.57505850081E-02  0.18018553593E-01  0.10216303735E+01  0.10213869720E+01 0.  0.
     999903    2    3    3    0    0  0.79698024955E-01  0.89805961843E-01 -0.52180200947E-01  0.13224765941E+00  0.18702515452E-01 0.  0.
         14    1    1    2    0    0 -0.11812529015E-01 -0.57505850081E-02 -0.18018553593E-01  0.22299626528E-01  0.00000000000E+00 0. -1.
     999901    1    3    3    0    0 -0.67885495940E-01 -0.84055376835E-01  0.70198754540E-01  0.88938271406E+00  0.88000000000E+00 0.  1.
        -11    1    4    4    0    0  0.11575854621E-01  0.13935776029E-01 -0.98437795272E-03  0.18150382495E-01  0.51100000000E-03 0. -1.
         11    1    4    4    0    0  0.68122170334E-01  0.75870185814E-01 -0.51195822994E-01  0.11409727692E+00  0.51100000000E-03 0.  1.
</event>
<event>
 8    1  0.1150307E+005  0.1043930E+01  0.7957747E-01            NaN
         13   -1    0    0    0    0  0.00000000000E+00  0.00000000000E+00  0.74505805969E-08  0.10566000000E+00  0.10566000000E+00 0. -1.
     999900   -1    0    0    0    0 -0.00000000000E+00 -0.00000000000E+00 -0.74505805969E-08  0.93827000000E+00  0.93827000000E+00 0.  1.
     999902    2    1    2    0    0  0.89821600931E-02  0.18855156616E-01  0.85940430671E-02  0.10213456314E+01  0.10210959039E+01 0.  0.
     999903    2    3    3    0    0  0.32931730428E-01 -0.94891266141E-01  0.81361154025E-01  0.13072400403E+00  0.19500681728E-01 0.  0.
         14    1    1    2    0    0 -0.89821600931E-02 -0.18855156616E-01 -0.85940430671E-02  0.22584368647E-01  0.00000000000E+00 0. -1.
     999901    1    3    3    0    0 -0.23949570334E-01  0.11374642276E+00 -0.72767110958E-01  0.89062162732E+00  0.88000000000E+00 0. -1.
        -11    1    4    4    0    0  0.14697255866E-01 -0.21819850546E-01  0.27991180931E-01  0.38417216697E-01  0.51100000000E-03 0.  1.
         11    1    4    4    0    0  0.18234474562E-01 -0.73071415595E-01  0.53369973094E-01  0.92306787338E-01  0.51100000000E-03 0. -1.
</event>
<event>
 8    1  0.1150307E+005  0.1043930E+01  0.7957747E-01            NaN
         13   -1    0    0    0    0  0.00000000000E+00  0.00000000000E+00  0.74505805969E-08  0.10566000000E+00  0.10566000000E+00 0.  1.
     999900   -1    0    0    0    0 -0.00000000000E+00 -0.00000000000E+00 -0.74505805969E-08  0.93827000000E+00  0.93827000000E+00 0.  1.
     999902    2    1    2    0    0  0.94745292366E-02  0.19878554292E-02  0.21239545652E-01  0.10205882654E+01  0.10203213077E+01 0.  0.
     999903    2    3    3    0    0  0.70685407215E-02  0.11524494261E+00 -0.56249157458E-01  0.12994947462E+00  0.19787298314E-01 0.  0.
         14    1    1    2    0    0 -0.94745292366E-02 -0.19878554292E-02 -0.21239545652E-01  0.23341734575E-01  0.00000000000E+00 0. -1.
     999901    1    3    3    0    0  0.24059885152E-02 -0.11325708718E+00  0.77488703110E-01  0.89063879081E+00  0.88000000000E+00 0. -1.
        -11    1    4    4    0    0  0.10162134745E-01  0.54037289631E-01 -0.34515496508E-01  0.64922093877E-01  0.51100000000E-03 0. -1.
         11    1    4    4    0    0 -0.30935940234E-02  0.61207652977E-01 -0.21733660950E-01  0.65027380743E-01  0.51100000000E-03 0.  1.
</event>
<event>
 8    1  0.1150307E+005  0.1043930E+01  0.7957747E-01            NaN
         13   -1    0    0    0    0  0.00000000000E+00  0.00000000000E+00  0.74505805969E-08  0.10566000000E+00  0.10566000000E+00 0. -1.
     999900   -1    0    0    0    0 -0.00000000000E+00 -0.00000000000E+00 -0.74505805969E-08  0.93827000000E+00  0.93827000000E+00 0.  1.
     999902    2    1    2    0    0  0.81706003835E-02 -0.22085903495E-01 -0.55301953167E-02  0.10197405621E+01  0.10194536209E+01 0.  0.
     999903    2    3    3    0    0 -0.44123279767E-01 -0.12167453214E-01 -0.12069845477E+00  0.13064171862E+00  0.20105494889E-01 0.  0.
         14    1    1    2    0    0 -0.81706003835E-02  0.22085903495E-01  0.55301953167E-02  0.24189437862E-01  0.00000000000E+00 0. -1.
     999901    1    3    3    0    0  0.52293880151E-01 -0.99184502816E-02  0.11516825946E+00  0.88909884352E+00  0.88000000000E+00 0. -1.
        -11    1    4    4    0    0 -0.83233655259E-02 -0.89446662388E-02 -0.17404799856E-01  0.21271427945E-01  0.51100000000E-03 0. -1.
         11    1    4    4    0    0 -0.35799914241E-01 -0.32227869748E-02 -0.10329365492E+00  0.10937029068E+00  0.51100000000E-03 0.  1.
</event>
<event>
 8    1  0.1150307E+005  0.1043930E+01  0.7957747E-01            NaN
         13   -1    0    0    0    0  0.00000000000E+00  0.00000000000E+00  0.74505805969E-08  0.10566000000E+00  0.10566000000E+00 0. -1.
     999900   -1    0    0    0    0 -0.00000000000E+00 -0.00000000000E+00 -0.74505805969E-08  0.93827000000E+00  0.93827000000E+00 0. -1.
     999902    2    1    2    0    0 -0.11170435817E-01  0.20804724910E-01 -0.23347542274E-02  0.10202009821E+01  0.10199249862E+01 0.  0.
     999903    2    3    3    0    0 -0.84865307394E-01 -0.58399571834E-01 -0.77260392316E-01  0.13041555514E+00  0.20649901036E-01 0.  0.
         14    1    1    2    0    0  0.11170435817E-01 -0.20804724910E-01  0.23347542274E-02  0.23729017936E-01  0.00000000000E+00 0. -1.
     999901    1    3    3    0    0  0.73694871577E-01  0.79204296744E-01  0.74925638089E-01  0.88978542692E+00  0.88000000000E+00 0.  1.
        -11    1    4    4    0    0 -0.53373290801E-01 -0.39852906842E-01 -0.61321452488E-01  0.90540289435E-01  0.51100000000E-03 0. -1.
         11    1    4    4    0    0 -0.31492016592E-01 -0.18546664992E-01 -0.15938939828E-01  0.39875265707E-01  0.51100000000E-03 0.  1.
</event>
<event>
 8    1  0.1150307E+005  0.1043930E+01  0.7957747E-01            NaN
         13   -1    0    0    0    0  0.00000000000E+00  0.00000000000E+00  0.74505805969E-08  0.10566000000E+00  0.10566000000E+00 0.  1.
     999900   -1    0    0    0    0 -0.00000000000E+00 -0.00000000000E+00 -0.74505805969E-08  0.93827000000E+00  0.93827000000E+00 0.  1.
     999902    2    1    2    0    0  0.66205605942E-02 -0.21576362823E-01 -0.76481660158E-02  0.10201000672E+01  0.10198216910E+01 0.  0.
     999903    2    3    3    0    0  0.10903900113E+00  0.66177973954E-01  0.11961318256E-01  0.12960869020E+00  0.19654806942E-01 0.  0.
         14    1    1    2    0    0 -0.66205605942E-02  0.21576362823E-01  0.76481660158E-02  0.23829932829E-01  0.00000000000E+00 0.  1.
     999901    1    3    3    0    0 -0.10241844054E+00 -0.87754336777E-01 -0.19609484272E-01  0.89049137697E+00  0.88000000000E+00 0.  1.
        -11    1    4    4    0    0  0.55356436739E-01  0.28050563157E-01 -0.28179590466E-02  0.62123837583E-01  0.51100000000E-03 0. -1.
         11    1    4    4    0    0  0.53682564396E-01  0.38127410797E-01  0.14779277303E-01  0.67484852618E-01  0.51100000000E-03 0.  1.
</event>
<event>
 8    1  0.1150307E+005  0.1043930E+01  0.7957747E-01            NaN
         13   -1    0    0    0    0  0.00000000000E+00  0.00000000000E+00  0.74505805969E-08  0.10566000000E+00  0.10566000000E+00 0. -1.
     999900   -1    0    0    0    0 -0.00000000000E+00 -0.00000000000E+00 -0.74505805969E-08  0.93827000000E+00  0.93827000000E+00 0.  1.
     999902    2    1    2    0    0  0.15064106457E-01 -0.14853757950E-01  0.71991542336E-02  0.10215829812E+01  0.10213385326E+01 0.  0.
     999903    2    3    3    0    0 -0.74668926818E-02 -0.91225610082E-01  0.95258654422E-01  0.13361069485E+00  0.19993501785E-01 0.  0.
         14    1    1    2    0    0 -0.15064106457E-01  0.14853757950E-01 -0.71991542336E-02  0.22347018823E-01  0.00000000000E+00 0.  1.
     999901    1    3    3    0    0  0.22530999139E-01  0.76371852132E-01 -0.88059500188E-01  0.88797228633E+00  0.88000000000E+00 0.  1.
        -11    1    4    4    0    0 -0.10363565386E-01 -0.23370188520E-01  0.30033978776E-01  0.39444520546E-01  0.51100000000E-03 0. -1.
         11    1    4    4    0    0  0.28966727038E-02 -0.67855421562E-01  0.65224675646E-01  0.94166174300E-01  0.51100000000E-03 0.  1.
</event>
<event>
 8    1  0.1150307E+005  0.1043930E+01  0.7957747E-01            NaN
         13   -1    0    0    0    0  0.00000000000E+00  0.00000000000E+00  0.74505805969E-08  0.10566000000E+00  0.10566000000E+00 0.  1.
     999900   -1    0    0    0    0 -0.00000000000E+00 -0.00000000000E+00 -0.74505805969E-08  0.93827000000E+00  0.93827000000E+00 0.  1.
     999902    2    1    2    0    0 -0.16456709295E-01  0.46912276413E-02  0.16161614447E-01  0.10203921862E+01  0.10201206718E+01 0.  0.
     999903    2    3    3    0    0  0.38532684972E-01  0.53690820960E-01  0.11268644617E+00  0.13205563016E+00  0.19312748135E-01 0.  0.
         14    1    1    2    0    0  0.16456709295E-01 -0.46912276413E-02 -0.16161614447E-01  0.23537813814E-01  0.00000000000E+00 0. -1.
     999901    1    3    3    0    0 -0.54989394268E-01 -0.48999593319E-01 -0.96524831724E-01  0.88833655602E+00  0.88000000000E+00 0. -1.
        -11    1    4    4    0    0  0.37820267516E-01  0.47752016831E-01  0.90655076171E-01  0.10922102226E+00  0.51100000000E-03 0.  1.
         11    1    4    4    0    0  0.71241745609E-03  0.59388041290E-02  0.22031370000E-01  0.22834607905E-01  0.51100000000E-03 0. -1.
</event>
<event>
 8    1  0.1150307E+005  0.1043930E+01  0.7957747E-01            NaN
         13   -1    0    0    0    0  0.00000000000E+00  0.00000000000E+00  0.74505805969E-08  0.10566000000E+00  0.10566000000E+00 0. -1.
     999900   -1    0    0    0    0 -0.00000000000E+00 -0.00000000000E+00 -0.74505805969E-08  0.93827000000E+00  0.93827000000E+00 0. -1.
     999902    2    1    2    0    0 -0.18948474330E-01 -0.23082456763E-02 -0.14253436548E-01  0.10201070461E+01  0.10198288349E+01 0.  0.
     999903    2    3    3    0    0  0.67412473654E-01  0.10636168417E+00 -0.21177195002E-01  0.12920003335E+00  0.19670423640E-01 0.  0.
         14    1    1    2    0    0  0.18948474330E-01  0.23082456763E-02  0.14253436548E-01  0.23822953867E-01  0.00000000000E+00 0. -1.
     999901    1    3    3    0    0 -0.86360947984E-01 -0.10866992985E+00  0.69237584545E-02  0.89090701278E+00  0.88000000000E+00 0.  1.
        -11    1    4    4    0    0  0.34674037768E-01  0.38483333249E-01 -0.43755843998E-02  0.51987139688E-01  0.51100000000E-03 0. -1.
         11    1    4    4    0    0  0.32738435886E-01  0.67878350923E-01 -0.16801610602E-01  0.77212893665E-01  0.51100000000E-03 0.  1.
</event>
<event>
 8    1  0.1150307E+005  0.1043930E+01  0.7957747E-01            NaN
         13   -1    0    0    0    0  0.00000000000E+00  0.00000000000E+00  0.74505805969E-08  0.10566000000E+00  0.10566000000E+00 0. -1.
     999900   -1    0    0    0    0 -0.00000000000E+00 -0.00000000000E+00 -0.74505805969E-08  0.93827000000E+00  0.93827000000E+00 0. -1.
     999902    2    1    2    0    0  0.54765143457E-02  0.13382854034E-01  0.18550543694E-01  0.10204094630E+01  0.10201383516E+01 0.  0.
     999903    2    3    3    0    0 -0.40512803267E-01 -0.10428863598E+00 -0.59129908795E-01  0.12799932765E+00  0.19237331998E-01 0.  0.
         14    1    1    2    0    0 -0.54765143457E-02 -0.13382854034E-01 -0.18550543694E-01  0.23520537043E-01  0.00000000000E+00 0.  1.
     999901    1    3    3    0    0  0.45989317613E-01  0.11767149001E+00  0.77680452488E-01  0.89241013531E+00  0.88000000000E+00 0. -1.
        -11    1    4    4    0    0 -0.21330115221E-01 -0.50154307454E-01 -0.18161454506E-01  0.57450221256E-01  0.51100000000E-03 0.  1.
         11    1    4    4    0    0 -0.19182688046E-01 -0.54134328524E-01 -0.40968454289E-01  0.70549106396E-01  0.51100000000E-03 0. -1.
</event>
<event>
 8    1  0.1150307E+005  0.1043930E+01  0.7957747E-01            NaN
         13   -1    0    0    0    0  0.00000000000E+00  0.00000000000E+00  0.74505805969E-08  0.10566000000E+00  0.10566000000E+00 0. -1.
     999900   -1    0    0    0    0 -0.00000000000E+00 -0.00000000000E+00 -0.74505805969E-08  0.93827000000E+00  0.93827000000E+00 0.  1.
     999902    2    1    2    0    0  0.18319097790E-01  0.15164793649E-01  0.55998292946E-02  0.10194980865E+01  0.10192052933E+01 0.  0.
     999903    2    3    3    0    0  0.12623274207E+00 -0.26192590304E-01 -0.17779320811E-01  0.13163414843E+00  0.19765824743E-01 0.  0.
         14    1    1    2    0    0 -0.18319097790E-01 -0.15164793649E-01 -0.55998292946E-02  0.24431913523E-01  0.00000000000E+00 0.  1.
     999901    1    3    3    0    0 -0.10791364427E+00  0.41357383953E-01  0.23379150106E-01  0.88786393805E+00  0.88000000000E+00 0.  1.
        -11    1    4    4    0    0  0.11188508640E+00 -0.26564915852E-01 -0.21043746390E-01  0.11690623464E+00  0.51100000000E-03 0. -1.
         11    1    4    4    0    0  0.14347655662E-01  0.37232554762E-03  0.32644255789E-02  0.14727913792E-01  0.51100000000E-03 0.  1.
</event>
<event>
 8    1  0.1150307E+005  0.1043930E+01  0.7957747E-01            NaN
         13   -1    0    0    0    0  0.00000000000E+00  0.00000000000E+00  0.74505805969E-08  0.10566000000E+00  0.10566000000E+00 0. -1.
     999900   -1    0    0    0    0 -0.00000000000E+00 -0.00000000000E+00 -0.74505805969E-08  0.93827000000E+00  0.93827000000E+00 0. -1.
     999902    2    1    2    0    0  0.21808810142E-01 -0.61055766758E-02 -0.13970289017E-01  0.10173203919E+01  0.10169723244E+01 0.  0.
     999903    2    3    3    0    0 -0.12084397317E+00 -0.23098706441E-02 -0.28655913802E-01  0.12570394326E+00  0.19280005222E-01 0.  0.
         14    1    1    2    0    0 -0.21808810142E-01  0.61055766758E-02  0.13970289017E-01  0.26609608068E-01  0.00000000000E+00 0. -1.
     999901    1    3    3    0    0  0.14265278331E+00 -0.37957060316E-02  0.14685624785E-01  0.89161644867E+00  0.88000000000E+00 0.  1.
        -11    1    4    4    0    0 -0.56222460420E-01 -0.31309317247E-03 -0.35212851446E-02  0.56335811462E-01  0.51100000000E-03 0.  1.
         11    1    4    4    0    0 -0.64621512748E-01 -0.19967774716E-02 -0.25134628658E-01  0.69368131796E-01  0.51100000000E-03 0. -1.
</event>
<event>
 8    1  0.1150307E+005  0.1043930E+01  0.7957747E-01            NaN
         13   -1    0    0    0    0  0.00000000000E+00  0.00000000000E+00  0.74505805969E-08  0.10566000000E+00  0.10566000000E+00 0.  1.
     999900   -1    0    0    0    0 -0.00000000000E+00 -0.00000000000E+00 -0.74505805969E-08  0.93827000000E+00  0.93827000000E+00 0. -1.
     999902    2    1    2    0    0 -0.10428763070E-01 -0.76839212623E-02  0.20600286170E-01  0.10195953840E+01  0.10193049463E+01 0.  0.
     999903    2    3    3    0    0 -0.12847290593E+00 -0.88200579176E-02  0.18878666270E-01  0.13171100277E+00  0.20206514544E-01 0.  0.
         14    1    1    2    0    0  0.10428763070E-01  0.76839212623E-02 -0.20600286170E-01  0.24334615991E-01  0.00000000000E+00 0.  1.
     999901    1    3    3    0    0  0.11804414286E+00  0.11361366553E-02  0.17216199006E-02  0.88788438124E+00  0.88000000000E+00 0. -1.
        -11    1    4    4    0    0 -0.99749151667E-01 -0.15246450413E-01  0.15034572202E-01  0.10202277682E+00  0.51100000000E-03 0.  1.
         11    1    4    4    0    0 -0.28723754267E-01  0.64263924957E-02  0.38440940676E-02  0.29688225948E-01  0.51100000000E-03 0. -1.
</event>
<event>
 8    1  0.1150307E+005  0.1043930E+01  0.7957747E-01            NaN
         13   -1    0    0    0    0  0.00000000000E+00  0.00000000000E+00  0.74505805969E-08  0.10566000000E+00  0.10566000000E+00 0.  1.
     999900   -1    0    0    0    0 -0.00000000000E+00 -0.00000000000E+00 -0.74505805969E-08  0.93827000000E+00  0.93827000000E+00 0.  1.
     999902    2    1    2    0    0 -0.16424295995E-01 -0.17722198996E-01  0.60601935034E-02  0.10190189627E+01  0.10187144283E+01 0.  0.
     999903    2    3    3    0    0  0.25857130886E-01 -0.40047423218E-01 -0.11825118311E+00  0.12899679830E+00  0.19607252251E-01 0.  0.
         14    1    1    2    0    0  0.16424295995E-01  0.17722198996E-01 -0.60601935034E-02  0.24911037343E-01  0.00000000000E+00 0.  1.
     999901    1    3    3    0    0 -0.42281426881E-01  0.22325224222E-01  0.12431137661E+00  0.89002216436E+00  0.88000000000E+00 0. -1.
        -11    1    4    4    0    0  0.82321086344E-02 -0.30153611909E-01 -0.68623339103E-01  0.75408432647E-01  0.51100000000E-03 0. -1.
         11    1    4    4    0    0  0.17625022252E-01 -0.98938113095E-02 -0.49627844005E-01  0.53588365651E-01  0.51100000000E-03 0.  1.
</event>
<event>
 8    1  0.1150307E+005  0.1043930E+01  0.7957747E-01            NaN
         13   -1    0    0    0    0  0.00000000000E+00  0.00000000000E+00  0.74505805969E-08  0.10566000000E+00  0.10566000000E+00 0. -1.
     999900   -1    0    0    0    0 -0.00000000000E+00 -0.00000000000E+00 -0.74505805969E-08  0.93827000000E+00  0.93827000000E+00 0. -1.
     999902    2    1    2    0    0 -0.13374317313E-01 -0.15797776748E-01  0.10549673269E-01  0.10206977440E+01  0.10204333133E+01 0.  0.
     999903    2    3    3    0    0 -0.65343308814E-01 -0.82232590675E-01 -0.77516041417E-01  0.13228909325E+00  0.21441094684E-01 0.  0.
         14    1    1    2    0    0  0.13374317313E-01  0.15797776748E-01 -0.10549673269E-01  0.23232256022E-01  0.00000000000E+00 0.  1.
     999901    1    3    3    0    0  0.51968991501E-01  0.66434813926E-01  0.88065714686E-01  0.88840865072E+00  0.88000000000E+00 0.  1.
        -11    1    4    4    0    0 -0.12048837887E-01 -0.22341735116E-01 -0.93503114089E-02  0.27055813920E-01  0.51100000000E-03 0.  1.
         11    1    4    4    0    0 -0.53294470927E-01 -0.59890855559E-01 -0.68165730008E-01  0.10523327933E+00  0.51100000000E-03 0. -1.
</event>
<event>
 8    1  0.1150307E+005  0.1043930E+01  0.7957747E-01            NaN
         13   -1    0    0    0    0  0.00000000000E+00  0.00000000000E+00  0.74505805969E-08  0.10566000000E+00  0.10566000000E+00 0. -1.
     999900   -1    0    0    0    0 -0.00000000000E+00 -0.00000000000E+00 -0.74505805969E-08  0.93827000000E+00  0.93827000000E+00 0.  1.
     999902    2    1    2    0    0  0.10778966806E-01 -0.20705240827E-01  0.17549738089E-02  0.10205211757E+01  0.10202526633E+01 0.  0.
     999903    2    3    3    0    0  0.62289477032E-02  0.11574440821E+00 -0.51325453324E-01  0.12841314346E+00  0.20495497905E-01 0.  0.
         14    1    1    2    0    0 -0.10778966806E-01  0.20705240827E-01 -0.17549738089E-02  0.23408824323E-01  0.00000000000E+00 0.  1.
     999901    1    3    3    0    0  0.45500191030E-02 -0.13644964903E+00  0.53080427133E-01  0.89210803221E+00  0.88000000000E+00 0. -1.
        -11    1    4    4    0    0 -0.68600474462E-02  0.58547681929E-01 -0.28118878556E-01  0.65313274015E-01  0.51100000000E-03 0.  1.
         11    1    4    4    0    0  0.13088995149E-01  0.57196726278E-01 -0.23206574768E-01  0.63099869448E-01  0.51100000000E-03 0. -1.
</event>
<event>
 8    1  0.1150307E+005  0.1043930E+01  0.7957747E-01            NaN
         13   -1    0    0    0    0  0.00000000000E+00  0.00000000000E+00  0.74505805969E-08  0.10566000000E+00  0.10566000000E+00 0.  1.
     999900   -1    0    0    0    0 -0.00000000000E+00 -0.00000000000E+00 -0.74505805969E-08  0.93827000000E+00  0.93827000000E+00 0. -1.
     999902    2    1    2    0    0 -0.76883098610E-02  0.77793097555E-02 -0.21049599055E-01  0.10202084193E+01  0.10199325985E+01 0.  0.
     999903    2    3    3    0    0  0.10956402223E+00  0.51703595568E-01  0.37701099516E-01  0.12940591774E+00  0.25435838519E-01 0.  0.
         14    1    1    2    0    0  0.76883098610E-02 -0.77793097555E-02  0.21049599055E-01  0.23721580663E-01  0.00000000000E+00 0.  1.
     999901    1    3    3    0    0 -0.11725233209E+00 -0.43924285812E-01 -0.58750698571E-01  0.89080250159E+00  0.88000000000E+00 0. -1.
        -11    1    4    4    0    0  0.85654331168E-01  0.31343124616E-01  0.20088134028E-01  0.93396199914E-01  0.51100000000E-03 0. -1.
         11    1    4    4    0    0  0.23909691058E-01  0.20360470951E-01  0.17612965488E-01  0.36009717829E-01  0.51100000000E-03 0.  1.
</event>
<event>
 8    1  0.1322077E+005  0.1043930E+01  0.7957747E-01            NaN
         13   -1    0    0    0    0  0.00000000000E+00  0.00000000000E+00  0.74505805969E-08  0.10566000000E+00  0.10566000000E+00 0.  1.
     999900   -1    0    0    0    0 -0.00000000000E+00 -0.00000000000E+00 -0.74505805969E-08  0.93827000000E+00  0.93827000000E+00 0.  1.
     999902    2    1    2    0    0 -0.22482640516E-01  0.22113751785E-02  0.97658021189E-02  0.10193184134E+01  0.10190212450E+01 0.  0.
     999903    2    3    3    0    0  0.50975096272E-01 -0.11718125899E+00  0.15016436392E-03  0.12817134321E+00  0.98976144293E-02 0.  0.
         14    1    1    2    0    0  0.22482640516E-01 -0.22113751785E-02 -0.97658021189E-02  0.24611586616E-01  0.00000000000E+00 0. -1.
     999901    1    3    3    0    0 -0.73457736788E-01  0.11939263417E+00  0.96156377550E-02  0.89114707017E+00  0.88000000000E+00 0.  1.
        -11    1    4    4    0    0  0.32142759246E-01 -0.62192124938E-01  0.15803932024E-02  0.70026967234E-01  0.51100000000E-03 0.  1.
         11    1    4    4    0    0  0.18832337026E-01 -0.54989134057E-01 -0.14302288385E-02  0.58144375977E-01  0.51100000000E-03 0. -1.
</event>
<event>
 8    1  0.1150307E+005  0.1043930E+01  0.7957747E-01            NaN
         13   -1    0    0    0    0  0.00000000000E+00  0.00000000000E+00  0.74505805969E-08  0.10566000000E+00  0.10566000000E+00 0.  1.
     999900   -1    0    0    0    0 -0.00000000000E+00 -0.00000000000E+00 -0.74505805969E-08  0.93827000000E+00  0.93827000000E+00 0.  1.
     999902    2    1    2    0    0  0.10792745146E-01 -0.69341418941E-02  0.18281214225E-01  0.10215968752E+01  0.10213527338E+01 0.  0.
     999903    2    3    3    0    0 -0.39042668950E-01  0.62395468093E-01  0.10901770380E+00  0.13282059630E+00  0.18409959868E-01 0.  0.
         14    1    1    2    0    0 -0.10792745146E-01  0.69341418941E-02 -0.18281214225E-01  0.22333124841E-01  0.00000000000E+00 0. -1.
     999901    1    3    3    0    0  0.49835414096E-01 -0.69329609987E-01 -0.90736489577E-01  0.88877627886E+00  0.88000000000E+00 0. -1.
        -11    1    4    4    0    0 -0.14088817112E-01  0.12996934696E-01  0.18019351476E-01  0.26312985914E-01  0.51100000000E-03 0.  1.
         11    1    4    4    0    0 -0.24953851838E-01  0.49398533397E-01  0.90998352327E-01  0.10650761039E+00  0.51100000000E-03 0. -1.
</event>
<event>
 8    1  0.1150307E+005  0.1043930E+01  0.7957747E-01            NaN
         13   -1    0    0    0    0  0.00000000000E+00  0.00000000000E+00  0.74505805969E-08  0.10566000000E+00  0.10566000000E+00 0.  1.
     999900   -1    0    0    0    0 -0.00000000000E+00 -0.00000000000E+00 -0.74505805969E-08  0.93827000000E+00  0.93827000000E+00 0. -1.
     999902    2    1    2    0    0  0.31739478353E-02 -0.15556043628E-01  0.17186841373E-01  0.10205323088E+01  0.10202640547E+01 0.  0.
     999903    2    3    3    0    0 -0.11258949064E+00 -0.31165952013E-01 -0.53336315895E-01  0.13001652641E+00  0.20293461475E-01 0.  0.
         14    1    1    2    0    0 -0.31739478353E-02  0.15556043628E-01 -0.17186841373E-01  0.23397691224E-01  0.00000000000E+00 0. -1.
     999901    1    3    3    0    0  0.11576343848E+00  0.15609908385E-01  0.70523157268E-01  0.89051578236E+00  0.88000000000E+00 0.  1.
        -11    1    4    4    0    0 -0.53943944303E-01 -0.92906719299E-02 -0.15572282642E-01  0.56912413580E-01  0.51100000000E-03 0. -1.
         11    1    4    4    0    0 -0.58645546341E-01 -0.21875280083E-01 -0.37764033253E-01  0.73104112832E-01  0.51100000000E-03 0.  1.
</event>
<event>
 8    1  0.1150307E+005  0.1043930E+01  0.7957747E-01            NaN
         13   -1    0    0    0    0  0.00000000000E+00  0.00000000000E+00  0.74505805969E-08  0.10566000000E+00  0.10566000000E+00 0. -1.
     999900   -1    0    0    0    0 -0.00000000000E+00 -0.00000000000E+00 -0.74505805969E-08  0.93827000000E+00  0.93827000000E+00 0. -1.
     999902    2    1    2    0    0  0.11718358625E-01  0.79417620401E-02  0.19050926718E-01  0.10201954403E+01  0.10199193141E+01 0.  0.
     999903    2    3    3    0    0 -0.41601860385E-01  0.91334701623E-02 -0.11881189591E+00  0.12786667594E+00  0.20481336420E-01 0.  0.
         14    1    1    2    0    0 -0.11718358625E-01 -0.79417620401E-02 -0.19050926718E-01  0.23734559654E-01  0.00000000000E+00 0.  1.
     999901    1    3    3    0    0  0.53320219009E-01 -0.11917081223E-02  0.13786282263E+00  0.89232876441E+00  0.88000000000E+00 0.  1.
        -11    1    4    4    0    0 -0.26235801464E-01  0.15433475116E-01 -0.82372831908E-01  0.87818300998E-01  0.51100000000E-03 0.  1.
         11    1    4    4    0    0 -0.15366058920E-01 -0.63000049537E-02 -0.36439064002E-01  0.40048374942E-01  0.51100000000E-03 0. -1.
</event>
<event>
 8    1  0.1150307E+005  0.1043930E+01  0.7957747E-01            NaN
         13   -1    0    0    0    0  0.00000000000E+00  0.00000000000E+00  0.74505805969E-08  0.10566000000E+00  0.10566000000E+00 0.  1.
     999900   -1    0    0    0    0 -0.00000000000E+00 -0.00000000000E+00 -0.74505805969E-08  0.93827000000E+00  0.93827000000E+00 0. -1.
     999902    2    1    2    0    0 -0.18241877277E-01  0.50711869769E-02 -0.14857142932E-01  0.10198630575E+01  0.10195790496E+01 0.  0.
     999903    2    3    3    0    0  0.49879917123E-01 -0.39225400115E-01  0.10881859011E+00  0.12750749305E+00  0.19749356597E-01 0.  0.
         14    1    1    2    0    0  0.18241877277E-01 -0.50711869769E-02  0.14857142932E-01  0.24066942474E-01  0.00000000000E+00 0.  1.
     999901    1    3    3    0    0 -0.68121794401E-01  0.44296587091E-01 -0.12367573304E+00  0.89235556447E+00  0.88000000000E+00 0. -1.
        -11    1    4    4    0    0  0.81527241404E-02 -0.59760511099E-02  0.34935796407E-01  0.36372394606E-01  0.51100000000E-03 0. -1.
         11    1    4    4    0    0  0.41727192983E-01 -0.33249349005E-01  0.73882793699E-01  0.91135098449E-01  0.51100000000E-03 0.  1.
</event>
<event>
 8    1  0.1150307E+005  0.1043930E+01  0.7957747E-01            NaN
         13   -1    0    0    0    0  0.00000000000E+00  0.00000000000E+00  0.74505805969E-08  0.10566000000E+00  0.10566000000E+00 0. -1.
     999900   -1    0    0    0    0 -0.00000000000E+00 -0.00000000000E+00 -0.74505805969E-08  0.93827000000E+00  0.93827000000E+00 0. -1.
     999902    2    1    2    0    0 -0.63688163794E-02 -0.15232173619E-01  0.16999556601E-01  0.10202326191E+01  0.10199573674E+01 0.  0.
     999903    2    3    3    0    0  0.16739063970E-01 -0.11501104329E+00  0.62853554787E-01  0.13310670580E+00  0.16096255360E-01 0.  0.
         14    1    1    2    0    0  0.63688163794E-02  0.15232173619E-01 -0.16999556601E-01  0.23697380865E-01  0.00000000000E+00 0.  1.
     999901    1    3    3    0    0 -0.23107880350E-01  0.99778869674E-01 -0.45853998186E-01  0.88712591334E+00  0.88000000000E+00 0.  1.
        -11    1    4    4    0    0  0.19550092511E-01 -0.86757753971E-01  0.47702181019E-01  0.10092013271E+00  0.51100000000E-03 0.  1.
         11    1    4    4    0    0 -0.28110285404E-02 -0.28253289322E-01  0.15151373767E-01  0.32186573086E-01  0.51100000000E-03 0. -1.
</event>
<event>
 8    1  0.1150307E+005  0.1043930E+01  0.7957747E-01            NaN
         13   -1    0    0    0    0  0.00000000000E+00  0.00000000000E+00  0.74505805969E-08  0.10566000000E+00  0.10566000000E+00 0. -1.
     999900   -1    0    0    0    0 -0.00000000000E+00 -0.00000000000E+00 -0.74505805969E-08  0.93827000000E+00  0.93827000000E+00 0.  1.
     999902    2    1    2    0    0  0.30382332708E-02 -0.21716612787E-01  0.77590801630E-02  0.10206696161E+01  0.10204045374E+01 0.  0.
     999903    2    3    3    0    0 -0.98254698837E-01 -0.78951159085E-01  0.35753954974E-01  0.13257065521E+00  0.20232695384E-01 0.  0.
         14    1    1    2    0    0 -0.30382332708E-02  0.21716612787E-01 -0.77590801630E-02  0.23260383861E-01  0.00000000000E+00 0.  1.
     999901    1    3    3    0    0  0.10129293211E+00  0.57234546298E-01 -0.27994874811E-01  0.88809896093E+00  0.88000000000E+00 0.  1.
        -11    1    4    4    0    0 -0.79149129166E-01 -0.52771234060E-01  0.24206388327E-01  0.98161082659E-01  0.51100000000E-03 0.  1.
         11    1    4    4    0    0 -0.19105569671E-01 -0.26179925026E-01  0.11547566647E-01  0.34409572553E-01  0.51100000000E-03 0. -1.
</event>
<event>
 8    1  0.1150307E+005  0.1043930E+01  0.7957747E-01            NaN
         13   -1    0    0    0    0  0.00000000000E+00  0.00000000000E+00  0.74505805969E-08  0.10566000000E+00  0.10566000000E+00 0. -1.
     999900   -1    0    0    0    0 -0.00000000000E+00 -0.00000000000E+00 -0.74505805969E-08  0.93827000000E+00  0.93827000000E+00 0. -1.
     999902    2    1    2    0    0 -0.88290350215E-02 -0.76479185993E-02 -0.20754945837E-01  0.10201138228E+01  0.10198357717E+01 0.  0.
     999903    2    3    3    0    0  0.12633117854E+00  0.18136118577E-01  0.33571937798E-02  0.12909502663E+00  0.19125106077E-01 0.  0.
         14    1    1    2    0    0  0.88290350215E-02  0.76479185993E-02  0.20754945837E-01  0.23816177171E-01  0.00000000000E+00 0. -1.
     999901    1    3    3    0    0 -0.13516021356E+00 -0.25784037177E-01 -0.24112139617E-01  0.89101879620E+00  0.88000000000E+00 0.  1.
        -11    1    4    4    0    0  0.76928146726E-01  0.16951626412E-02  0.34433775070E-02  0.77025523723E-01  0.51100000000E-03 0.  1.
         11    1    4    4    0    0  0.49403031813E-01  0.16440955936E-01 -0.86183727244E-04  0.52069502908E-01  0.51100000000E-03 0. -1.
</event>
<event>
 8    1  0.1150307E+005  0.1043930E+01  0.7957747E-01            NaN
         13   -1    0    0    0    0  0.00000000000E+00  0.00000000000E+00  0.74505805969E-08  0.10566000000E+00  0.10566000000E+00 0.  1.
     999900   -1    0    0    0    0 -0.00000000000E+00 -0.00000000000E+00 -0.74505805969E-08  0.93827000000E+00  0.93827000000E+00 0.  1.
     999902    2    1    2    0    0  0.38632107083E-02 -0.75839441049E-02  0.22561601572E-01  0.10198163841E+01  0.10195312604E+01 0.  0.
     999903    2    3    3    0    0 -0.66732589005E-01  0.10735157490E+00  0.20439407020E-01  0.12953640334E+00  0.19603860932E-01 0.  0.
         14    1    1    2    0    0 -0.38632107083E-02  0.75839441049E-02 -0.22561601572E-01  0.24113615877E-01  0.00000000000E+00 0. -1.
     999901    1    3    3    0    0  0.70595799713E-01 -0.11493551900E+00  0.21221945523E-02  0.89027998078E+00  0.88000000000E+00 0. -1.
        -11    1    4    4    0    0 -0.44097027325E-01  0.82538403319E-01  0.21138131945E-01  0.95938613626E-01  0.51100000000E-03 0.  1.
         11    1    4    4    0    0 -0.22635561680E-01  0.24813171579E-01 -0.69872492505E-03  0.33597789718E-01  0.51100000000E-03 0. -1.
</event>
<event>
 8    1  0.1150307E+005  0.1043930E+01  0.7957747E-01            NaN
         13   -1    0    0    0    0  0.00000000000E+00  0.00000000000E+00  0.74505805969E-08  0.10566000000E+00  0.10566000000E+00 0.  1.
     999900   -1    0    0    0    0 -0.00000000000E+00 -0.00000000000E+00 -0.74505805969E-08  0.93827000000E+00  0.93827000000E+00 0. -1.
     999902    2    1    2    0    0  0.45583911985E-02  0.19996338823E-01  0.11455929338E-01  0.10204380692E+01  0.10201676246E+01 0.  0.
     999903    2    3    3    0    0  0.62820257081E-01  0.10592847922E+00  0.47840294066E-01  0.13358825114E+00  0.19745877915E-01 0.  0.
         14    1    1    2    0    0 -0.45583911985E-02 -0.19996338823E-01 -0.11455929338E-01  0.23491930820E-01  0.00000000000E+00 0. -1.
     999901    1    3    3    0    0 -0.58261865882E-01 -0.85932140401E-01 -0.36384364729E-01  0.88684981805E+00  0.88000000000E+00 0. -1.
        -11    1    4    4    0    0  0.57999940246E-01  0.89069935082E-01  0.35202768972E-01  0.11196848873E+00  0.51100000000E-03 0.  1.
         11    1    4    4    0    0  0.48203168343E-02  0.16858544142E-01  0.12637525094E-01  0.21619762405E-01  0.51100000000E-03 0. -1.
</event>
<event>
 8    1  0.1150307E+005  0.1043930E+01  0.7957747E-01            NaN
         13   -1    0    0    0    0  0.00000000000E+00  0.00000000000E+00  0.74505805969E-08  0.10566000000E+00  0.10566000000E+00 0.  1.
     999900   -1    0    0    0    0 -0.00000000000E+00 -0.00000000000E+00 -0.74505805969E-08  0.93827000000E+00  0.93827000000E+00 0.  1.
     999902    2    1    2    0    0 -0.16118887010E-01  0.19452189942E-01  0.22830419767E-02  0.10185643048E+01  0.10182484100E+01 0.  0.
     999903    2    3    3    0    0  0.65896532613E-01  0.10860428087E+00  0.19471127428E-01  0.13009930569E+00  0.20235160110E-01 0.  0.
         14    1    1    2    0    0  0.16118887010E-01 -0.19452189942E-01 -0.22830419767E-02  0.25365695193E-01  0.00000000000E+00 0. -1.
     999901    1    3    3    0    0 -0.82015419623E-01 -0.89152090926E-01 -0.17188085451E-01  0.88846499912E+00  0.88000000000E+00 0.  1.
        -11    1    4    4    0    0  0.37147146602E-01  0.67189072927E-01  0.21207384817E-01  0.79651091099E-01  0.51100000000E-03 0.  1.
         11    1    4    4    0    0  0.28749386011E-01  0.41415207941E-01 -0.17362573896E-02  0.50448214592E-01  0.51100000000E-03 0. -1.
</event>
<event>
 7    1  0.1150307E+005  0.1043930E+01  0.7957747E-01            NaN
         13   -1    0    0    0    0  0.00000000000E+00  0.00000000000E+00  0.74505805969E-08  0.10566000000E+00  0.10566000000E+00 0.  1.
     999900   -1    0    0    0    0 -0.00000000000E+00 -0.00000000000E+00 -0.74505805969E-08  0.93827000000E+00  0.93827000000E+00 0.  1.
     999902    2    1    2    0    0 -0.90614741435E-03 -0.15979464349E-01 -0.17543922631E-01  0.10201822926E+01  0.10199058567E+01 0.  0.
         14    1    1    2    0    0  0.90614741435E-03  0.15979464349E-01  0.17543922631E-01  0.23747707370E-01  0.00000000000E+00 0.  1.
     999901    1    3    3    0    0 -0.70168585462E-01  0.12615245070E-01  0.83803257394E-01  0.88685160018E+00  0.88000000000E+00 0. -1.
        -11    1    3    3    0    0  0.27768369182E-01 -0.29062588796E-01 -0.27775543800E-01  0.48861624502E-01  0.51100000000E-03 0. -1.
         11    1    3    3    0    0  0.41494068866E-01  0.46787937650E-03 -0.73571636225E-01  0.84469067948E-01  0.51100000000E-03 0.  1.
</event>
<event>
 8    1  0.1150307E+005  0.1043930E+01  0.7957747E-01            NaN
         13   -1    0    0    0    0  0.00000000000E+00  0.00000000000E+00  0.74505805969E-08  0.10566000000E+00  0.10566000000E+00 0.  1.
     999900   -1    0    0    0    0 -0.00000000000E+00 -0.00000000000E+00 -0.74505805969E-08  0.93827000000E+00  0.93827000000E+00 0. -1.
     999902    2    1    2    0    0 -0.10598586380E-01  0.62537111346E-02  0.20301297260E-01  0.10201901262E+01  0.10199138748E+01 0.  0.
     999903    2    3    3    0    0 -0.12781298155E+00 -0.24731465398E-01 -0.34928750162E-02  0.13155889887E+00  0.18647789745E-01 0.  0.
         14    1    1    2    0    0  0.10598586380E-01 -0.62537111346E-02 -0.20301297260E-01  0.23739873770E-01  0.00000000000E+00 0. -1.
     999901    1    3    3    0    0  0.11721439517E+00  0.30985176533E-01  0.23794172276E-01  0.88863122736E+00  0.88000000000E+00 0.  1.
        -11    1    4    4    0    0 -0.95255135937E-01 -0.26368420054E-01 -0.76096003008E-03  0.98841664695E-01  0.51100000000E-03 0.  1.
         11    1    4    4    0    0 -0.32557845616E-01  0.16369546565E-02 -0.27319149861E-02  0.32717234177E-01  0.51100000000E-03 0. -1.
</event>
<event>
 8    1  0.1150307E+005  0.1043930E+01  0.7957747E-01            NaN
         13   -1    0    0    0    0  0.00000000000E+00  0.00000000000E+00  0.74505805969E-08  0.10566000000E+00  0.10566000000E+00 0. -1.
     999900   -1    0    0    0    0 -0.00000000000E+00 -0.00000000000E+00 -0.74505805969E-08  0.93827000000E+00  0.93827000000E+00 0.  1.
     999902    2    1    2    0    0 -0.14779171793E-01 -0.13528485803E-01  0.10590733064E-01  0.10212670903E+01  0.10210156034E+01 0.  0.
     999903    2    3    3    0    0  0.66965554990E-01 -0.63783908616E-01  0.89942977329E-01  0.13250132450E+00  0.30233909267E-01 0.  0.
         14    1    1    2    0    0  0.14779171793E-01  0.13528485803E-01 -0.10590733064E-01  0.22662909651E-01  0.00000000000E+00 0. -1.
     999901    1    3    3    0    0 -0.81744726783E-01  0.50255422813E-01 -0.79352244264E-01  0.88876576585E+00  0.88000000000E+00 0.  1.
        -11    1    4    4    0    0  0.54566056413E-01 -0.33757825007E-01  0.52332091299E-01  0.82800689383E-01  0.51100000000E-03 0. -1.
         11    1    4    4    0    0  0.12399498577E-01 -0.30026083609E-01  0.37610886030E-01  0.49700635115E-01  0.51100000000E-03 0.  1.
</event>
<event>
 8    1  0.1150307E+005  0.1043930E+01  0.7957747E-01            NaN
         13   -1    0    0    0    0  0.00000000000E+00  0.00000000000E+00  0.74505805969E-08  0.10566000000E+00  0.10566000000E+00 0. -1.
     999900   -1    0    0    0    0 -0.00000000000E+00 -0.00000000000E+00 -0.74505805969E-08  0.93827000000E+00  0.93827000000E+00 0. -1.
     999902    2    1    2    0    0 -0.52267591250E-02 -0.71605199692E-02  0.21975310016E-01  0.10202338757E+01  0.10199586535E+01 0.  0.
     999903    2    3    3    0    0 -0.88960844009E-01 -0.64603773680E-01  0.68014577640E-01  0.13319907449E+00  0.32067605668E-01 0.  0.
         14    1    1    2    0    0  0.52267591250E-02  0.71605199692E-02 -0.21975310016E-01  0.23696124313E-01  0.00000000000E+00 0.  1.
     999901    1    3    3    0    0  0.83734084884E-01  0.57443253711E-01 -0.46039267625E-01  0.88703480120E+00  0.88000000000E+00 0. -1.
        -11    1    4    4    0    0 -0.20416946255E-01 -0.13344086620E-01  0.32242289070E-01  0.40431951073E-01  0.51100000000E-03 0. -1.
         11    1    4    4    0    0 -0.68543897754E-01 -0.51259687060E-01  0.35772288571E-01  0.92767123419E-01  0.51100000000E-03 0.  1.
</event>
<event>
 8    1  0.1150307E+005  0.1043930E+01  0.7957747E-01            NaN
         13   -1    0    0    0    0  0.00000000000E+00  0.00000000000E+00  0.74505805969E-08  0.10566000000E+00  0.10566000000E+00 0. -1.
     999900   -1    0    0    0    0 -0.00000000000E+00 -0.00000000000E+00 -0.74505805969E-08  0.93827000000E+00  0.93827000000E+00 0.  1.
     999902    2    1    2    0    0 -0.16547404626E-01 -0.13432275771E-01 -0.41371547298E-02  0.10222192036E+01  0.10219886210E+01 0.  0.
     999903    2    3    3    0    0 -0.77358986165E-01  0.43153905352E-01  0.96332668700E-01  0.13261579207E+00  0.21454439145E-01 0.  0.
         14    1    1    2    0    0  0.16547404626E-01  0.13432275771E-01  0.41371547298E-02  0.21710796427E-01  0.00000000000E+00 0. -1.
     999901    1    3    3    0    0  0.60811581539E-01 -0.56586181123E-01 -0.10046982343E+00  0.88960341151E+00  0.88000000000E+00 0. -1.
        -11    1    4    4    0    0 -0.65091252287E-01  0.33922113788E-01  0.66434096487E-01  0.99001672840E-01  0.51100000000E-03 0.  1.
         11    1    4    4    0    0 -0.12267733878E-01  0.92317915643E-02  0.29898572213E-01  0.33614119227E-01  0.51100000000E-03 0. -1.
</event>
<event>
 8    1  0.1150307E+005  0.1043930E+01  0.7957747E-01            NaN
         13   -1    0    0    0    0  0.00000000000E+00  0.00000000000E+00  0.74505805969E-08  0.10566000000E+00  0.10566000000E+00 0.  1.
     999900   -1    0    0    0    0 -0.00000000000E+00 -0.00000000000E+00 -0.74505805969E-08  0.93827000000E+00  0.93827000000E+00 0.  1.
     999902    2    1    2    0    0  0.15636681642E-01 -0.13838707265E-01 -0.13604489745E-01  0.10190081667E+01  0.10187033651E+01 0.  0.
     999903    2    3    3    0    0 -0.16520220785E-01  0.29301321398E-01 -0.12448126151E+00  0.13042008053E+00  0.19553204514E-01 0.  0.
         14    1    1    2    0    0 -0.15636681642E-01  0.13838707265E-01  0.13604489745E-01  0.24921833255E-01  0.00000000000E+00 0.  1.
     999901    1    3    3    0    0  0.32156902427E-01 -0.43140028663E-01  0.11087677177E+00  0.88858808622E+00  0.88000000000E+00 0. -1.
        -11    1    4    4    0    0  0.36223055460E-02  0.62993251975E-03 -0.15735932772E-01  0.16167826498E-01  0.51100000000E-03 0. -1.
         11    1    4    4    0    0 -0.20142526330E-01  0.28671388878E-01 -0.10874532874E+00  0.11425225403E+00  0.51100000000E-03 0.  1.
</event>
<event>
 8    1  0.1150307E+005  0.1043930E+01  0.7957747E-01            NaN
         13   -1    0    0    0    0  0.00000000000E+00  0.00000000000E+00  0.74505805969E-08  0.10566000000E+00  0.10566000000E+00 0. -1.
     999900   -1    0    0    0    0 -0.00000000000E+00 -0.00000000000E+00 -0.74505805969E-08  0.93827000000E+00  0.93827000000E+00 0. -1.
     999902    2    1    2    0    0  0.20198810274E-01 -0.63948225402E-02 -0.98477240643E-02  0.10205662811E+01  0.10202988144E+01 0.  0.
     999903    2    3    3    0    0 -0.93286821750E-01 -0.35948254453E-01 -0.81855335141E-01  0.12987133328E+00  0.13098061156E-01 0.  0.
         14    1    1    2    0    0 -0.20198810274E-01  0.63948225402E-02  0.98477240643E-02  0.23363718905E-01  0.00000000000E+00 0. -1.
     999901    1    3    3    0    0  0.11348563202E+00  0.29553431913E-01  0.72007611077E-01  0.89069494782E+00  0.88000000000E+00 0. -1.
        -11    1    4    4    0    0 -0.20976373456E-01 -0.13557202374E-01 -0.17340631001E-01  0.30409942192E-01  0.51100000000E-03 0. -1.
         11    1    4    4    0    0 -0.72310448293E-01 -0.22391052079E-01 -0.64514704140E-01  0.99461391086E-01  0.51100000000E-03 0.  1.
</event>
<event>
 8    1  0.1150307E+005  0.1043930E+01  0.7957747E-01            NaN
         13   -1    0    0    0    0  0.00000000000E+00  0.00000000000E+00  0.74505805969E-08  0.10566000000E+00  0.10566000000E+00 0.  1.
     999900   -1    0    0    0    0 -0.00000000000E+00 -0.00000000000E+00 -0.74505805969E-08  0.93827000000E+00  0.93827000000E+00 0.  1.
     999902    2    1    2    0    0  0.21668888094E-01  0.22176081375E-02  0.12044062376E-01  0.10190398828E+01  0.10187358660E+01 0.  0.
     999903    2    3    3    0    0 -0.63212860067E-01 -0.10131241305E+00 -0.39607444310E-01  0.12741706196E+00  0.20156570050E-01 0.  0.
         14    1    1    2    0    0 -0.21668888094E-01 -0.22176081375E-02 -0.12044062376E-01  0.24890117228E-01  0.00000000000E+00 0.  1.
     999901    1    3    3    0    0  0.84881748161E-01  0.10353002119E+00  0.51651506686E-01  0.89162282082E+00  0.88000000000E+00 0. -1.
        -11    1    4    4    0    0 -0.10820707076E-01 -0.20669931831E-01  0.19424643547E-03  0.23337365665E-01  0.51100000000E-03 0.  1.
         11    1    4    4    0    0 -0.52392152991E-01 -0.80642481222E-01 -0.39801690746E-01  0.10407969629E+00  0.51100000000E-03 0. -1.
</event>
<event>
 8    1  0.1150307E+005  0.1043930E+01  0.7957747E-01            NaN
         13   -1    0    0    0    0  0.00000000000E+00  0.00000000000E+00  0.74505805969E-08  0.10566000000E+00  0.10566000000E+00 0. -1.
     999900   -1    0    0    0    0 -0.00000000000E+00 -0.00000000000E+00 -0.74505805969E-08  0.93827000000E+00  0.93827000000E+00 0.  1.
     999902    2    1    2    0    0  0.19798528059E-01  0.12369801040E-01 -0.10272201370E-02  0.10205623114E+01  0.10202947528E+01 0.  0.
     999903    2    3    3    0    0  0.78420666546E-01 -0.98246356458E-01 -0.32081649369E-01  0.13115977764E+00  0.19274530993E-01 0.  0.
         14    1    1    2    0    0 -0.19798528059E-01 -0.12369801040E-01  0.10272201370E-02  0.23367688638E-01  0.00000000000E+00 0. -1.
     999901    1    3    3    0    0 -0.58622138487E-01  0.11061615750E+00  0.31054429232E-01  0.88940253372E+00  0.88000000000E+00 0.  1.
        -11    1    4    4    0    0  0.20424176150E-01 -0.39132450682E-01 -0.14811739060E-01  0.46563337539E-01  0.51100000000E-03 0. -1.
         11    1    4    4    0    0  0.57996490396E-01 -0.59113905776E-01 -0.17269910309E-01  0.84596440099E-01  0.51100000000E-03 0.  1.
</event>
<event>
 8    1  0.1150307E+005  0.1043930E+01  0.7957747E-01            NaN
         13   -1    0    0    0    0  0.00000000000E+00  0.00000000000E+00  0.74505805969E-08  0.10566000000E+00  0.10566000000E+00 0.  1.
     999900   -1    0    0    0    0 -0.00000000000E+00 -0.00000000000E+00 -0.74505805969E-08  0.93827000000E+00  0.93827000000E+00 0. -1.
     999902    2    1    2    0    0  0.21296367188E-02 -0.25026872561E-01  0.67619801716E-02  0.10179183857E+01  0.10175859845E+01 0.  0.
     999903    2    3    3    0    0 -0.43568664144E-01 -0.11648212155E+00  0.37632701845E-01  0.13146173209E+00  0.19991338617E-01 0.  0.
         14    1    1    2    0    0 -0.21296367188E-02  0.25026872561E-01 -0.67619801716E-02  0.26011614301E-01  0.00000000000E+00 0. -1.
     999901    1    3    3    0    0  0.45698300863E-01  0.91455248990E-01 -0.30870721673E-01  0.88645665361E+00  0.88000000000E+00 0. -1.
        -11    1    4    4    0    0 -0.36115452615E-03 -0.22577685239E-01  0.71809569062E-02  0.23700412790E-01  0.51100000000E-03 0.  1.
         11    1    4    4    0    0 -0.43207509618E-01 -0.93904436313E-01  0.30451744939E-01  0.10776131930E+00  0.51100000000E-03 0. -1.
</event>
<event>
 8    1  0.1150307E+005  0.1043930E+01  0.7957747E-01            NaN
         13   -1    0    0    0    0  0.00000000000E+00  0.00000000000E+00  0.74505805969E-08  0.10566000000E+00  0.10566000000E+00 0. -1.
     999900   -1    0    0    0    0 -0.00000000000E+00 -0.00000000000E+00 -0.74505805969E-08  0.93827000000E+00  0.93827000000E+00 0.  1.
     999902    2    1    2    0    0  0.24472807677E-01  0.57263269749E-03 -0.76974931578E-03  0.10194383945E+01  0.10191441515E+01 0.  0.
     999903    2    3    3    0    0 -0.54111054619E-01 -0.93666647228E-01  0.66417504445E-01  0.12838811966E+00  0.19255579437E-01 0.  0.
         14    1    1    2    0    0 -0.24472807677E-01 -0.57263269749E-03  0.76974931578E-03  0.24491605456E-01  0.00000000000E+00 0. -1.
     999901    1    3    3    0    0  0.78583862296E-01  0.94239279925E-01 -0.67187253761E-01  0.89105027488E+00  0.88000000000E+00 0.  1.
        -11    1    4    4    0    0 -0.11620201461E-01 -0.11504011798E-01  0.41369484167E-02  0.16874443180E-01  0.51100000000E-03 0.  1.
         11    1    4    4    0    0 -0.42490853158E-01 -0.82162635430E-01  0.62280556028E-01  0.11151367648E+00  0.51100000000E-03 0. -1.
</event>
<event>
 8    1  0.1150307E+005  0.1043930E+01  0.7957747E-01            NaN
         13   -1    0    0    0    0  0.00000000000E+00  0.00000000000E+00  0.74505805969E-08  0.10566000000E+00  0.10566000000E+00 0.  1.
     999900   -1    0    0    0    0 -0.00000000000E+00 -0.00000000000E+00 -0.74505805969E-08  0.93827000000E+00  0.93827000000E+00 0.  1.
     999902    2    1    2    0    0  0.83160819589E-02 -0.20290838194E-01  0.17515619438E-02  0.10219312886E+01  0.10216944824E+01 0.  0.
     999903    2    3    3    0    0 -0.10571103043E+00  0.68885346373E-01  0.24128988005E-01  0.12982405097E+00  0.18763348535E-01 0.  0.
         14    1    1    2    0    0 -0.83160819589E-02  0.20290838194E-01 -0.17515619438E-02  0.21998711394E-01  0.00000000000E+00 0. -1.
     999901    1    3    3    0    0  0.11402711239E+00 -0.89176184567E-01 -0.22377426061E-01  0.89210723764E+00  0.88000000000E+00 0.  1.
        -11    1    4    4    0    0 -0.53062171686E-01  0.37752846222E-01  0.32985359504E-02  0.65207460634E-01  0.51100000000E-03 0. -1.
         11    1    4    4    0    0 -0.52648858741E-01  0.31132500151E-01  0.20830452054E-01  0.64616590332E-01  0.51100000000E-03 0.  1.
</event>
<event>
 8    1  0.1150307E+005  0.1043930E+01  0.7957747E-01            NaN
         13   -1    0    0    0    0  0.00000000000E+00  0.00000000000E+00  0.74505805969E-08  0.10566000000E+00  0.10566000000E+00 0.  1.
     999900   -1    0    0    0    0 -0.00000000000E+00 -0.00000000000E+00 -0.74505805969E-08  0.93827000000E+00  0.93827000000E+00 0.  1.
     999902    2    1    2    0    0 -0.76325403654E-02 -0.11902273729E-01 -0.19820817209E-01  0.10195828321E+01  0.10192920910E+01 0.  0.
     999903    2    3    3    0    0 -0.69250112862E-01 -0.33745217536E-01 -0.10622972682E+00  0.13293727767E+00  0.21289600704E-01 0.  0.
         14    1    1    2    0    0  0.76325403654E-02  0.11902273729E-01  0.19820817209E-01  0.24347167950E-01  0.00000000000E+00 0. -1.
     999901    1    3    3    0    0  0.61617572496E-01  0.21842943807E-01  0.86408909608E-01  0.88664555438E+00  0.88000000000E+00 0. -1.
        -11    1    4    4    0    0 -0.26038161563E-01 -0.19117503358E-02 -0.38453501166E-01  0.46481969837E-01  0.51100000000E-03 0. -1.
         11    1    4    4    0    0 -0.43211951298E-01 -0.31833467200E-01 -0.67776225650E-01  0.86455307838E-01  0.51100000000E-03 0.  1.
</event>
<event>
 7    1  0.1150307E+005  0.1043930E+01  0.7957747E-01            NaN
         13   -1    0    0    0    0  0.00000000000E+00  0.00000000000E+00  0.74505805969E-08  0.10566000000E+00  0.10566000000E+00 0. -1.
     999900   -1    0    0    0    0 -0.00000000000E+00 -0.00000000000E+00 -0.74505805969E-08  0.93827000000E+00  0.93827000000E+00 0. -1.
     999903    2    1    2    0    0  0.31719285051E-01 -0.29316631418E-01  0.82126868496E-01  0.96492440936E-01  0.26464895750E-01 0.  0.
         14    1    1    2    0    0 -0.16021969484E-01 -0.53783131191E-01  0.14931501659E-01  0.58071322084E-01  0.00000000000E+00 0.  1.
     999901    1    1    2    0    0 -0.15697315567E-01  0.83099762609E-01 -0.97058370155E-01  0.88936623698E+00  0.88000000000E+00 0. -1.
        -11    1    3    3    0    0  0.27400575405E-01 -0.14381346342E-01  0.34298762811E-01  0.46198278177E-01  0.51100000000E-03 0.  1.
         11    1    3    3    0    0  0.43187096467E-02 -0.14935285076E-01  0.47828105685E-01  0.50294162760E-01  0.51100000000E-03 0. -1.
</event>
<event>
 8    1  0.1150307E+005  0.1043930E+01  0.7957747E-01            NaN
         13   -1    0    0    0    0  0.00000000000E+00  0.00000000000E+00  0.74505805969E-08  0.10566000000E+00  0.10566000000E+00 0. -1.
     999900   -1    0    0    0    0 -0.00000000000E+00 -0.00000000000E+00 -0.74505805969E-08  0.93827000000E+00  0.93827000000E+00 0.  1.
     999902    2    1    2    0    0  0.20021792161E-01  0.99827259279E-02  0.10911376921E-01  0.10190385331E+01  0.10187344830E+01 0.  0.
     999903    2    3    3    0    0  0.93526739520E-01  0.87771463960E-01 -0.23023105312E-01  0.13190516424E+00  0.20440843538E-01 0.  0.
         14    1    1    2    0    0 -0.20021792161E-01 -0.99827259279E-02 -0.10911376921E-01  0.24891466903E-01  0.00000000000E+00 0.  1.
     999901    1    3    3    0    0 -0.73504947359E-01 -0.77788738033E-01  0.33934482233E-01  0.88713336885E+00  0.88000000000E+00 0. -1.
        -11    1    4    4    0    0  0.72388817811E-01  0.71757154593E-01 -0.10182102358E-01  0.10243615821E+00  0.51100000000E-03 0.  1.
         11    1    4    4    0    0  0.21137921709E-01  0.16014309368E-01 -0.12841002953E-01  0.29469006033E-01  0.51100000000E-03 0. -1.
</event>
<event>
 8    1  0.1150307E+005  0.1043930E+01  0.7957747E-01            NaN
         13   -1    0    0    0    0  0.00000000000E+00  0.00000000000E+00  0.74505805969E-08  0.10566000000E+00  0.10566000000E+00 0. -1.
     999900   -1    0    0    0    0 -0.00000000000E+00 -0.00000000000E+00 -0.74505805969E-08  0.93827000000E+00  0.93827000000E+00 0. -1.
     999902    2    1    2    0    0  0.85158570915E-02  0.12520663187E-02 -0.19890196536E-01  0.10222572657E+01  0.10220274996E+01 0.  0.
     999903    2    3    3    0    0 -0.50927583832E-01  0.11630302591E+00 -0.32887588642E-01  0.13268479642E+00  0.20091019973E-01 0.  0.
         14    1    1    2    0    0 -0.85158570915E-02 -0.12520663187E-02  0.19890196536E-01  0.21672734261E-01  0.00000000000E+00 0. -1.
     999901    1    3    3    0    0  0.59443440923E-01 -0.11505095959E+00  0.12997392106E-01  0.88957246932E+00  0.88000000000E+00 0. -1.
        -11    1    4    4    0    0 -0.19737549466E-01  0.37070296462E-01 -0.20154292524E-01  0.46585774297E-01  0.51100000000E-03 0. -1.
         11    1    4    4    0    0 -0.31190034366E-01  0.79232729447E-01 -0.12733296118E-01  0.86099022122E-01  0.51100000000E-03 0.  1.
</event>
<event>
 8    1  0.1150307E+005  0.1043930E+01  0.7957747E-01            NaN
         13   -1    0    0    0    0  0.00000000000E+00  0.00000000000E+00  0.74505805969E-08  0.10566000000E+00  0.10566000000E+00 0.  1.
     999900   -1    0    0    0    0 -0.00000000000E+00 -0.00000000000E+00 -0.74505805969E-08  0.93827000000E+00  0.93827000000E+00 0. -1.
     999902    2    1    2    0    0 -0.82621000640E-02  0.16695167152E-01  0.13790886424E-01  0.10207528679E+01  0.10204897049E+01 0.  0.
     999903    2    3    3    0    0  0.10927990160E-01  0.12320990870E+00 -0.42476420343E-01  0.13233874176E+00  0.20228537096E-01 0.  0.
         14    1    1    2    0    0  0.82621000640E-02 -0.16695167152E-01 -0.13790886424E-01  0.23177132093E-01  0.00000000000E+00 0. -1.
     999901    1    3    3    0    0 -0.19190090224E-01 -0.10651474155E+00  0.56267306767E-01  0.88841412615E+00  0.88000000000E+00 0.  1.
        -11    1    4    4    0    0  0.95980069850E-02  0.11046552823E+00 -0.44263074371E-01  0.11939110327E+00  0.51100000000E-03 0. -1.
         11    1    4    4    0    0  0.13299831748E-02  0.12744380470E-01  0.17866540276E-02  0.12947638489E-01  0.51100000000E-03 0.  1.
</event>
<event>
 8    1  0.1150307E+005  0.1043930E+01  0.7957747E-01            NaN
         13   -1    0    0    0    0  0.00000000000E+00  0.00000000000E+00  0.74505805969E-08  0.10566000000E+00  0.10566000000E+00 0. -1.
     999900   -1    0    0    0    0 -0.00000000000E+00 -0.00000000000E+00 -0.74505805969E-08  0.93827000000E+00  0.93827000000E+00 0.  1.
     999902    2    1    2    0    0  0.28122123361E-01 -0.27230010522E-02  0.11497415342E-02  0.10156529693E+01  0.10152592593E+01 0.  0.
     999903    2    3    3    0    0  0.53993279784E-01  0.64451196893E-01  0.94198719106E-01  0.12782426862E+00  0.19910146266E-01 0.  0.
         14    1    1    2    0    0 -0.28122123361E-01  0.27230010522E-02 -0.11497415342E-02  0.28277030654E-01  0.00000000000E+00 0. -1.
     999901    1    3    3    0    0 -0.25871156423E-01 -0.67174197945E-01 -0.93048977572E-01  0.88782870073E+00  0.88000000000E+00 0.  1.
        -11    1    4    4    0    0  0.15073824797E-01  0.22466453585E-01  0.17939382854E-01  0.32466048557E-01  0.51100000000E-03 0. -1.
         11    1    4    4    0    0  0.38919454986E-01  0.41984743308E-01  0.76259336252E-01  0.95358220064E-01  0.51100000000E-03 0.  1.
</event>
<event>
 8    1  0.1150307E+005  0.1043930E+01  0.7957747E-01            NaN
         13   -1    0    0    0    0  0.00000000000E+00  0.00000000000E+00  0.74505805969E-08  0.10566000000E+00  0.10566000000E+00 0. -1.
     999900   -1    0    0    0    0 -0.00000000000E+00 -0.00000000000E+00 -0.74505805969E-08  0.93827000000E+00  0.93827000000E+00 0.  1.
     999902    2    1    2    0    0  0.91975364474E-02  0.24165359593E-02 -0.23976730749E-01  0.10181362422E+01  0.10178094565E+01 0.  0.
     999903    2    3    3    0    0  0.50604197674E-01 -0.38148652669E-01  0.10770953526E+00  0.12645170228E+00  0.19302448085E-01 0.  0.
         14    1    1    2    0    0 -0.91975364474E-02 -0.24165359593E-02  0.23976730749E-01  0.25793757775E-01  0.00000000000E+00 0. -1.
     999901    1    3    3    0    0 -0.41406661227E-01  0.40565188628E-01 -0.13168626600E+00  0.89168453994E+00  0.88000000000E+00 0.  1.
        -11    1    4    4    0    0  0.36312846381E-01 -0.34931669020E-01  0.72289557881E-01  0.88118588349E-01  0.51100000000E-03 0. -1.
         11    1    4    4    0    0  0.14291351293E-01 -0.32169836485E-02  0.35419977374E-01  0.38333113932E-01  0.51100000000E-03 0.  1.
</event>
<event>
 8    1  0.1150307E+005  0.1043930E+01  0.7957747E-01            NaN
         13   -1    0    0    0    0  0.00000000000E+00  0.00000000000E+00  0.74505805969E-08  0.10566000000E+00  0.10566000000E+00 0.  1.
     999900   -1    0    0    0    0 -0.00000000000E+00 -0.00000000000E+00 -0.74505805969E-08  0.93827000000E+00  0.93827000000E+00 0. -1.
     999902    2    1    2    0    0 -0.63779345342E-02  0.21521952517E-01  0.23933546236E-02  0.10213556642E+01  0.10211061611E+01 0.  0.
     999903    2    3    3    0    0 -0.53291789081E-01  0.51872585372E-01  0.10881079262E+00  0.13318521788E+00  0.19176385855E-01 0.  0.
         14    1    1    2    0    0  0.63779345342E-02 -0.21521952517E-01 -0.23933546236E-02  0.22574335769E-01  0.00000000000E+00 0.  1.
     999901    1    3    3    0    0  0.46913854547E-01 -0.30350632855E-01 -0.10641743800E+00  0.88817044635E+00  0.88000000000E+00 0. -1.
        -11    1    4    4    0    0 -0.10447204040E-01  0.15632859830E-02  0.17965869858E-01  0.20847578662E-01  0.51100000000E-03 0. -1.
         11    1    4    4    0    0 -0.42844585041E-01  0.50309299389E-01  0.90844922761E-01  0.11233763922E+00  0.51100000000E-03 0.  1.
</event>
<event>
 8    1  0.1150307E+005  0.1043930E+01  0.7957747E-01            NaN
         13   -1    0    0    0    0  0.00000000000E+00  0.00000000000E+00  0.74505805969E-08  0.10566000000E+00  0.10566000000E+00 0.  1.
     999900   -1    0    0    0    0 -0.00000000000E+00 -0.00000000000E+00 -0.74505805969E-08  0.93827000000E+00  0.93827000000E+00 0. -1.
     999902    2    1    2    0    0  0.66946447011E-02  0.16585084060E-01 -0.14927295096E-01  0.10206339184E+01  0.10203680159E+01 0.  0.
     999903    2    3    3    0    0 -0.84464671683E-01 -0.79706511463E-01  0.50632176518E-01  0.12828861712E+00  0.20172834468E-01 0.  0.
         14    1    1    2    0    0 -0.66946447011E-02 -0.16585084060E-01  0.14927295096E-01  0.23296081641E-01  0.00000000000E+00 0.  1.
     999901    1    3    3    0    0  0.91159316384E-01  0.96291595523E-01 -0.65559471614E-01  0.89234530124E+00  0.88000000000E+00 0.  1.
        -11    1    4    4    0    0 -0.46539400037E-01 -0.42315890866E-01  0.38209868961E-01  0.73598950961E-01  0.51100000000E-03 0.  1.
         11    1    4    4    0    0 -0.37925271646E-01 -0.37390620597E-01  0.12422307556E-01  0.54689666154E-01  0.51100000000E-03 0. -1.
</event>
<event>
 8    1  0.1150307E+005  0.1043930E+01  0.7957747E-01            NaN
         13   -1    0    0    0    0  0.00000000000E+00  0.00000000000E+00  0.74505805969E-08  0.10566000000E+00  0.10566000000E+00 0.  1.
     999900   -1    0    0    0    0 -0.00000000000E+00 -0.00000000000E+00 -0.74505805969E-08  0.93827000000E+00  0.93827000000E+00 0. -1.
     999902    2    1    2    0    0  0.15269058653E-01 -0.84308514193E-02  0.17182083546E-01  0.10194463850E+01  0.10191523363E+01 0.  0.
     999903    2    3    3    0    0  0.83176470524E-01 -0.88713975360E-01 -0.45624226713E-01  0.13096372948E+00  0.16775985902E-01 0.  0.
         14    1    1    2    0    0 -0.15269058653E-01  0.84308514193E-02 -0.17182083546E-01  0.24483614986E-01  0.00000000000E+00 0.  1.
     999901    1    3    3    0    0 -0.67907411871E-01  0.80283123941E-01  0.62806310259E-01  0.88848265553E+00  0.88000000000E+00 0.  1.
        -11    1    4    4    0    0  0.59435862027E-01 -0.71223238594E-01 -0.29459542542E-01  0.97331891888E-01  0.51100000000E-03 0.  1.
         11    1    4    4    0    0  0.23740608497E-01 -0.17490736766E-01 -0.16164684171E-01  0.33631837591E-01  0.51100000000E-03 0. -1.
</event>
<event>
 8    1  0.1150307E+005  0.1043930E+01  0.7957747E-01            NaN
         13   -1    0    0    0    0  0.00000000000E+00  0.00000000000E+00  0.74505805969E-08  0.10566000000E+00  0.10566000000E+00 0. -1.
     999900   -1    0    0    0    0 -0.00000000000E+00 -0.00000000000E+00 -0.74505805969E-08  0.93827000000E+00  0.93827000000E+00 0. -1.
     999902    2    1    2    0    0  0.48916161499E-02  0.22230755083E-01  0.55590083636E-03  0.10211606477E+01  0.10209067660E+01 0.  0.
     999903    2    3    3    0    0  0.12945836277E+00 -0.13127385631E-01 -0.43396056061E-02  0.13167144679E+00  0.19665751427E-01 0.  0.
         14    1    1    2    0    0 -0.48916161499E-02 -0.22230755083E-01 -0.55590083636E-03  0.22769352337E-01  0.00000000000E+00 0.  1.
     999901    1    3    3    0    0 -0.12456674662E+00  0.35358140715E-01  0.48955064424E-02  0.88948920087E+00  0.88000000000E+00 0.  1.
        -11    1    4    4    0    0  0.90500003034E-01 -0.16973379769E-01  0.14736334408E-02  0.92091144452E-01  0.51100000000E-03 0. -1.
         11    1    4    4    0    0  0.38958359736E-01  0.38459941373E-02 -0.58132390469E-02  0.39580302342E-01  0.51100000000E-03 0.  1.
</event>
<event>
 8    1  0.1150307E+005  0.1043930E+01  0.7957747E-01            NaN
         13   -1    0    0    0    0  0.00000000000E+00  0.00000000000E+00  0.74505805969E-08  0.10566000000E+00  0.10566000000E+00 0. -1.
     999900   -1    0    0    0    0 -0.00000000000E+00 -0.00000000000E+00 -0.74505805969E-08  0.93827000000E+00  0.93827000000E+00 0. -1.
     999902    2    1    2    0    0  0.23945467439E-01 -0.32238543568E-02  0.11092832194E-02  0.10197430375E+01  0.10194561556E+01 0.  0.
     999903    2    3    3    0    0  0.83071535889E-01 -0.18009151290E-01 -0.99145173068E-01  0.13195620889E+00  0.18906774346E-01 0.  0.
         14    1    1    2    0    0 -0.23945467439E-01  0.32238543568E-02 -0.11092832194E-02  0.24186962543E-01  0.00000000000E+00 0. -1.
     999901    1    3    3    0    0 -0.59126068451E-01  0.14785296933E-01  0.10025445629E+00  0.88778682857E+00  0.88000000000E+00 0.  1.
        -11    1    4    4    0    0  0.55254795185E-01 -0.56857760055E-02 -0.73706794976E-01  0.92295033379E-01  0.51100000000E-03 0. -1.
         11    1    4    4    0    0  0.27816740704E-01 -0.12323375285E-01 -0.25438378092E-01  0.39661175509E-01  0.51100000000E-03 0.  1.
</event>
<event>
 7    1  0.1150307E+005  0.1043930E+01  0.7957747E-01            NaN
         13   -1    0    0    0    0  0.00000000000E+00  0.00000000000E+00  0.74505805969E-08  0.10566000000E+00  0.10566000000E+00 0. -1.
     999900   -1    0    0    0    0 -0.00000000000E+00 -0.00000000000E+00 -0.74505805969E-08  0.93827000000E+00  0.93827000000E+00 0. -1.
     999902    2    1    2    0    0  0.76251617394E-02 -0.14941652866E-01 -0.29497794886E-02  0.10268977576E+01  0.10267564985E+01 0.  0.
         14    1    1    2    0    0 -0.76251617394E-02  0.14941652866E-01  0.29497794886E-02  0.17032242393E-01  0.00000000000E+00 0.  1.
     999901    1    3    3    0    0  0.22391576763E-01  0.30502016044E-01 -0.12341312086E+00  0.88941697426E+00  0.88000000000E+00 0. -1.
        -11    1    3    3    0    0 -0.43009316582E-03 -0.12777415825E-01  0.88989944705E-01  0.89905053889E-01  0.51100000000E-03 0. -1.
         11    1    3    3    0    0 -0.14336321858E-01 -0.32666253085E-01  0.31473396669E-01  0.47575729462E-01  0.51100000000E-03 0.  1.
</event>
<event>
 8    1  0.1150307E+005  0.1043930E+01  0.7957747E-01            NaN
         13   -1    0    0    0    0  0.00000000000E+00  0.00000000000E+00  0.74505805969E-08  0.10566000000E+00  0.10566000000E+00 0.  1.
     999900   -1    0    0    0    0 -0.00000000000E+00 -0.00000000000E+00 -0.74505805969E-08  0.93827000000E+00  0.93827000000E+00 0. -1.
     999902    2    1    2    0    0  0.14418873261E-01 -0.18409785579E-01  0.78839996328E-02  0.10192524482E+01  0.10189536651E+01 0.  0.
     999903    2    3    3    0    0 -0.11822408586E+00  0.33987732982E-01 -0.24954192227E-01  0.12716612875E+00  0.20406178525E-01 0.  0.
         14    1    1    2    0    0 -0.14418873261E-01  0.18409785579E-01 -0.78839996328E-02  0.24677551770E-01  0.00000000000E+00 0. -1.
     999901    1    3    3    0    0  0.13264295912E+00 -0.52397518560E-01  0.32838191859E-01  0.89208631948E+00  0.88000000000E+00 0. -1.
        -11    1    4    4    0    0 -0.56273544011E-01  0.26757859185E-01 -0.13155372946E-01  0.63686888306E-01  0.51100000000E-03 0.  1.
         11    1    4    4    0    0 -0.61950541847E-01  0.72298737963E-02 -0.11798819280E-01  0.63479240446E-01  0.51100000000E-03 0. -1.
</event>
<event>
 8    1  0.1150307E+005  0.1043930E+01  0.7957747E-01            NaN
         13   -1    0    0    0    0  0.00000000000E+00  0.00000000000E+00  0.74505805969E-08  0.10566000000E+00  0.10566000000E+00 0. -1.
     999900   -1    0    0    0    0 -0.00000000000E+00 -0.00000000000E+00 -0.74505805969E-08  0.93827000000E+00  0.93827000000E+00 0. -1.
     999902    2    1    2    0    0  0.83197627172E-02  0.14815430449E-01 -0.15673563167E-01  0.10208134256E+01  0.10205516517E+01 0.  0.
     999903    2    3    3    0    0  0.81263669057E-01 -0.77204235374E-01 -0.65725353475E-01  0.13160388104E+00  0.20868194624E-01 0.  0.
         14    1    1    2    0    0 -0.83197627172E-02 -0.14815430449E-01  0.15673563167E-01  0.23116574431E-01  0.00000000000E+00 0. -1.
     999901    1    3    3    0    0 -0.72943906340E-01  0.92019665823E-01  0.50051790308E-01  0.88920954453E+00  0.88000000000E+00 0. -1.
        -11    1    4    4    0    0  0.41719221723E-01 -0.31381510742E-01 -0.20682064546E-01  0.56154266022E-01  0.51100000000E-03 0. -1.
         11    1    4    4    0    0  0.39544447334E-01 -0.45822724633E-01 -0.45043288929E-01  0.75449615017E-01  0.51100000000E-03 0.  1.
</event>
<event>
 8    1  0.1150307E+005  0.1043930E+01  0.7957747E-01            NaN
         13   -1    0    0    0    0  0.00000000000E+00  0.00000000000E+00  0.74505805969E-08  0.10566000000E+00  0.10566000000E+00 0. -1.
     999900   -1    0    0    0    0 -0.00000000000E+00 -0.00000000000E+00 -0.74505805969E-08  0.93827000000E+00  0.93827000000E+00 0. -1.
     999902    2    1    2    0    0  0.88652090139E-03  0.10740229170E-01 -0.18276799711E-01  0.10227125579E+01  0.10224924431E+01 0.  0.
     999903    2    3    3    0    0 -0.10877431010E+00 -0.11007846986E-01 -0.74525018500E-01  0.13385804854E+00  0.20272531758E-01 0.  0.
         14    1    1    2    0    0 -0.88652090139E-03 -0.10740229170E-01  0.18276799711E-01  0.21217442108E-01  0.00000000000E+00 0. -1.
     999901    1    3    3    0    0  0.10966083100E+00  0.21748076156E-01  0.56248218789E-01  0.88885450935E+00  0.88000000000E+00 0. -1.
        -11    1    4    4    0    0 -0.59876643210E-01 -0.10942456509E-02 -0.29988900098E-01  0.66977645716E-01  0.51100000000E-03 0. -1.
         11    1    4    4    0    0 -0.48897666892E-01 -0.99136013355E-02 -0.44536118402E-01  0.66880402826E-01  0.51100000000E-03 0.  1.
</event>
<event>
 7    1  0.1150307E+005  0.1043930E+01  0.7957747E-01            NaN
         13   -1    0    0    0    0  0.00000000000E+00  0.00000000000E+00  0.74505805969E-08  0.10566000000E+00  0.10566000000E+00 0. -1.
     999900   -1    0    0    0    0 -0.00000000000E+00 -0.00000000000E+00 -0.74505805969E-08  0.93827000000E+00  0.93827000000E+00 0.  1.
     999903    2    1    2    0    0 -0.87191116934E-01  0.78910868644E-03 -0.79570437500E-01  0.11936009929E+00  0.17676685608E-01 0.  0.
         14    1    1    2    0    0  0.22379926098E-01 -0.31005310539E-01  0.31502765456E-02  0.38368145852E-01  0.00000000000E+00 0.  1.
     999901    1    1    2    0    0  0.64811190836E-01  0.30216201853E-01  0.76420160954E-01  0.88620175486E+00  0.88000000000E+00 0. -1.
        -11    1    3    3    0    0 -0.68058304991E-01 -0.39811836163E-02 -0.53464416703E-01  0.86639988895E-01  0.51100000000E-03 0.  1.
         11    1    3    3    0    0 -0.19132811942E-01  0.47702923027E-02 -0.26106020797E-01  0.32720110396E-01  0.51100000000E-03 0. -1.
</event>
<event>
 7    1  0.1150307E+005  0.1043930E+01  0.7957747E-01            NaN
         13   -1    0    0    0    0  0.00000000000E+00  0.00000000000E+00  0.74505805969E-08  0.10566000000E+00  0.10566000000E+00 0. -1.
     999900   -1    0    0    0    0 -0.00000000000E+00 -0.00000000000E+00 -0.74505805969E-08  0.93827000000E+00  0.93827000000E+00 0. -1.
     999903    2    1    2    0    0 -0.73183785101E-01  0.59642016187E-03  0.55132936418E-01  0.93899596806E-01  0.20524899112E-01 0.  0.
         14    1    1    2    0    0 -0.47224945865E-01  0.16844324653E-02  0.32744807575E-01  0.57491349331E-01  0.00000000000E+00 0. -1.
     999901    1    1    2    0    0  0.12040873097E+00 -0.22808526272E-02 -0.87877743993E-01  0.89253905386E+00  0.88000000000E+00 0. -1.
        -11    1    3    3    0    0 -0.24969948856E-01 -0.76743200535E-02  0.26505826081E-01  0.37218456058E-01  0.51100000000E-03 0. -1.
         11    1    3    3    0    0 -0.48213836246E-01  0.82707402153E-02  0.28627110337E-01  0.56681140748E-01  0.51100000000E-03 0.  1.
</event>
<event>
 8    1  0.1150307E+005  0.1043930E+01  0.7957747E-01            NaN
         13   -1    0    0    0    0  0.00000000000E+00  0.00000000000E+00  0.74505805969E-08  0.10566000000E+00  0.10566000000E+00 0. -1.
     999900   -1    0    0    0    0 -0.00000000000E+00 -0.00000000000E+00 -0.74505805969E-08  0.93827000000E+00  0.93827000000E+00 0. -1.
     999902    2    1    2    0    0 -0.16567419404E-01 -0.15779744137E-01  0.67014479902E-02  0.10200890874E+01  0.10198104515E+01 0.  0.
     999903    2    3    3    0    0 -0.12066621545E+00 -0.31332216306E-01 -0.40369555279E-01  0.13256775348E+00  0.20061528870E-01 0.  0.
         14    1    1    2    0    0  0.16567419404E-01  0.15779744137E-01 -0.67014479902E-02  0.23840912648E-01  0.00000000000E+00 0.  1.
     999901    1    3    3    0    0  0.10409879604E+00  0.15552472169E-01  0.47071003269E-01  0.88752133387E+00  0.88000000000E+00 0. -1.
        -11    1    4    4    0    0 -0.56302498765E-01 -0.21292704018E-01 -0.27428288202E-01  0.66150757564E-01  0.51100000000E-03 0.  1.
         11    1    4    4    0    0 -0.64363716681E-01 -0.10039512288E-01 -0.12941267077E-01  0.66416995917E-01  0.51100000000E-03 0. -1.
</event>
<event>
 8    1  0.1150307E+005  0.1043930E+01  0.7957747E-01            NaN
         13   -1    0    0    0    0  0.00000000000E+00  0.00000000000E+00  0.74505805969E-08  0.10566000000E+00  0.10566000000E+00 0.  1.
     999900   -1    0    0    0    0 -0.00000000000E+00 -0.00000000000E+00 -0.74505805969E-08  0.93827000000E+00  0.93827000000E+00 0. -1.
     999902    2    1    2    0    0 -0.13597800087E-01 -0.17995799368E-01 -0.16559632036E-01  0.10159483922E+01  0.10155629795E+01 0.  0.
     999903    2    3    3    0    0  0.47851005229E-01  0.89917307052E-01 -0.70467577710E-01  0.12559606822E+00  0.20829115056E-01 0.  0.
         14    1    1    2    0    0  0.13597800087E-01  0.17995799368E-01  0.16559632036E-01  0.27981607804E-01  0.00000000000E+00 0.  1.
     999901    1    3    3    0    0 -0.61448805316E-01 -0.10791310642E+00  0.53907945673E-01  0.89035232398E+00  0.88000000000E+00 0. -1.
        -11    1    4    4    0    0  0.37326400902E-01  0.59586872851E-01 -0.37968638443E-01  0.79910789302E-01  0.51100000000E-03 0.  1.
         11    1    4    4    0    0  0.10524604327E-01  0.30330434200E-01 -0.32498939266E-01  0.45685278914E-01  0.51100000000E-03 0. -1.
</event>
<event>
 8    1  0.1150307E+005  0.1043930E+01  0.7957747E-01            NaN
         13   -1    0    0    0    0  0.00000000000E+00  0.00000000000E+00  0.74505805969E-08  0.10566000000E+00  0.10566000000E+00 0. -1.
     999900   -1    0    0    0    0 -0.00000000000E+00 -0.00000000000E+00 -0.74505805969E-08  0.93827000000E+00  0.93827000000E+00 0. -1.
     999902    2    1    2    0    0  0.82793370856E-02  0.17849000938E-01  0.13706614958E-01  0.10199507266E+01  0.10196688086E+01 0.  0.
     999903    2    3    3    0    0 -0.33311427243E-02  0.13022472917E+00  0.15357234537E-01  0.13272706145E+00  0.20274407251E-01 0.  0.
         14    1    1    2    0    0 -0.82793370856E-02 -0.17849000938E-01 -0.13706614958E-01  0.23979273356E-01  0.00000000000E+00 0.  1.
     999901    1    3    3    0    0  0.11610479810E-01 -0.11237572823E+00 -0.16506195789E-02  0.88722366519E+00  0.88000000000E+00 0. -1.
        -11    1    4    4    0    0  0.67532457806E-02  0.88848976767E-01  0.13234516982E-01  0.90084185970E-01  0.51100000000E-03 0.  1.
         11    1    4    4    0    0 -0.10084388505E-01  0.41375752402E-01  0.21227175557E-02  0.42642875480E-01  0.51100000000E-03 0. -1.
</event>
<event>
 8    1  0.1150307E+005  0.1043930E+01  0.7957747E-01            NaN
         13   -1    0    0    0    0  0.00000000000E+00  0.00000000000E+00  0.74505805969E-08  0.10566000000E+00  0.10566000000E+00 0. -1.
     999900   -1    0    0    0    0 -0.00000000000E+00 -0.00000000000E+00 -0.74505805969E-08  0.93827000000E+00  0.93827000000E+00 0.  1.
     999902    2    1    2    0    0  0.10068583491E-02  0.22618544202E-01  0.59135815437E-02  0.10205295138E+01  0.10202611949E+01 0.  0.
     999903    2    3    3    0    0 -0.57056689476E-02 -0.69531347195E-01  0.10684055339E+00  0.12995502839E+00  0.24621995335E-01 0.  0.
         14    1    1    2    0    0 -0.10068583491E-02 -0.22618544202E-01 -0.59135815437E-02  0.23400486154E-01  0.00000000000E+00 0. -1.
     999901    1    3    3    0    0  0.67125272966E-02  0.92149891397E-01 -0.10092697184E+00  0.89057448546E+00  0.88000000000E+00 0.  1.
        -11    1    4    4    0    0  0.96904795496E-02 -0.28545068580E-01  0.41293105885E-01  0.51128348778E-01  0.51100000000E-03 0.  1.
         11    1    4    4    0    0 -0.15396148497E-01 -0.40986278615E-01  0.65547447500E-01  0.78826679608E-01  0.51100000000E-03 0. -1.
</event>
<event>
 8    1  0.1150307E+005  0.1043930E+01  0.7957747E-01            NaN
         13   -1    0    0    0    0  0.00000000000E+00  0.00000000000E+00  0.74505805969E-08  0.10566000000E+00  0.10566000000E+00 0. -1.
     999900   -1    0    0    0    0 -0.00000000000E+00 -0.00000000000E+00 -0.74505805969E-08  0.93827000000E+00  0.93827000000E+00 0.  1.
     999902    2    1    2    0    0 -0.20625736732E-02 -0.52228382262E-02 -0.22426256981E-01  0.10208114090E+01  0.10205495889E+01 0.  0.
     999903    2    3    3    0    0  0.23941715987E-01  0.40561546079E-02 -0.13008978865E+00  0.13382000042E+00  0.19869102814E-01 0.  0.
         14    1    1    2    0    0  0.20625736732E-02  0.52228382262E-02  0.22426256981E-01  0.23118591036E-01  0.00000000000E+00 0. -1.
     999901    1    3    3    0    0 -0.26004289660E-01 -0.92789928341E-02  0.10766353166E+00  0.88699140855E+00  0.88000000000E+00 0. -1.
        -11    1    4    4    0    0  0.17114067792E-01 -0.68354564663E-02 -0.72010656312E-01  0.74333105175E-01  0.51100000000E-03 0.  1.
         11    1    4    4    0    0  0.68276481955E-02  0.10891611074E-01 -0.58079132334E-01  0.59486895240E-01  0.51100000000E-03 0. -1.
</event>
<event>
 8    1  0.1150307E+005  0.1043930E+01  0.7957747E-01            NaN
         13   -1    0    0    0    0  0.00000000000E+00  0.00000000000E+00  0.74505805969E-08  0.10566000000E+00  0.10566000000E+00 0. -1.
     999900   -1    0    0    0    0 -0.00000000000E+00 -0.00000000000E+00 -0.74505805969E-08  0.93827000000E+00  0.93827000000E+00 0.  1.
     999902    2    1    2    0    0 -0.92424048386E-02 -0.16872575010E-01 -0.12474134948E-01  0.10210016360E+01  0.10207441554E+01 0.  0.
     999903    2    3    3    0    0 -0.50261670664E-01 -0.68444363455E-01  0.98394925791E-01  0.13160061384E+00  0.20646881462E-01 0.  0.
         14    1    1    2    0    0  0.92424048386E-02  0.16872575010E-01  0.12474134948E-01  0.22928364036E-01  0.00000000000E+00 0. -1.
     999901    1    3    3    0    0  0.41019265825E-01  0.51571788446E-01 -0.11086906074E+00  0.88940102213E+00  0.88000000000E+00 0.  1.
        -11    1    4    4    0    0 -0.16665045027E-01 -0.30028443529E-01  0.26253855263E-01  0.43231437447E-01  0.51100000000E-03 0. -1.
         11    1    4    4    0    0 -0.33596625637E-01 -0.38415919926E-01  0.72141070528E-01  0.88369176390E-01  0.51100000000E-03 0.  1.
</event>
<event>
 8    1  0.1150307E+005  0.1043930E+01  0.7957747E-01            NaN
         13   -1    0    0    0    0  0.00000000000E+00  0.00000000000E+00  0.74505805969E-08  0.10566000000E+00  0.10566000000E+00 0. -1.
     999900   -1    0    0    0    0 -0.00000000000E+00 -0.00000000000E+00 -0.74505805969E-08  0.93827000000E+00  0.93827000000E+00 0.  1.
     999902    2    1    2    0    0  0.23013552122E-02 -0.15451563968E-01 -0.16123347871E-01  0.10214798461E+01  0.10212331108E+01 0.  0.
     999903    2    3    3    0    0  0.29729226594E-01  0.10788817888E+00 -0.65555800985E-01  0.13108187453E+00  0.19005492153E-01 0.  0.
         14    1    1    2    0    0 -0.23013552122E-02  0.15451563968E-01  0.16123347871E-01  0.22450153929E-01  0.00000000000E+00 0. -1.
     999901    1    3    3    0    0 -0.27427871382E-01 -0.12333974285E+00  0.49432453114E-01  0.89039797154E+00  0.88000000000E+00 0. -1.
        -11    1    4    4    0    0  0.23056088938E-01  0.48033227150E-01 -0.30485341618E-01  0.61387224421E-01  0.51100000000E-03 0.  1.
         11    1    4    4    0    0  0.66731376561E-02  0.59854951734E-01 -0.35070459367E-01  0.69694650113E-01  0.51100000000E-03 0. -1.
</event>
<event>
 8    1  0.1150307E+005  0.1043930E+01  0.7957747E-01            NaN
         13   -1    0    0    0    0  0.00000000000E+00  0.00000000000E+00  0.74505805969E-08  0.10566000000E+00  0.10566000000E+00 0.  1.
     999900   -1    0    0    0    0 -0.00000000000E+00 -0.00000000000E+00 -0.74505805969E-08  0.93827000000E+00  0.93827000000E+00 0. -1.
     999902    2    1    2    0    0  0.12095237993E-01 -0.11828927865E-01 -0.15424894492E-01  0.10210357718E+01  0.10207790660E+01 0.  0.
     999903    2    3    3    0    0  0.24364070126E-01  0.67315797453E-01 -0.10944101704E+00  0.13241130491E+00  0.20745914241E-01 0.  0.
         14    1    1    2    0    0 -0.12095237993E-01  0.11828927865E-01  0.15424894492E-01  0.22894228238E-01  0.00000000000E+00 0.  1.
     999901    1    3    3    0    0 -0.12268832133E-01 -0.79144725318E-01  0.94016122548E-01  0.88862446685E+00  0.88000000000E+00 0.  1.
        -11    1    4    4    0    0  0.16121361375E-01  0.59996740985E-01 -0.82331197595E-01  0.10314162322E+00  0.51100000000E-03 0. -1.
         11    1    4    4    0    0  0.82427087505E-02  0.73190564677E-02 -0.27109819445E-01  0.29269681694E-01  0.51100000000E-03 0.  1.
</event>
<event>
 8    1  0.1150307E+005  0.1043930E+01  0.7957747E-01            NaN
         13   -1    0    0    0    0  0.00000000000E+00  0.00000000000E+00  0.74505805969E-08  0.10566000000E+00  0.10566000000E+00 0. -1.
     999900   -1    0    0    0    0 -0.00000000000E+00 -0.00000000000E+00 -0.74505805969E-08  0.93827000000E+00  0.93827000000E+00 0. -1.
     999902    2    1    2    0    0 -0.82569862977E-02  0.12847252411E-01  0.18584354527E-01  0.10198757291E+01  0.10195920237E+01 0.  0.
     999903    2    3    3    0    0  0.57441053947E-01 -0.23902334290E-01  0.11419769718E+00  0.13150155344E+00  0.19512771557E-01 0.  0.
         14    1    1    2    0    0  0.82569862977E-02 -0.12847252411E-01 -0.18584354527E-01  0.24054270939E-01  0.00000000000E+00 0.  1.
     999901    1    3    3    0    0 -0.65698040245E-01  0.36749586700E-01 -0.95613342651E-01  0.88837417562E+00  0.88000000000E+00 0.  1.
        -11    1    4    4    0    0  0.30232447060E-01 -0.79199022189E-02  0.39214172079E-01  0.50147164618E-01  0.51100000000E-03 0. -1.
         11    1    4    4    0    0  0.27208606887E-01 -0.15982432071E-01  0.74983525098E-01  0.81354388823E-01  0.51100000000E-03 0.  1.
</event>
<event>
 8    1  0.1150307E+005  0.1043930E+01  0.7957747E-01            NaN
         13   -1    0    0    0    0  0.00000000000E+00  0.00000000000E+00  0.74505805969E-08  0.10566000000E+00  0.10566000000E+00 0. -1.
     999900   -1    0    0    0    0 -0.00000000000E+00 -0.00000000000E+00 -0.74505805969E-08  0.93827000000E+00  0.93827000000E+00 0. -1.
     999902    2    1    2    0    0  0.16904163576E-01 -0.11646417616E-01  0.97940245886E-02  0.10211854906E+01  0.10209321689E+01 0.  0.
     999903    2    3    3    0    0  0.37623245165E-01  0.12083288443E+00  0.25971809519E-01  0.13088117942E+00  0.20958380172E-01 0.  0.
         14    1    1    2    0    0 -0.16904163576E-01  0.11646417616E-01 -0.97940245886E-02  0.22744509384E-01  0.00000000000E+00 0. -1.
     999901    1    3    3    0    0 -0.20719081589E-01 -0.13247930205E+00 -0.16177784930E-01  0.89030431120E+00  0.88000000000E+00 0. -1.
        -11    1    4    4    0    0  0.20267521066E-02  0.12915711619E-02  0.32895375211E-02  0.41058565818E-02  0.51100000000E-03 0.  1.
         11    1    4    4    0    0  0.35596493058E-01  0.11954131327E+00  0.22682271998E-01  0.12677532284E+00  0.51100000000E-03 0. -1.
</event>
<event>
 8    1  0.1150307E+005  0.1043930E+01  0.7957747E-01            NaN
         13   -1    0    0    0    0  0.00000000000E+00  0.00000000000E+00  0.74505805969E-08  0.10566000000E+00  0.10566000000E+00 0. -1.
     999900   -1    0    0    0    0 -0.00000000000E+00 -0.00000000000E+00 -0.74505805969E-08  0.93827000000E+00  0.93827000000E+00 0. -1.
     999902    2    1    2    0    0  0.20538069565E-01 -0.31936937212E-02  0.85825371863E-02  0.10214428498E+01  0.10211952915E+01 0.  0.
     999903    2    3    3    0    0  0.11621993281E+00  0.94665734795E-02 -0.61589745549E-01  0.13338910670E+00  0.20066594939E-01 0.  0.
         14    1    1    2    0    0 -0.20538069565E-01  0.31936937212E-02 -0.85825371863E-02  0.22487150233E-01  0.00000000000E+00 0. -1.
     999901    1    3    3    0    0 -0.95681863245E-01 -0.12660267201E-01  0.70172282735E-01  0.88805374307E+00  0.88000000000E+00 0. -1.
        -11    1    4    4    0    0  0.38364118231E-01  0.47585205483E-02 -0.31191941185E-01  0.49675420495E-01  0.51100000000E-03 0. -1.
         11    1    4    4    0    0  0.77855814579E-01  0.47080529311E-02 -0.30397804364E-01  0.83713686200E-01  0.51100000000E-03 0.  1.
</event>
<event>
 8    1  0.1150307E+005  0.1043930E+01  0.7957747E-01            NaN
         13   -1    0    0    0    0  0.00000000000E+00  0.00000000000E+00  0.74505805969E-08  0.10566000000E+00  0.10566000000E+00 0. -1.
     999900   -1    0    0    0    0 -0.00000000000E+00 -0.00000000000E+00 -0.74505805969E-08  0.93827000000E+00  0.93827000000E+00 0.  1.
     999902    2    1    2    0    0 -0.59568410110E-02  0.14567383262E-01  0.22837688865E-01  0.10161945959E+01  0.10158160286E+01 0.  0.
     999903    2    3    3    0    0  0.10004309589E+00  0.76181999320E-01  0.12336644741E-02  0.12743192709E+00  0.20616887709E-01 0.  0.
         14    1    1    2    0    0  0.59568410110E-02 -0.14567383262E-01 -0.22837688865E-01  0.27735404137E-01  0.00000000000E+00 0.  1.
     999901    1    3    3    0    0 -0.10599993690E+00 -0.61614616058E-01  0.21604024391E-01  0.88876266877E+00  0.88000000000E+00 0. -1.
        -11    1    4    4    0    0  0.35102699702E-01  0.27727311083E-01 -0.93932856533E-02  0.45711029770E-01  0.51100000000E-03 0. -1.
         11    1    4    4    0    0  0.64940396185E-01  0.48454688237E-01  0.10626950127E-01  0.81720897320E-01  0.51100000000E-03 0.  1.
</event>
<event>
 8    1  0.1150307E+005  0.1043930E+01  0.7957747E-01            NaN
         13   -1    0    0    0    0  0.00000000000E+00  0.00000000000E+00  0.74505805969E-08  0.10566000000E+00  0.10566000000E+00 0.  1.
     999900   -1    0    0    0    0 -0.00000000000E+00 -0.00000000000E+00 -0.74505805969E-08  0.93827000000E+00  0.93827000000E+00 0.  1.
     999902    2    1    2    0    0  0.17487958137E-01 -0.73656565836E-02  0.15327826139E-01  0.10195368897E+01  0.10192450371E+01 0.  0.
     999903    2    3    3    0    0 -0.62817189190E-01  0.10819099099E-01  0.11232053913E+00  0.13038719003E+00  0.17940558793E-01 0.  0.
         14    1    1    2    0    0 -0.17487958137E-01  0.73656565836E-02 -0.15327826139E-01  0.24393110315E-01  0.00000000000E+00 0. -1.
     999901    1    3    3    0    0  0.80305147327E-01 -0.18184755683E-01 -0.96992712992E-01  0.88914969966E+00  0.88000000000E+00 0.  1.
        -11    1    4    4    0    0 -0.19437240768E-01  0.98648558434E-02  0.48918194343E-01  0.53557189697E-01  0.51100000000E-03 0.  1.
         11    1    4    4    0    0 -0.43379948422E-01  0.95424325566E-03  0.63402344788E-01  0.76830000331E-01  0.51100000000E-03 0. -1.
</event>
<event>
 8    1  0.1150307E+005  0.1043930E+01  0.7957747E-01            NaN
         13   -1    0    0    0    0  0.00000000000E+00  0.00000000000E+00  0.74505805969E-08  0.10566000000E+00  0.10566000000E+00 0.  1.
     999900   -1    0    0    0    0 -0.00000000000E+00 -0.00000000000E+00 -0.74505805969E-08  0.93827000000E+00  0.93827000000E+00 0.  1.
     999902    2    1    2    0    0  0.21455714560E-01 -0.12245989109E-01  0.10907435050E-01  0.10169247398E+01  0.10165661033E+01 0.  0.
     999903    2    3    3    0    0  0.11120255498E+00 -0.29980245508E-01 -0.56061649389E-01  0.12965146882E+00  0.20044238081E-01 0.  0.
         14    1    1    2    0    0 -0.21455714560E-01  0.12245989109E-01 -0.10907435050E-01  0.27005260153E-01  0.00000000000E+00 0.  1.
     999901    1    3    3    0    0 -0.89746840416E-01  0.17734256399E-01  0.66969084439E-01  0.88727327103E+00  0.88000000000E+00 0. -1.
        -11    1    4    4    0    0  0.41331533884E-01 -0.78835372838E-02 -0.10537722098E-01  0.43379148924E-01  0.51100000000E-03 0.  1.
         11    1    4    4    0    0  0.69871021092E-01 -0.22096708224E-01 -0.45523927291E-01  0.86272319893E-01  0.51100000000E-03 0. -1.
</event>
<event>
 8    1  0.1150307E+005  0.1043930E+01  0.7957747E-01            NaN
         13   -1    0    0    0    0  0.00000000000E+00  0.00000000000E+00  0.74505805969E-08  0.10566000000E+00  0.10566000000E+00 0.  1.
     999900   -1    0    0    0    0 -0.00000000000E+00 -0.00000000000E+00 -0.74505805969E-08  0.93827000000E+00  0.93827000000E+00 0. -1.
     999902    2    1    2    0    0  0.11393762577E-01  0.19886583603E-01 -0.55304355167E-02  0.10203528978E+01  0.10200804656E+01 0.  0.
     999903    2    3    3    0    0 -0.64126177280E-01  0.10477958600E+00 -0.44729578928E-01  0.13218249968E+00  0.19507684076E-01 0.  0.
         14    1    1    2    0    0 -0.11393762577E-01 -0.19886583603E-01  0.55304355167E-02  0.23577102241E-01  0.00000000000E+00 0.  1.
     999901    1    3    3    0    0  0.75519939857E-01 -0.84893002392E-01  0.39199143412E-01  0.88817039807E+00  0.88000000000E+00 0. -1.
        -11    1    4    4    0    0 -0.17721089031E-01  0.37599453524E-01 -0.66856449099E-02  0.42103620636E-01  0.51100000000E-03 0. -1.
         11    1    4    4    0    0 -0.46405088248E-01  0.67180132471E-01 -0.38043934018E-01  0.90078879049E-01  0.51100000000E-03 0.  1.
</event>
<event>
 8    1  0.1150307E+005  0.1043930E+01  0.7957747E-01            NaN
         13   -1    0    0    0    0  0.00000000000E+00  0.00000000000E+00  0.74505805969E-08  0.10566000000E+00  0.10566000000E+00 0.  1.
     999900   -1    0    0    0    0 -0.00000000000E+00 -0.00000000000E+00 -0.74505805969E-08  0.93827000000E+00  0.93827000000E+00 0.  1.
     999902    2    1    2    0    0  0.92355592290E-02 -0.13554897258E-01  0.10905111509E-01  0.10242334965E+01  0.10240440923E+01 0.  0.
     999903    2    3    3    0    0 -0.92805940268E-02  0.12390869848E+00 -0.40057508275E-01  0.13191277123E+00  0.18891274724E-01 0.  0.
         14    1    1    2    0    0 -0.92355592290E-02  0.13554897258E-01 -0.10905111509E-01  0.19696503521E-01  0.00000000000E+00 0.  1.
     999901    1    3    3    0    0  0.18516153256E-01 -0.13746359574E+00  0.50962619784E-01  0.89232072524E+00  0.88000000000E+00 0.  1.
        -11    1    4    4    0    0  0.37623434438E-02  0.39212048809E-01 -0.67424960868E-02  0.39968267094E-01  0.51100000000E-03 0. -1.
         11    1    4    4    0    0 -0.13042937471E-01  0.84696649672E-01 -0.33315012188E-01  0.91944504141E-01  0.51100000000E-03 0.  1.
</event>
<event>
 8    1  0.1150307E+005  0.1043930E+01  0.7957747E-01            NaN
         13   -1    0    0    0    0  0.00000000000E+00  0.00000000000E+00  0.74505805969E-08  0.10566000000E+00  0.10566000000E+00 0.  1.
     999900   -1    0    0    0    0 -0.00000000000E+00 -0.00000000000E+00 -0.74505805969E-08  0.93827000000E+00  0.93827000000E+00 0. -1.
     999902    2    1    2    0    0  0.14393109396E-01 -0.97236748275E-02 -0.12997279589E-01  0.10222357444E+01  0.10220055168E+01 0.  0.
     999903    2    3    3    0    0 -0.69561450237E-01 -0.92527332898E-01  0.58893590269E-01  0.13146466770E+00  0.20356846204E-01 0.  0.
         14    1    1    2    0    0 -0.14393109396E-01  0.97236748275E-02  0.12997279589E-01  0.21694255621E-01  0.00000000000E+00 0.  1.
     999901    1    3    3    0    0  0.83954559633E-01  0.82803658071E-01 -0.71890869857E-01  0.89077107668E+00  0.88000000000E+00 0. -1.
        -11    1    4    4    0    0 -0.45888687637E-01 -0.62389331417E-01  0.28420230443E-01  0.82499520890E-01  0.51100000000E-03 0.  1.
         11    1    4    4    0    0 -0.23672762600E-01 -0.30138001481E-01  0.30473359825E-01  0.48965146813E-01  0.51100000000E-03 0. -1.
</event>
<event>
 8    1  0.1150307E+005  0.1043930E+01  0.7957747E-01            NaN
         13   -1    0    0    0    0  0.00000000000E+00  0.00000000000E+00  0.74505805969E-08  0.10566000000E+00  0.10566000000E+00 0.  1.
     999900   -1    0    0    0    0 -0.00000000000E+00 -0.00000000000E+00 -0.74505805969E-08  0.93827000000E+00  0.93827000000E+00 0.  1.
     999902    2    1    2    0    0 -0.35138820795E-02  0.11149852902E-01  0.21140497979E-01  0.10197724496E+01  0.10194862734E+01 0.  0.
     999903    2    3    3    0    0  0.49429104847E-02  0.12991551551E+00  0.42141454237E-02  0.13159268098E+00  0.19909824996E-01 0.  0.
         14    1    1    2    0    0  0.35138820795E-02 -0.11149852902E-01 -0.21140497979E-01  0.24157550410E-01  0.00000000000E+00 0. -1.
     999901    1    3    3    0    0 -0.84567925641E-02 -0.11876566261E+00  0.16926352556E-01  0.88817976861E+00  0.88000000000E+00 0.  1.
        -11    1    4    4    0    0  0.12421622786E-01  0.67661786656E-01  0.35442874418E-02  0.68885681971E-01  0.51100000000E-03 0.  1.
         11    1    4    4    0    0 -0.74787123016E-02  0.62253728856E-01  0.66985798198E-03  0.62706999010E-01  0.51100000000E-03 0. -1.
</event>
<event>
 8    1  0.1150307E+005  0.1043930E+01  0.7957747E-01            NaN
         13   -1    0    0    0    0  0.00000000000E+00  0.00000000000E+00  0.74505805969E-08  0.10566000000E+00  0.10566000000E+00 0.  1.
     999900   -1    0    0    0    0 -0.00000000000E+00 -0.00000000000E+00 -0.74505805969E-08  0.93827000000E+00  0.93827000000E+00 0.  1.
     999902    2    1    2    0    0  0.66194925975E-02 -0.94082813684E-02  0.20904306615E-01  0.10200694997E+01  0.10197904004E+01 0.  0.
     999903    2    3    3    0    0  0.54134042367E-01  0.11492522932E+00  0.19989322149E-01  0.13005978540E+00  0.19433782435E-01 0.  0.
         14    1    1    2    0    0 -0.66194925975E-02  0.94082813684E-02 -0.20904306615E-01  0.23860500322E-01  0.00000000000E+00 0. -1.
     999901    1    3    3    0    0 -0.47514549769E-01 -0.12433351069E+00  0.91498446618E-03  0.89000971428E+00  0.88000000000E+00 0. -1.
        -11    1    4    4    0    0  0.40279900850E-01  0.96925233130E-01  0.10674274579E-01  0.10550437189E+00  0.51100000000E-03 0.  1.
         11    1    4    4    0    0  0.13854141517E-01  0.17999996191E-01  0.93150475699E-02  0.24555413502E-01  0.51100000000E-03 0. -1.
</event>
<event>
 8    1  0.1150307E+005  0.1043930E+01  0.7957747E-01            NaN
         13   -1    0    0    0    0  0.00000000000E+00  0.00000000000E+00  0.74505805969E-08  0.10566000000E+00  0.10566000000E+00 0. -1.
     999900   -1    0    0    0    0 -0.00000000000E+00 -0.00000000000E+00 -0.74505805969E-08  0.93827000000E+00  0.93827000000E+00 0.  1.
     999902    2    1    2    0    0 -0.23118202708E-01  0.55196195990E-02  0.33014341805E-02  0.10199338135E+01  0.10196514929E+01 0.  0.
     999903    2    3    3    0    0 -0.19620801287E-01  0.30763744510E-02 -0.12721621661E+00  0.13029733810E+00  0.19974749663E-01 0.  0.
         14    1    1    2    0    0  0.23118202708E-01 -0.55196195990E-02 -0.33014341805E-02  0.23996186459E-01  0.00000000000E+00 0. -1.
     999901    1    3    3    0    0 -0.34974014208E-02  0.24432451480E-02  0.13051765079E+00  0.88963647544E+00  0.88000000000E+00 0. -1.
        -11    1    4    4    0    0 -0.14566758813E-02 -0.48397032814E-02 -0.60133819334E-01  0.60348007268E-01  0.51100000000E-03 0. -1.
         11    1    4    4    0    0 -0.18164125406E-01  0.79160777324E-02 -0.67082397279E-01  0.69949330834E-01  0.51100000000E-03 0.  1.
</event>
<event>
 8    1  0.1150307E+005  0.1043930E+01  0.7957747E-01            NaN
         13   -1    0    0    0    0  0.00000000000E+00  0.00000000000E+00  0.74505805969E-08  0.10566000000E+00  0.10566000000E+00 0.  1.
     999900   -1    0    0    0    0 -0.00000000000E+00 -0.00000000000E+00 -0.74505805969E-08  0.93827000000E+00  0.93827000000E+00 0. -1.
     999902    2    1    2    0    0 -0.13618595674E-01  0.15403609987E-01 -0.12894309881E-01  0.10196606659E+01  0.10193718032E+01 0.  0.
     999903    2    3    3    0    0 -0.10146175215E+00  0.14137707974E-01  0.78725538441E-01  0.13055312505E+00  0.18762892169E-01 0.  0.
         14    1    1    2    0    0  0.13618595674E-01 -0.15403609987E-01  0.12894309881E-01  0.24269334067E-01  0.00000000000E+00 0.  1.
     999901    1    3    3    0    0  0.87843156472E-01  0.12659020126E-02 -0.91619848322E-01  0.88910754088E+00  0.88000000000E+00 0.  1.
        -11    1    4    4    0    0 -0.44574603844E-01  0.95199056833E-02  0.24157111294E-01  0.51588284127E-01  0.51100000000E-03 0. -1.
         11    1    4    4    0    0 -0.56887148301E-01  0.46178022909E-02  0.54568427147E-01  0.78964840924E-01  0.51100000000E-03 0.  1.
</event>
<event>
 7    1  0.1150307E+005  0.1043930E+01  0.7957747E-01            NaN
         13   -1    0    0    0    0  0.00000000000E+00  0.00000000000E+00  0.74505805969E-08  0.10566000000E+00  0.10566000000E+00 0. -1.
     999900   -1    0    0    0    0 -0.00000000000E+00 -0.00000000000E+00 -0.74505805969E-08  0.93827000000E+00  0.93827000000E+00 0. -1.
     999903    2    1    2    0    0 -0.66025512251E-01  0.17624170971E-01 -0.18518836680E-01  0.73608674055E-01  0.20132310195E-01 0.  0.
         14    1    1    2    0    0  0.24210805458E-01  0.80162068405E-01  0.22756911308E-02  0.83769320650E-01  0.00000000000E+00 0. -1.
     999901    1    1    2    0    0  0.41814706792E-01 -0.97786239377E-01  0.16243145549E-01  0.88655200530E+00  0.88000000000E+00 0.  1.
        -11    1    3    3    0    0 -0.44062440610E-01  0.74086159216E-02 -0.20772298912E-01  0.49276117800E-01  0.51100000000E-03 0.  1.
         11    1    3    3    0    0 -0.21963071641E-01  0.10215555050E-01  0.22534622320E-02  0.24332556255E-01  0.51100000000E-03 0. -1.
</event>
<event>
 8    1  0.1150307E+005  0.1043930E+01  0.7957747E-01            NaN
         13   -1    0    0    0    0  0.00000000000E+00  0.00000000000E+00  0.74505805969E-08  0.10566000000E+00  0.10566000000E+00 0. -1.
     999900   -1    0    0    0    0 -0.00000000000E+00 -0.00000000000E+00 -0.74505805969E-08  0.93827000000E+00  0.93827000000E+00 0. -1.
     999902    2    1    2    0    0  0.12423228741E-01 -0.18240145625E-01  0.75907694174E-02  0.10205920630E+01  0.10203251931E+01 0.  0.
     999903    2    3    3    0    0 -0.57098232603E-01  0.59788315834E-01 -0.96152192986E-01  0.12835651299E+00  0.19882136075E-01 0.  0.
         14    1    1    2    0    0 -0.12423228741E-01  0.18240145625E-01 -0.75907694174E-02  0.23337937036E-01  0.00000000000E+00 0.  1.
     999901    1    3    3    0    0  0.69521461344E-01 -0.78028461458E-01  0.10374296240E+00  0.89223554997E+00  0.88000000000E+00 0.  1.
        -11    1    4    4    0    0 -0.32420227191E-01  0.20989852944E-01 -0.37585130945E-01  0.53893860938E-01  0.51100000000E-03 0. -1.
         11    1    4    4    0    0 -0.24678005412E-01  0.38798462890E-01 -0.58567062041E-01  0.74462652054E-01  0.51100000000E-03 0.  1.
</event>
<event>
 8    1  0.1150307E+005  0.1043930E+01  0.7957747E-01            NaN
         13   -1    0    0    0    0  0.00000000000E+00  0.00000000000E+00  0.74505805969E-08  0.10566000000E+00  0.10566000000E+00 0.  1.
     999900   -1    0    0    0    0 -0.00000000000E+00 -0.00000000000E+00 -0.74505805969E-08  0.93827000000E+00  0.93827000000E+00 0. -1.
     999902    2    1    2    0    0  0.13399348589E-01 -0.89253094812E-02 -0.18335192713E-01  0.10195295290E+01  0.10192374981E+01 0.  0.
     999903    2    3    3    0    0  0.90085566232E-01 -0.74895590804E-01 -0.59260823973E-01  0.13278956642E+00  0.19911427016E-01 0.  0.
         14    1    1    2    0    0 -0.13399348589E-01  0.89253094812E-02  0.18335192713E-01  0.24400470974E-01  0.00000000000E+00 0.  1.
     999901    1    3    3    0    0 -0.76686217643E-01  0.65970281323E-01  0.40925631261E-01  0.88673996261E+00  0.88000000000E+00 0.  1.
        -11    1    4    4    0    0  0.81128441368E-01 -0.58642114824E-01 -0.47407636817E-01  0.11076311110E+00  0.51100000000E-03 0.  1.
         11    1    4    4    0    0  0.89571248639E-02 -0.16253475980E-01 -0.11853187156E-01  0.22026455321E-01  0.51100000000E-03 0. -1.
</event>
<event>
 8    1  0.1150307E+005  0.1043930E+01  0.7957747E-01            NaN
         13   -1    0    0    0    0  0.00000000000E+00  0.00000000000E+00  0.74505805969E-08  0.10566000000E+00  0.10566000000E+00 0. -1.
     999900   -1    0    0    0    0 -0.00000000000E+00 -0.00000000000E+00 -0.74505805969E-08  0.93827000000E+00  0.93827000000E+00 0. -1.
     999902    2    1    2    0    0  0.11145101514E-01  0.15834143157E-01 -0.12002419144E-01  0.10211486163E+01  0.10208944633E+01 0.  0.
     999903    2    3    3    0    0  0.12807075288E-01  0.12097375107E+00 -0.52445911038E-01  0.13396612362E+00  0.19941892286E-01 0.  0.
         14    1    1    2    0    0 -0.11145101514E-01 -0.15834143157E-01  0.12002419144E-01  0.22781383684E-01  0.00000000000E+00 0.  1.
     999901    1    3    3    0    0 -0.16619737743E-02 -0.10513960791E+00  0.40443491894E-01  0.88718249270E+00  0.88000000000E+00 0.  1.
        -11    1    4    4    0    0 -0.29486897348E-02  0.61173454277E-01 -0.29751272513E-01  0.68090275491E-01  0.51100000000E-03 0.  1.
         11    1    4    4    0    0  0.15755765023E-01  0.59800296792E-01 -0.22694638525E-01  0.65875848129E-01  0.51100000000E-03 0. -1.
</event>
<event>
 8    1  0.1150307E+005  0.1043930E+01  0.7957747E-01            NaN
         13   -1    0    0    0    0  0.00000000000E+00  0.00000000000E+00  0.74505805969E-08  0.10566000000E+00  0.10566000000E+00 0.  1.
     999900   -1    0    0    0    0 -0.00000000000E+00 -0.00000000000E+00 -0.74505805969E-08  0.93827000000E+00  0.93827000000E+00 0. -1.
     999902    2    1    2    0    0  0.14052266351E-01  0.36606218735E-02  0.19663475161E-01  0.10194858065E+01  0.10191927153E+01 0.  0.
     999903    2    3    3    0    0  0.96065047487E-01  0.75174711230E-01 -0.41899016068E-01  0.13064931893E+00  0.20832341026E-01 0.  0.
         14    1    1    2    0    0 -0.14052266351E-01 -0.36606218735E-02 -0.19663475161E-01  0.24444193534E-01  0.00000000000E+00 0. -1.
     999901    1    3    3    0    0 -0.82012781136E-01 -0.71514089356E-01  0.61562491229E-01  0.88883648753E+00  0.88000000000E+00 0.  1.
        -11    1    4    4    0    0  0.29426343315E-01  0.23231055652E-01 -0.23263498225E-01  0.44125311311E-01  0.51100000000E-03 0. -1.
         11    1    4    4    0    0  0.66638704172E-01  0.51943655578E-01 -0.18635517843E-01  0.86524007621E-01  0.51100000000E-03 0.  1.
</event>
<event>
 8    1  0.1150307E+005  0.1043930E+01  0.7957747E-01            NaN
         13   -1    0    0    0    0  0.00000000000E+00  0.00000000000E+00  0.74505805969E-08  0.10566000000E+00  0.10566000000E+00 0. -1.
     999900   -1    0    0    0    0 -0.00000000000E+00 -0.00000000000E+00 -0.74505805969E-08  0.93827000000E+00  0.93827000000E+00 0. -1.
     999902    2    1    2    0    0  0.11145599099E-01 -0.26969484370E-03 -0.18094010379E-01  0.10226769925E+01  0.10224561315E+01 0.  0.
     999903    2    3    3    0    0 -0.12063413817E+00  0.41377434241E-01 -0.28044205347E-01  0.13183503748E+00  0.18146963878E-01 0.  0.
         14    1    1    2    0    0 -0.11145599099E-01  0.26969484370E-03  0.18094010379E-01  0.21253007462E-01  0.00000000000E+00 0. -1.
     999901    1    3    3    0    0  0.13177973727E+00 -0.41647129084E-01  0.99501949676E-02  0.89084195506E+00  0.88000000000E+00 0. -1.
        -11    1    4    4    0    0 -0.39429819625E-01  0.47155639269E-02 -0.80901573540E-02  0.40529729654E-01  0.51100000000E-03 0.  1.
         11    1    4    4    0    0 -0.81204318541E-01  0.36661870314E-01 -0.19954047993E-01  0.91305307824E-01  0.51100000000E-03 0. -1.
</event>
<event>
 8    1  0.1150307E+005  0.1043930E+01  0.7957747E-01            NaN
         13   -1    0    0    0    0  0.00000000000E+00  0.00000000000E+00  0.74505805969E-08  0.10566000000E+00  0.10566000000E+00 0. -1.
     999900   -1    0    0    0    0 -0.00000000000E+00 -0.00000000000E+00 -0.74505805969E-08  0.93827000000E+00  0.93827000000E+00 0.  1.
     999902    2    1    2    0    0 -0.22494988435E-02  0.18715199387E-01  0.14122685406E-01  0.10203764615E+01  0.10201045799E+01 0.  0.
     999903    2    3    3    0    0  0.71445615746E-01  0.72111622652E-01  0.83448481604E-01  0.13297113474E+00  0.20325143570E-01 0.  0.
         14    1    1    2    0    0  0.22494988435E-02 -0.18715199387E-01 -0.14122685406E-01  0.23553538507E-01  0.00000000000E+00 0.  1.
     999901    1    3    3    0    0 -0.73695114589E-01 -0.53396423265E-01 -0.69325796198E-01  0.88740532675E+00  0.88000000000E+00 0.  1.
        -11    1    4    4    0    0 -0.31159268031E-03  0.51251491529E-02  0.61281996218E-02  0.80112542990E-02  0.51100000000E-03 0.  1.
         11    1    4    4    0    0  0.71757208426E-01  0.66986473499E-01  0.77320281982E-01  0.12495988044E+00  0.51100000000E-03 0. -1.
</event>
<event>
 8    1  0.1150307E+005  0.1043930E+01  0.7957747E-01            NaN
         13   -1    0    0    0    0  0.00000000000E+00  0.00000000000E+00  0.74505805969E-08  0.10566000000E+00  0.10566000000E+00 0. -1.
     999900   -1    0    0    0    0 -0.00000000000E+00 -0.00000000000E+00 -0.74505805969E-08  0.93827000000E+00  0.93827000000E+00 0. -1.
     999902    2    1    2    0    0 -0.66584976962E-02 -0.17447305735E-01  0.14544887161E-01  0.10202593893E+01  0.10199847664E+01 0.  0.
     999903    2    3    3    0    0  0.59476125762E-02 -0.88309959265E-01  0.97780275085E-01  0.13340621120E+00  0.20055223511E-01 0.  0.
         14    1    1    2    0    0  0.66584976962E-02  0.17447305735E-01 -0.14544887161E-01  0.23670610713E-01  0.00000000000E+00 0.  1.
     999901    1    3    3    0    0 -0.12606110272E-01  0.70862653530E-01 -0.83235387924E-01  0.88685317809E+00  0.88000000000E+00 0. -1.
        -11    1    4    4    0    0 -0.56646689155E-02 -0.11669278497E-01  0.17735085997E-01  0.21978510661E-01  0.51100000000E-03 0. -1.
         11    1    4    4    0    0  0.11612281492E-01 -0.76640680769E-01  0.80045189088E-01  0.11142770054E+00  0.51100000000E-03 0.  1.
</event>
<event>
 8    1  0.1150307E+005  0.1043930E+01  0.7957747E-01            NaN
         13   -1    0    0    0    0  0.00000000000E+00  0.00000000000E+00  0.74505805969E-08  0.10566000000E+00  0.10566000000E+00 0. -1.
     999900   -1    0    0    0    0 -0.00000000000E+00 -0.00000000000E+00 -0.74505805969E-08  0.93827000000E+00  0.93827000000E+00 0.  1.
     999902    2    1    2    0    0  0.17326791115E-01 -0.85382978986E-02  0.84626557116E-02  0.10228412171E+01  0.10226237914E+01 0.  0.
     999903    2    3    3    0    0 -0.24891473534E-01 -0.88790555719E-01 -0.92895164826E-01  0.13239401794E+00  0.19882557653E-01 0.  0.
         14    1    1    2    0    0 -0.17326791115E-01  0.85382978986E-02 -0.84626557116E-02  0.21088782872E-01  0.00000000000E+00 0. -1.
     999901    1    3    3    0    0  0.42218264649E-01  0.80252257821E-01  0.10135782054E+00  0.89044719919E+00  0.88000000000E+00 0. -1.
        -11    1    4    4    0    0 -0.13876051615E-01 -0.27275016010E-01 -0.20920463989E-01  0.37072877435E-01  0.51100000000E-03 0. -1.
         11    1    4    4    0    0 -0.11015421919E-01 -0.61515539709E-01 -0.71974700838E-01  0.95321140506E-01  0.51100000000E-03 0.  1.
</event>
<event>
 8    1  0.1150307E+005  0.1043930E+01  0.7957747E-01            NaN
         13   -1    0    0    0    0  0.00000000000E+00  0.00000000000E+00  0.74505805969E-08  0.10566000000E+00  0.10566000000E+00 0.  1.
     999900   -1    0    0    0    0 -0.00000000000E+00 -0.00000000000E+00 -0.74505805969E-08  0.93827000000E+00  0.93827000000E+00 0. -1.
     999902    2    1    2    0    0  0.10684507581E-01  0.18431044626E-01  0.94234359714E-02  0.10206348663E+01  0.10203689857E+01 0.  0.
     999903    2    3    3    0    0 -0.16784238886E-02 -0.97739189642E-01  0.83204122721E-01  0.12985321229E+00  0.19574585678E-01 0.  0.
         14    1    1    2    0    0 -0.10684507581E-01 -0.18431044626E-01 -0.94234359714E-02  0.23295133693E-01  0.00000000000E+00 0.  1.
     999901    1    3    3    0    0  0.12362931469E-01  0.11617023427E+00 -0.73780686750E-01  0.89078165402E+00  0.88000000000E+00 0.  1.
        -11    1    4    4    0    0  0.60263831824E-02 -0.61097048677E-01  0.43290182989E-01  0.75123017215E-01  0.51100000000E-03 0.  1.
         11    1    4    4    0    0 -0.77048070710E-02 -0.36642140965E-01  0.39913939732E-01  0.54730195070E-01  0.51100000000E-03 0. -1.
</event>
<event>
 8    1  0.1150307E+005  0.1043930E+01  0.7957747E-01            NaN
         13   -1    0    0    0    0  0.00000000000E+00  0.00000000000E+00  0.74505805969E-08  0.10566000000E+00  0.10566000000E+00 0. -1.
     999900   -1    0    0    0    0 -0.00000000000E+00 -0.00000000000E+00 -0.74505805969E-08  0.93827000000E+00  0.93827000000E+00 0.  1.
     999902    2    1    2    0    0 -0.67193730816E-02  0.43981393463E-02 -0.21783552815E-01  0.10207132651E+01  0.10204491917E+01 0.  0.
     999903    2    3    3    0    0 -0.15077507853E-01 -0.95768504562E-01  0.82533485026E-01  0.12886952358E+00  0.19915829109E-01 0.  0.
         14    1    1    2    0    0  0.67193730816E-02 -0.43981393463E-02  0.21783552815E-01  0.23216734860E-01  0.00000000000E+00 0. -1.
     999901    1    3    3    0    0  0.83581347709E-02  0.10016664391E+00 -0.10431703784E+00  0.89184374156E+00  0.88000000000E+00 0.  1.
        -11    1    4    4    0    0 -0.56089820862E-02 -0.40032053598E-01  0.47430042038E-01  0.62320911451E-01  0.51100000000E-03 0. -1.
         11    1    4    4    0    0 -0.94685257663E-02 -0.55736450963E-01  0.35103442988E-01  0.66548612133E-01  0.51100000000E-03 0.  1.
</event>
<event>
 8    1  0.1150307E+005  0.1043930E+01  0.7957747E-01            NaN
         13   -1    0    0    0    0  0.00000000000E+00  0.00000000000E+00  0.74505805969E-08  0.10566000000E+00  0.10566000000E+00 0.  1.
     999900   -1    0    0    0    0 -0.00000000000E+00 -0.00000000000E+00 -0.74505805969E-08  0.93827000000E+00  0.93827000000E+00 0. -1.
     999902    2    1    2    0    0 -0.21073971494E-01  0.37044278520E-02 -0.49705109926E-02  0.10219631832E+01  0.10217270706E+01 0.  0.
     999903    2    3    3    0    0 -0.80515926449E-01  0.28109738916E-01  0.10042482788E+00  0.13334788812E+00  0.20580120933E-01 0.  0.
         14    1    1    2    0    0  0.21073971494E-01 -0.37044278520E-02  0.49705109926E-02  0.21966816788E-01  0.00000000000E+00 0. -1.
     999901    1    3    3    0    0  0.59441954954E-01 -0.24405311064E-01 -0.10539533887E+00  0.88861529509E+00  0.88000000000E+00 0.  1.
        -11    1    4    4    0    0 -0.28638028626E-01  0.20652465895E-01  0.41076691989E-01  0.54168411245E-01  0.51100000000E-03 0. -1.
         11    1    4    4    0    0 -0.51877897823E-01  0.74572730209E-02  0.59348135890E-01  0.79179476874E-01  0.51100000000E-03 0.  1.
</event>
<event>
 8    1  0.1150307E+005  0.1043930E+01  0.7957747E-01            NaN
         13   -1    0    0    0    0  0.00000000000E+00  0.00000000000E+00  0.74505805969E-08  0.10566000000E+00  0.10566000000E+00 0.  1.
     999900   -1    0    0    0    0 -0.00000000000E+00 -0.00000000000E+00 -0.74505805969E-08  0.93827000000E+00  0.93827000000E+00 0. -1.
     999902    2    1    2    0    0  0.58417948339E-02  0.17715792866E-01 -0.15246852907E-01  0.10198376276E+01  0.10195530120E+01 0.  0.
     999903    2    3    3    0    0 -0.76276049988E-02 -0.56344809461E-01  0.11220139664E+00  0.12747589947E+00  0.20688973531E-01 0.  0.
         14    1    1    2    0    0 -0.58417948339E-02 -0.17715792866E-01  0.15246852907E-01  0.24092372388E-01  0.00000000000E+00 0.  1.
     999901    1    3    3    0    0  0.13469399833E-01  0.74060602327E-01 -0.12744824954E+00  0.89236172815E+00  0.88000000000E+00 0. -1.
        -11    1    4    4    0    0 -0.87717533204E-02 -0.23119969770E-01  0.66570790572E-01  0.71016955278E-01  0.51100000000E-03 0.  1.
         11    1    4    4    0    0  0.11441483216E-02 -0.33224839691E-01  0.45630606065E-01  0.56458944187E-01  0.51100000000E-03 0. -1.
</event>
<event>
 8    1  0.1150307E+005  0.1043930E+01  0.7957747E-01            NaN
         13   -1    0    0    0    0  0.00000000000E+00  0.00000000000E+00  0.74505805969E-08  0.10566000000E+00  0.10566000000E+00 0.  1.
     999900   -1    0    0    0    0 -0.00000000000E+00 -0.00000000000E+00 -0.74505805969E-08  0.93827000000E+00  0.93827000000E+00 0.  1.
     999902    2    1    2    0    0 -0.12823484519E-01  0.13483316678E-01  0.13704132465E-01  0.10208205900E+01  0.10205589802E+01 0.  0.
     999903    2    3    3    0    0  0.76029100827E-01  0.10559675206E+00 -0.97499948050E-03  0.13144151232E+00  0.18569392010E-01 0.  0.
         14    1    1    2    0    0  0.12823484519E-01 -0.13483316678E-01 -0.13704132465E-01  0.23109409998E-01  0.00000000000E+00 0. -1.
     999901    1    3    3    0    0 -0.88852585345E-01 -0.92113435381E-01  0.14679131945E-01  0.88937907768E+00  0.88000000000E+00 0. -1.
        -11    1    4    4    0    0  0.24310037561E-01  0.47385185358E-01 -0.48161836234E-02  0.53477008735E-01  0.51100000000E-03 0. -1.
         11    1    4    4    0    0  0.51719063266E-01  0.58211566702E-01  0.38411841429E-02  0.77964503587E-01  0.51100000000E-03 0.  1.
</event>
<event>
 8    1  0.1150307E+005  0.1043930E+01  0.7957747E-01            NaN
         13   -1    0    0    0    0  0.00000000000E+00  0.00000000000E+00  0.74505805969E-08  0.10566000000E+00  0.10566000000E+00 0. -1.
     999900   -1    0    0    0    0 -0.00000000000E+00 -0.00000000000E+00 -0.74505805969E-08  0.93827000000E+00  0.93827000000E+00 0.  1.
     999902    2    1    2    0    0  0.11762273892E-02  0.11943106348E-01  0.88989778095E-02  0.10289896819E+01  0.10288812139E+01 0.  0.
     999903    2    3    3    0    0  0.59057362159E-01 -0.20498695323E-01 -0.12034900979E+00  0.13707727665E+00  0.19958133220E-01 0.  0.
         14    1    1    2    0    0 -0.11762273892E-02 -0.11943106348E-01 -0.88989778095E-02  0.14940318142E-01  0.00000000000E+00 0.  1.
     999901    1    3    3    0    0 -0.57881134770E-01  0.32441801671E-01  0.12924798760E+00  0.89191240520E+00  0.88000000000E+00 0. -1.
        -11    1    4    4    0    0  0.44374528309E-01 -0.63421703100E-02 -0.75498970268E-01  0.87804769343E-01  0.51100000000E-03 0. -1.
         11    1    4    4    0    0  0.14682833850E-01 -0.14156525013E-01 -0.44850039525E-01  0.49272507311E-01  0.51100000000E-03 0.  1.
</event>
<event>
 8    1  0.1150307E+005  0.1043930E+01  0.7957747E-01            NaN
         13   -1    0    0    0    0  0.00000000000E+00  0.00000000000E+00  0.74505805969E-08  0.10566000000E+00  0.10566000000E+00 0. -1.
     999900   -1    0    0    0    0 -0.00000000000E+00 -0.00000000000E+00 -0.74505805969E-08  0.93827000000E+00  0.93827000000E+00 0. -1.
     999902    2    1    2    0    0  0.20003056480E-01  0.10637012962E-01  0.95634651168E-02  0.10193387784E+01  0.10190421076E+01 0.  0.
     999903    2    3    3    0    0 -0.55830553259E-01  0.10205291429E+00  0.55308785341E-01  0.13018174072E+00  0.18877920684E-01 0.  0.
         14    1    1    2    0    0 -0.20003056480E-01 -0.10637012962E-01 -0.95634651168E-02  0.24591221571E-01  0.00000000000E+00 0.  1.
     999901    1    3    3    0    0  0.75833609740E-01 -0.91415901327E-01 -0.45745320225E-01  0.88915703771E+00  0.88000000000E+00 0. -1.
        -11    1    4    4    0    0 -0.11595871367E-01  0.39877883774E-01  0.18730466021E-01  0.45560962736E-01  0.51100000000E-03 0. -1.
         11    1    4    4    0    0 -0.44234681893E-01  0.62175030515E-01  0.36578319320E-01  0.84620777986E-01  0.51100000000E-03 0.  1.
</event>
<event>
 8    1  0.1150307E+005  0.1043930E+01  0.7957747E-01            NaN
         13   -1    0    0    0    0  0.00000000000E+00  0.00000000000E+00  0.74505805969E-08  0.10566000000E+00  0.10566000000E+00 0.  1.
     999900   -1    0    0    0    0 -0.00000000000E+00 -0.00000000000E+00 -0.74505805969E-08  0.93827000000E+00  0.93827000000E+00 0. -1.
     999902    2    1    2    0    0 -0.21340469167E-01 -0.88454099776E-02 -0.34418812153E-02  0.10205739848E+01  0.10203066965E+01 0.  0.
     999903    2    3    3    0    0 -0.13119713196E+00 -0.89854708396E-02  0.13048995664E-01  0.13359007566E+00  0.19560314575E-01 0.  0.
         14    1    1    2    0    0  0.21340469167E-01  0.88454099776E-02  0.34418812153E-02  0.23356015248E-01  0.00000000000E+00 0.  1.
     999901    1    3    3    0    0  0.10985666279E+00  0.14006086202E-03 -0.16490876879E-01  0.88698390910E+00  0.88000000000E+00 0. -1.
        -11    1    4    4    0    0 -0.12575532354E+00 -0.48886065380E-02  0.10460401623E-01  0.12628531583E+00  0.51100000000E-03 0. -1.
         11    1    4    4    0    0 -0.54418084195E-02 -0.40968643016E-02  0.25885940411E-02  0.73047598242E-02  0.51100000000E-03 0.  1.
</event>
<event>
 8    1  0.1150307E+005  0.1043930E+01  0.7957747E-01            NaN
         13   -1    0    0    0    0  0.00000000000E+00  0.00000000000E+00  0.74505805969E-08  0.10566000000E+00  0.10566000000E+00 0. -1.
     999900   -1    0    0    0    0 -0.00000000000E+00 -0.00000000000E+00 -0.74505805969E-08  0.93827000000E+00  0.93827000000E+00 0. -1.
     999902    2    1    2    0    0  0.68699766125E-03  0.18044266332E-01  0.14802371521E-01  0.10205809590E+01  0.10203138322E+01 0.  0.
     999903    2    3    3    0    0 -0.99854738986E-01  0.84068573088E-01 -0.75154176420E-02  0.13211827908E+00  0.18980629214E-01 0.  0.
         14    1    1    2    0    0 -0.68699766125E-03 -0.18044266332E-01 -0.14802371521E-01  0.23349041006E-01  0.00000000000E+00 0.  1.
     999901    1    3    3    0    0  0.10054173665E+00 -0.66024306756E-01  0.22317789163E-01  0.88846267992E+00  0.88000000000E+00 0.  1.
        -11    1    4    4    0    0 -0.34401328453E-01  0.29305077192E-01  0.64105521720E-02  0.45646415507E-01  0.51100000000E-03 0. -1.
         11    1    4    4    0    0 -0.65453410533E-01  0.54763495896E-01 -0.13925969814E-01  0.86471863571E-01  0.51100000000E-03 0.  1.
</event>
<event>
 8    1  0.1150307E+005  0.1043930E+01  0.7957747E-01            NaN
         13   -1    0    0    0    0  0.00000000000E+00  0.00000000000E+00  0.74505805969E-08  0.10566000000E+00  0.10566000000E+00 0.  1.
     999900   -1    0    0    0    0 -0.00000000000E+00 -0.00000000000E+00 -0.74505805969E-08  0.93827000000E+00  0.93827000000E+00 0. -1.
     999902    2    1    2    0    0 -0.70686198474E-02  0.16768205524E-01  0.16286176363E-01  0.10195091556E+01  0.10192166309E+01 0.  0.
     999903    2    3    3    0    0  0.67533094417E-01 -0.10300264183E+00 -0.24981148555E-01  0.12731328930E+00  0.20355657318E-01 0.  0.
         14    1    1    2    0    0  0.70686198474E-02 -0.16768205524E-01 -0.16286176363E-01  0.24420844448E-01  0.00000000000E+00 0. -1.
     999901    1    3    3    0    0 -0.74601714264E-01  0.11977084735E+00  0.41267324919E-01  0.89219586625E+00  0.88000000000E+00 0.  1.
        -11    1    4    4    0    0  0.34738571286E-01 -0.63617222548E-01 -0.62916480593E-02  0.72758266170E-01  0.51100000000E-03 0.  1.
         11    1    4    4    0    0  0.32794523131E-01 -0.39385419280E-01 -0.18689500496E-01  0.54555023133E-01  0.51100000000E-03 0. -1.
</event>
<event>
 8    1  0.1150307E+005  0.1043930E+01  0.7957747E-01            NaN
         13   -1    0    0    0    0  0.00000000000E+00  0.00000000000E+00  0.74505805969E-08  0.10566000000E+00  0.10566000000E+00 0.  1.
     999900   -1    0    0    0    0 -0.00000000000E+00 -0.00000000000E+00 -0.74505805969E-08  0.93827000000E+00  0.93827000000E+00 0.  1.
     999902    2    1    2    0    0 -0.24213561748E-01  0.17158724095E-02 -0.83016518475E-03  0.10196415261E+01  0.10193522020E+01 0.  0.
     999903    2    3    3    0    0 -0.76045410846E-01 -0.13859226964E-01 -0.10492122048E+00  0.13185547523E+00  0.20060437659E-01 0.  0.
         14    1    1    2    0    0  0.24213561748E-01 -0.17158724095E-02  0.83016518475E-03  0.24288473911E-01  0.00000000000E+00 0. -1.
     999901    1    3    3    0    0  0.51831849098E-01  0.15575099373E-01  0.10409105530E+00  0.88778605086E+00  0.88000000000E+00 0. -1.
        -11    1    4    4    0    0 -0.45317984311E-01  0.12669926352E-02 -0.54379290572E-01  0.70800376669E-01  0.51100000000E-03 0. -1.
         11    1    4    4    0    0 -0.30727426536E-01 -0.15126219599E-01 -0.50541929909E-01  0.61055098565E-01  0.51100000000E-03 0.  1.
</event>
<event>
 8    1  0.1150307E+005  0.1043930E+01  0.7957747E-01            NaN
         13   -1    0    0    0    0  0.00000000000E+00  0.00000000000E+00  0.74505805969E-08  0.10566000000E+00  0.10566000000E+00 0.  1.
     999900   -1    0    0    0    0 -0.00000000000E+00 -0.00000000000E+00 -0.74505805969E-08  0.93827000000E+00  0.93827000000E+00 0. -1.
     999902    2    1    2    0    0  0.91249058795E-02 -0.20873682186E-01 -0.12319184954E-02  0.10211157032E+01  0.10208608070E+01 0.  0.
     999903    2    3    3    0    0  0.69580550213E-01  0.70143622851E-01  0.83373199478E-01  0.13033118339E+00  0.16539231470E-01 0.  0.
         14    1    1    2    0    0 -0.91249058795E-02  0.20873682186E-01  0.12319184954E-02  0.22814296800E-01  0.00000000000E+00 0. -1.
     999901    1    3    3    0    0 -0.60455644334E-01 -0.91017305037E-01 -0.84605117973E-01  0.89078451981E+00  0.88000000000E+00 0. -1.
        -11    1    4    4    0    0  0.48891235544E-01  0.56045132539E-01  0.55093213304E-01  0.92557728297E-01  0.51100000000E-03 0. -1.
         11    1    4    4    0    0  0.20689314669E-01  0.14098490312E-01  0.28279986173E-01  0.37773455091E-01  0.51100000000E-03 0.  1.
</event>
<event>
 8    1  0.1150307E+005  0.1043930E+01  0.7957747E-01            NaN
         13   -1    0    0    0    0  0.00000000000E+00  0.00000000000E+00  0.74505805969E-08  0.10566000000E+00  0.10566000000E+00 0.  1.
     999900   -1    0    0    0    0 -0.00000000000E+00 -0.00000000000E+00 -0.74505805969E-08  0.93827000000E+00  0.93827000000E+00 0. -1.
     999902    2    1    2    0    0  0.12981115337E-01  0.18255739302E-01 -0.27367859869E-02  0.10213629583E+01  0.10211136182E+01 0.  0.
     999903    2    3    3    0    0  0.27982570237E-01 -0.28966944805E-01 -0.12385288805E+00  0.13168653639E+00  0.19485837413E-01 0.  0.
         14    1    1    2    0    0 -0.12981115337E-01 -0.18255739302E-01  0.27367859869E-02  0.22567041685E-01  0.00000000000E+00 0.  1.
     999901    1    3    3    0    0 -0.15001454899E-01  0.47222684107E-01  0.12111610207E+00  0.88967642192E+00  0.88000000000E+00 0.  1.
        -11    1    4    4    0    0  0.11221305686E-01 -0.87050774327E-02 -0.19869932273E-01  0.24428905091E-01  0.51100000000E-03 0.  1.
         11    1    4    4    0    0  0.16761264551E-01 -0.20261867372E-01 -0.10398295578E+00  0.10725763130E+00  0.51100000000E-03 0. -1.
</event>
<event>
 8    1  0.1150307E+005  0.1043930E+01  0.7957747E-01            NaN
         13   -1    0    0    0    0  0.00000000000E+00  0.00000000000E+00  0.74505805969E-08  0.10566000000E+00  0.10566000000E+00 0. -1.
     999900   -1    0    0    0    0 -0.00000000000E+00 -0.00000000000E+00 -0.74505805969E-08  0.93827000000E+00  0.93827000000E+00 0.  1.
     999902    2    1    2    0    0  0.21439639156E-01  0.83258653817E-02  0.62962385364E-02  0.10200842293E+01  0.10198054785E+01 0.  0.
     999903    2    3    3    0    0  0.51294397992E-01  0.10279988328E+00  0.63196723565E-01  0.13269800453E+00  0.20396158183E-01 0.  0.
         14    1    1    2    0    0 -0.21439639156E-01 -0.83258653817E-02 -0.62962385364E-02  0.23845770720E-01  0.00000000000E+00 0. -1.
     999901    1    3    3    0    0 -0.29854758836E-01 -0.94474017899E-01 -0.56900485028E-01  0.88738622475E+00  0.88000000000E+00 0.  1.
        -11    1    4    4    0    0  0.33403489527E-01  0.64551384829E-01  0.50834815848E-01  0.88696753149E-01  0.51100000000E-03 0. -1.
         11    1    4    4    0    0  0.17890908465E-01  0.38248498452E-01  0.12361907716E-01  0.44001251379E-01  0.51100000000E-03 0.  1.
</event>
<event>
 8    1  0.1150307E+005  0.1043930E+01  0.7957747E-01            NaN
         13   -1    0    0    0    0  0.00000000000E+00  0.00000000000E+00  0.74505805969E-08  0.10566000000E+00  0.10566000000E+00 0. -1.
     999900   -1    0    0    0    0 -0.00000000000E+00 -0.00000000000E+00 -0.74505805969E-08  0.93827000000E+00  0.93827000000E+00 0.  1.
     999902    2    1    2    0    0  0.23172505957E-01  0.42261325930E-02  0.25049928758E-02  0.10202424459E+01  0.10199674251E+01 0.  0.
     999903    2    3    3    0    0 -0.26341273383E-01  0.12605381868E+00 -0.43135861510E-02  0.13044466414E+00  0.20341472127E-01 0.  0.
         14    1    1    2    0    0 -0.23172505957E-01 -0.42261325930E-02 -0.25049928758E-02  0.23687554081E-01  0.00000000000E+00 0. -1.
     999901    1    3    3    0    0  0.49513779340E-01 -0.12182768609E+00  0.68185790268E-02  0.88979778178E+00  0.88000000000E+00 0.  1.
        -11    1    4    4    0    0 -0.15840800932E-02  0.28343044889E-01 -0.82560893270E-02  0.29567915640E-01  0.51100000000E-03 0.  1.
         11    1    4    4    0    0 -0.24757193290E-01  0.97710773795E-01  0.39425031760E-02  0.10087674850E+00  0.51100000000E-03 0. -1.
</event>
<event>
 8    1  0.1150307E+005  0.1043930E+01  0.7957747E-01            NaN
         13   -1    0    0    0    0  0.00000000000E+00  0.00000000000E+00  0.74505805969E-08  0.10566000000E+00  0.10566000000E+00 0. -1.
     999900   -1    0    0    0    0 -0.00000000000E+00 -0.00000000000E+00 -0.74505805969E-08  0.93827000000E+00  0.93827000000E+00 0. -1.
     999902    2    1    2    0    0 -0.16345230062E-01 -0.13744480453E-01  0.87742495863E-02  0.10208418051E+01  0.10205806809E+01 0.  0.
     999903    2    3    3    0    0  0.73069453508E-01 -0.10621949763E+00 -0.32347575376E-02  0.13140893483E+00  0.25221375537E-01 0.  0.
         14    1    1    2    0    0  0.16345230062E-01  0.13744480453E-01 -0.87742495863E-02  0.23088194917E-01  0.00000000000E+00 0.  1.
     999901    1    3    3    0    0 -0.89414683570E-01  0.92475017174E-01  0.12009007124E-01  0.88943287026E+00  0.88000000000E+00 0. -1.
        -11    1    4    4    0    0  0.51238795155E-01 -0.59649119553E-01 -0.10958943563E-01  0.79396417787E-01  0.51100000000E-03 0.  1.
         11    1    4    4    0    0  0.21830658353E-01 -0.46570378074E-01  0.77241860252E-02  0.52012517040E-01  0.51100000000E-03 0. -1.
</event>
<event>
 8    1  0.1150307E+005  0.1043930E+01  0.7957747E-01            NaN
         13   -1    0    0    0    0  0.00000000000E+00  0.00000000000E+00  0.74505805969E-08  0.10566000000E+00  0.10566000000E+00 0.  1.
     999900   -1    0    0    0    0 -0.00000000000E+00 -0.00000000000E+00 -0.74505805969E-08  0.93827000000E+00  0.93827000000E+00 0. -1.
     999902    2    1    2    0    0 -0.20667026326E-01  0.12500344493E-01 -0.39686867919E-02  0.10194527644E+01  0.10191588707E+01 0.  0.
     999903    2    3    3    0    0 -0.37646212465E-01 -0.11322861337E+00  0.44874324786E-01  0.12901371345E+00  0.19821126003E-01 0.  0.
         14    1    1    2    0    0  0.20667026326E-01 -0.12500344493E-01  0.39686867919E-02  0.24477235638E-01  0.00000000000E+00 0.  1.
     999901    1    3    3    0    0  0.16979186138E-01  0.12572895786E+00 -0.48843011577E-01  0.89043905091E+00  0.88000000000E+00 0.  1.
        -11    1    4    4    0    0 -0.61272955792E-03 -0.28161997378E-01  0.10949503593E-01  0.30226251566E-01  0.51100000000E-03 0.  1.
         11    1    4    4    0    0 -0.37033482907E-01 -0.85066615988E-01  0.33924821192E-01  0.98787461885E-01  0.51100000000E-03 0. -1.
</event>
<event>
 8    1  0.1150307E+005  0.1043930E+01  0.7957747E-01            NaN
         13   -1    0    0    0    0  0.00000000000E+00  0.00000000000E+00  0.74505805969E-08  0.10566000000E+00  0.10566000000E+00 0.  1.
     999900   -1    0    0    0    0 -0.00000000000E+00 -0.00000000000E+00 -0.74505805969E-08  0.93827000000E+00  0.93827000000E+00 0. -1.
     999902    2    1    2    0    0  0.15309409535E-01 -0.47289781086E-03  0.18250539958E-01  0.10201038828E+01  0.10198255968E+01 0.  0.
     999903    2    3    3    0    0 -0.11172296671E+00  0.32624464707E-01  0.55340269855E-01  0.12959374355E+00  0.13624093033E-01 0.  0.
         14    1    1    2    0    0 -0.15309409535E-01  0.47289781086E-03 -0.18250539958E-01  0.23826117212E-01  0.00000000000E+00 0. -1.
     999901    1    3    3    0    0  0.12703237625E+00 -0.33097362518E-01 -0.37089729897E-01  0.89051013924E+00  0.88000000000E+00 0.  1.
        -11    1    4    4    0    0 -0.45857171459E-01  0.18399739777E-01  0.28618592149E-01  0.57102675381E-01  0.51100000000E-03 0.  1.
         11    1    4    4    0    0 -0.65865795255E-01  0.14224724930E-01  0.26721677706E-01  0.72491068169E-01  0.51100000000E-03 0. -1.
</event>
<event>
 8    1  0.1150307E+005  0.1043930E+01  0.7957747E-01            NaN
         13   -1    0    0    0    0  0.00000000000E+00  0.00000000000E+00  0.74505805969E-08  0.10566000000E+00  0.10566000000E+00 0.  1.
     999900   -1    0    0    0    0 -0.00000000000E+00 -0.00000000000E+00 -0.74505805969E-08  0.93827000000E+00  0.93827000000E+00 0. -1.
     999902    2    1    2    0    0  0.14191908604E-01  0.77338238609E-02 -0.17676362059E-01  0.10199784640E+01  0.10196972055E+01 0.  0.
     999903    2    3    3    0    0 -0.18061571272E-01  0.60059860122E-01 -0.11492534147E+00  0.13249006124E+00  0.20307019954E-01 0.  0.
         14    1    1    2    0    0 -0.14191908604E-01 -0.77338238609E-02  0.17676362059E-01  0.23951536004E-01  0.00000000000E+00 0.  1.
     999901    1    3    3    0    0  0.32253479876E-01 -0.52326036261E-01  0.97248979413E-01  0.88748840276E+00  0.88000000000E+00 0.  1.
        -11    1    4    4    0    0 -0.14230392702E-01  0.48970584778E-01 -0.73699516151E-01  0.89624226924E-01  0.51100000000E-03 0.  1.
         11    1    4    4    0    0 -0.38311785699E-02  0.11089275344E-01 -0.41225825321E-01  0.42865834312E-01  0.51100000000E-03 0. -1.
</event>
<event>
 8    1  0.1150307E+005  0.1043930E+01  0.7957747E-01            NaN
         13   -1    0    0    0    0  0.00000000000E+00  0.00000000000E+00  0.74505805969E-08  0.10566000000E+00  0.10566000000E+00 0.  1.
     999900   -1    0    0    0    0 -0.00000000000E+00 -0.00000000000E+00 -0.74505805969E-08  0.93827000000E+00  0.93827000000E+00 0. -1.
     999902    2    1    2    0    0 -0.63388371287E-02  0.72070003183E-02 -0.22099251342E-01  0.10198364610E+01  0.10195518175E+01 0.  0.
     999903    2    3    3    0    0 -0.99063522137E-01 -0.48021285699E-01  0.64353301776E-01  0.12903790091E+00  0.19743533724E-01 0.  0.
         14    1    1    2    0    0  0.63388371287E-02 -0.72070003183E-02  0.22099251342E-01  0.24093538960E-01  0.00000000000E+00 0.  1.
     999901    1    3    3    0    0  0.92724685008E-01  0.55228286017E-01 -0.86452553118E-01  0.89079856013E+00  0.88000000000E+00 0. -1.
        -11    1    4    4    0    0 -0.33941147539E-01 -0.20134989521E-01  0.33496714552E-01  0.51765918383E-01  0.51100000000E-03 0.  1.
         11    1    4    4    0    0 -0.65122374599E-01 -0.27886296177E-01  0.30856587225E-01  0.77271982529E-01  0.51100000000E-03 0. -1.
</event>
<event>
 8    1  0.1150307E+005  0.1043930E+01  0.7957747E-01            NaN
         13   -1    0    0    0    0  0.00000000000E+00  0.00000000000E+00  0.74505805969E-08  0.10566000000E+00  0.10566000000E+00 0.  1.
     999900   -1    0    0    0    0 -0.00000000000E+00 -0.00000000000E+00 -0.74505805969E-08  0.93827000000E+00  0.93827000000E+00 0. -1.
     999902    2    1    2    0    0 -0.60262676946E-02 -0.12655925575E-01 -0.20207679763E-01  0.10193365318E+01  0.10190398061E+01 0.  0.
     999903    2    3    3    0    0 -0.12528526002E+00 -0.18373811084E-01  0.22175587746E-01  0.13026300124E+00  0.21040425071E-01 0.  0.
         14    1    1    2    0    0  0.60262676946E-02  0.12655925575E-01  0.20207679763E-01  0.24593468155E-01  0.00000000000E+00 0.  1.
     999901    1    3    3    0    0  0.11925899232E+00  0.57178855088E-02 -0.42383267509E-01  0.88907353061E+00  0.88000000000E+00 0.  1.
        -11    1    4    4    0    0 -0.76197926981E-01 -0.19066468088E-01  0.69226032857E-02  0.78853267775E-01  0.51100000000E-03 0.  1.
         11    1    4    4    0    0 -0.49087333038E-01  0.69265700364E-03  0.15252984461E-01  0.51409733461E-01  0.51100000000E-03 0. -1.
</event>
<event>
 8    1  0.1150307E+005  0.1043930E+01  0.7957747E-01            NaN
         13   -1    0    0    0    0  0.00000000000E+00  0.00000000000E+00  0.74505805969E-08  0.10566000000E+00  0.10566000000E+00 0. -1.
     999900   -1    0    0    0    0 -0.00000000000E+00 -0.00000000000E+00 -0.74505805969E-08  0.93827000000E+00  0.93827000000E+00 0. -1.
     999902    2    1    2    0    0  0.97317652539E-02 -0.19185342602E-01 -0.66419516387E-02  0.10214155569E+01  0.10211673907E+01 0.  0.
     999903    2    3    3    0    0 -0.63026071999E-01 -0.19540506485E-02  0.11244826205E+00  0.13025165544E+00  0.18568199725E-01 0.  0.
         14    1    1    2    0    0 -0.97317652539E-02  0.19185342602E-01  0.66419516387E-02  0.22514443082E-01  0.00000000000E+00 0. -1.
     999901    1    3    3    0    0  0.72757837253E-01 -0.17231291954E-01 -0.11909021369E+00  0.89116390148E+00  0.88000000000E+00 0. -1.
        -11    1    4    4    0    0 -0.93133293632E-02  0.60531750267E-02  0.14727630266E-01  0.18453813860E-01  0.51100000000E-03 0. -1.
         11    1    4    4    0    0 -0.53712742635E-01 -0.80072256752E-02  0.97720631784E-01  0.11179784158E+00  0.51100000000E-03 0.  1.
</event>
<event>
 8    1  0.1150307E+005  0.1043930E+01  0.7957747E-01            NaN
         13   -1    0    0    0    0  0.00000000000E+00  0.00000000000E+00  0.74505805969E-08  0.10566000000E+00  0.10566000000E+00 0. -1.
     999900   -1    0    0    0    0 -0.00000000000E+00 -0.00000000000E+00 -0.74505805969E-08  0.93827000000E+00  0.93827000000E+00 0. -1.
     999902    2    1    2    0    0 -0.19231718047E-01  0.10999098155E-01 -0.80864521505E-02  0.10203454744E+01  0.10200728686E+01 0.  0.
     999903    2    3    3    0    0 -0.60325721955E-01  0.63347548048E-01  0.96234474803E-01  0.13168809770E+00  0.20702085957E-01 0.  0.
         14    1    1    2    0    0  0.19231718047E-01 -0.10999098155E-01  0.80864521505E-02  0.23584525597E-01  0.00000000000E+00 0. -1.
     999901    1    3    3    0    0  0.41094003909E-01 -0.52348449893E-01 -0.10432092695E+00  0.88865737670E+00  0.88000000000E+00 0. -1.
        -11    1    4    4    0    0 -0.15283125223E-01  0.26633281722E-01  0.43268469453E-01  0.53059656818E-01  0.51100000000E-03 0. -1.
         11    1    4    4    0    0 -0.45042596733E-01  0.36714266326E-01  0.52966005350E-01  0.78628440885E-01  0.51100000000E-03 0.  1.
</event>
<event>
 8    1  0.1150307E+005  0.1043930E+01  0.7957747E-01            NaN
         13   -1    0    0    0    0  0.00000000000E+00  0.00000000000E+00  0.74505805969E-08  0.10566000000E+00  0.10566000000E+00 0. -1.
     999900   -1    0    0    0    0 -0.00000000000E+00 -0.00000000000E+00 -0.74505805969E-08  0.93827000000E+00  0.93827000000E+00 0.  1.
     999902    2    1    2    0    0 -0.90230198380E-02  0.21033194834E-01  0.42927504515E-02  0.10206439982E+01  0.10203783285E+01 0.  0.
     999903    2    3    3    0    0 -0.94244644689E-01 -0.86865853861E-01  0.78407454925E-02  0.12996026181E+00  0.20011565186E-01 0.  0.
         14    1    1    2    0    0  0.90230198380E-02 -0.21033194834E-01 -0.42927504515E-02  0.23286001768E-01  0.00000000000E+00 0. -1.
     999901    1    3    3    0    0  0.85221624851E-01  0.10789904869E+00 -0.35479950410E-02  0.89068373642E+00  0.88000000000E+00 0.  1.
        -11    1    4    4    0    0 -0.23816641489E-01 -0.13576422857E-01 -0.36775439255E-02  0.27664726995E-01  0.51100000000E-03 0. -1.
         11    1    4    4    0    0 -0.70428003201E-01 -0.73289431003E-01  0.11518289418E-01  0.10229553482E+00  0.51100000000E-03 0.  1.
</event>
<event>
 8    1  0.1150307E+005  0.1043930E+01  0.7957747E-01            NaN
         13   -1    0    0    0    0  0.00000000000E+00  0.00000000000E+00  0.74505805969E-08  0.10566000000E+00  0.10566000000E+00 0. -1.
     999900   -1    0    0    0    0 -0.00000000000E+00 -0.00000000000E+00 -0.74505805969E-08  0.93827000000E+00  0.93827000000E+00 0. -1.
     999902    2    1    2    0    0 -0.19393473348E-01  0.95867366347E-02  0.90863121448E-02  0.10204656995E+01  0.10201958981E+01 0.  0.
     999903    2    3    3    0    0 -0.55002912713E-01  0.55734008482E-01  0.10581819142E+00  0.13324833083E+00  0.20640443885E-01 0.  0.
         14    1    1    2    0    0  0.19393473348E-01 -0.95867366347E-02 -0.90863121448E-02  0.23464300462E-01  0.00000000000E+00 0.  1.
     999901    1    3    3    0    0  0.35609439365E-01 -0.46147271847E-01 -0.96731879280E-01  0.88721736871E+00  0.88000000000E+00 0.  1.
        -11    1    4    4    0    0 -0.39792910869E-01  0.51652966673E-01  0.86302549470E-01  0.10816605700E+00  0.51100000000E-03 0.  1.
         11    1    4    4    0    0 -0.15210001845E-01  0.40810418087E-02  0.19515641955E-01  0.25082273825E-01  0.51100000000E-03 0. -1.
</event>
<event>
 8    1  0.1150307E+005  0.1043930E+01  0.7957747E-01            NaN
         13   -1    0    0    0    0  0.00000000000E+00  0.00000000000E+00  0.74505805969E-08  0.10566000000E+00  0.10566000000E+00 0.  1.
     999900   -1    0    0    0    0 -0.00000000000E+00 -0.00000000000E+00 -0.74505805969E-08  0.93827000000E+00  0.93827000000E+00 0. -1.
     999902    2    1    2    0    0 -0.74574934923E-02 -0.18881569583E-01 -0.12949019005E-01  0.10198508602E+01  0.10195665609E+01 0.  0.
     999903    2    3    3    0    0  0.10109915247E+00  0.74997764809E-01  0.11179720788E-01  0.12789790693E+00  0.19677019203E-01 0.  0.
         14    1    1    2    0    0  0.74574934923E-02  0.18881569583E-01  0.12949019005E-01  0.24079139775E-01  0.00000000000E+00 0. -1.
     999901    1    3    3    0    0 -0.10855664596E+00 -0.93879334392E-01 -0.24128739792E-01  0.89195295329E+00  0.88000000000E+00 0.  1.
        -11    1    4    4    0    0  0.55565879929E-01  0.51710834007E-01  0.11362433913E-01  0.76752481337E-01  0.51100000000E-03 0. -1.
         11    1    4    4    0    0  0.45533272536E-01  0.23286930802E-01 -0.18271312489E-03  0.51145425593E-01  0.51100000000E-03 0.  1.
</event>
<event>
 8    1  0.1150307E+005  0.1043930E+01  0.7957747E-01            NaN
         13   -1    0    0    0    0  0.00000000000E+00  0.00000000000E+00  0.74505805969E-08  0.10566000000E+00  0.10566000000E+00 0. -1.
     999900   -1    0    0    0    0 -0.00000000000E+00 -0.00000000000E+00 -0.74505805969E-08  0.93827000000E+00  0.93827000000E+00 0.  1.
     999902    2    1    2    0    0  0.16589697771E-01 -0.13029428690E-01  0.86610577265E-02  0.10211265352E+01  0.10208718837E+01 0.  0.
     999903    2    3    3    0    0 -0.99190239701E-01 -0.81327812249E-01  0.16496851883E-01  0.13088439807E+00  0.20141073448E-01 0.  0.
         14    1    1    2    0    0 -0.16589697771E-01  0.13029428690E-01 -0.86610577265E-02  0.22803464760E-01  0.00000000000E+00 0.  1.
     999901    1    3    3    0    0  0.11577993747E+00  0.68298383559E-01 -0.78357941560E-02  0.89024213717E+00  0.88000000000E+00 0.  1.
        -11    1    4    4    0    0 -0.85774705026E-01 -0.63728624255E-01  0.19247697850E-01  0.10857887716E+00  0.51100000000E-03 0. -1.
         11    1    4    4    0    0 -0.13415534675E-01 -0.17599187994E-01 -0.27508459672E-02  0.22305520913E-01  0.51100000000E-03 0.  1.
</event>
<event>
 8    1  0.1150307E+005  0.1043930E+01  0.7957747E-01            NaN
         13   -1    0    0    0    0  0.00000000000E+00  0.00000000000E+00  0.74505805969E-08  0.10566000000E+00  0.10566000000E+00 0. -1.
     999900   -1    0    0    0    0 -0.00000000000E+00 -0.00000000000E+00 -0.74505805969E-08  0.93827000000E+00  0.93827000000E+00 0. -1.
     999902    2    1    2    0    0 -0.11653610579E-01 -0.12380637268E-01 -0.16621255694E-01  0.10201528480E+01  0.10198757180E+01 0.  0.
     999903    2    3    3    0    0 -0.54855968999E-01 -0.11102046985E+00  0.40601565252E-01  0.13174375773E+00  0.19318606066E-01 0.  0.
         14    1    1    2    0    0  0.11653610579E-01  0.12380637268E-01  0.16621255694E-01  0.23777152048E-01  0.00000000000E+00 0. -1.
     999901    1    3    3    0    0  0.43202358421E-01  0.98639832582E-01 -0.57222820947E-01  0.88840909022E+00  0.88000000000E+00 0. -1.
        -11    1    4    4    0    0 -0.10112400043E-01 -0.40957749150E-01  0.12969841495E-01  0.44139276834E-01  0.51100000000E-03 0. -1.
         11    1    4    4    0    0 -0.44743568957E-01 -0.70062720700E-01  0.27631723758E-01  0.87604480899E-01  0.51100000000E-03 0.  1.
</event>
<event>
 8    1  0.1150307E+005  0.1043930E+01  0.7957747E-01            NaN
         13   -1    0    0    0    0  0.00000000000E+00  0.00000000000E+00  0.74505805969E-08  0.10566000000E+00  0.10566000000E+00 0.  1.
     999900   -1    0    0    0    0 -0.00000000000E+00 -0.00000000000E+00 -0.74505805969E-08  0.93827000000E+00  0.93827000000E+00 0.  1.
     999902    2    1    2    0    0 -0.21862608357E-01  0.12240239949E-02 -0.11951075230E-01  0.10189840569E+01  0.10186786579E+01 0.  0.
     999903    2    3    3    0    0 -0.79193881712E-01  0.37451275635E-01 -0.97179840203E-01  0.13226920359E+00  0.19415249924E-01 0.  0.
         14    1    1    2    0    0  0.21862608357E-01 -0.12240239949E-02  0.11951075230E-01  0.24945943118E-01  0.00000000000E+00 0.  1.
     999901    1    3    3    0    0  0.57331273355E-01 -0.36227251640E-01  0.85228764974E-01  0.88671485329E+00  0.88000000000E+00 0. -1.
        -11    1    4    4    0    0 -0.30164237952E-01  0.24880148463E-01 -0.41604257160E-01  0.57097096017E-01  0.51100000000E-03 0. -1.
         11    1    4    4    0    0 -0.49029643760E-01  0.12571127172E-01 -0.55575583043E-01  0.75172107575E-01  0.51100000000E-03 0.  1.
</event>
<event>
 8    1  0.1150307E+005  0.1043930E+01  0.7957747E-01            NaN
         13   -1    0    0    0    0  0.00000000000E+00  0.00000000000E+00  0.74505805969E-08  0.10566000000E+00  0.10566000000E+00 0.  1.
     999900   -1    0    0    0    0 -0.00000000000E+00 -0.00000000000E+00 -0.74505805969E-08  0.93827000000E+00  0.93827000000E+00 0.  1.
     999902    2    1    2    0    0  0.17037784854E-01  0.15760391979E-01  0.92127159710E-04  0.10207204210E+01  0.10204565122E+01 0.  0.
     999903    2    3    3    0    0  0.93816104236E-01 -0.50207018643E-02  0.91213594641E-01  0.13244687870E+00  0.19889368227E-01 0.  0.
         14    1    1    2    0    0 -0.17037784854E-01 -0.15760391979E-01 -0.92127159710E-04  0.23209578960E-01  0.00000000000E+00 0.  1.
     999901    1    3    3    0    0 -0.76778319381E-01  0.20781093844E-01 -0.91121467481E-01  0.88827354234E+00  0.88000000000E+00 0.  1.
        -11    1    4    4    0    0  0.36047738204E-01 -0.22359566401E-02  0.48850827814E-01  0.60754451943E-01  0.51100000000E-03 0.  1.
         11    1    4    4    0    0  0.57768366031E-01 -0.27847452242E-02  0.42362766827E-01  0.71692426756E-01  0.51100000000E-03 0. -1.
</event>
<event>
 8    1  0.1150307E+005  0.1043930E+01  0.7957747E-01            NaN
         13   -1    0    0    0    0  0.00000000000E+00  0.00000000000E+00  0.74505805969E-08  0.10566000000E+00  0.10566000000E+00 0. -1.
     999900   -1    0    0    0    0 -0.00000000000E+00 -0.00000000000E+00 -0.74505805969E-08  0.93827000000E+00  0.93827000000E+00 0.  1.
     999902    2    1    2    0    0  0.70030637537E-02  0.39435044411E-02 -0.21552498490E-01  0.10209277323E+01  0.10206685702E+01 0.  0.
     999903    2    3    3    0    0 -0.84593807302E-01  0.73636163294E-02 -0.98955149381E-01  0.13278762266E+00  0.25101714333E-01 0.  0.
         14    1    1    2    0    0 -0.70030637537E-02 -0.39435044411E-02  0.21552498490E-01  0.23002267723E-01  0.00000000000E+00 0. -1.
     999901    1    3    3    0    0  0.91596871056E-01 -0.34201118882E-02  0.77402650891E-01  0.88814010962E+00  0.88000000000E+00 0. -1.
        -11    1    4    4    0    0 -0.78447535400E-01  0.11863212861E-01 -0.81530795772E-01  0.11376415696E+00  0.51100000000E-03 0.  1.
         11    1    4    4    0    0 -0.61462719024E-02 -0.44995965313E-02 -0.17424353609E-01  0.19023465692E-01  0.51100000000E-03 0. -1.
</event>
<event>
 8    1  0.1150307E+005  0.1043930E+01  0.7957747E-01            NaN
         13   -1    0    0    0    0  0.00000000000E+00  0.00000000000E+00  0.74505805969E-08  0.10566000000E+00  0.10566000000E+00 0.  1.
     999900   -1    0    0    0    0 -0.00000000000E+00 -0.00000000000E+00 -0.74505805969E-08  0.93827000000E+00  0.93827000000E+00 0.  1.
     999902    2    1    2    0    0  0.24089052265E-02  0.22093761909E-01 -0.83077097891E-02  0.10202033234E+01  0.10199273827E+01 0.  0.
     999903    2    3    3    0    0  0.85270060655E-01 -0.46801183178E-01 -0.84472498117E-01  0.13036425959E+00  0.19947512348E-01 0.  0.
         14    1    1    2    0    0 -0.24089052265E-02 -0.22093761909E-01  0.83077097891E-02  0.23726676582E-01  0.00000000000E+00 0. -1.
     999901    1    3    3    0    0 -0.82861155428E-01  0.68894945086E-01  0.76164788328E-01  0.88983906383E+00  0.88000000000E+00 0. -1.
        -11    1    4    4    0    0  0.28935825647E-01 -0.14906167449E-01 -0.16503602778E-01  0.36498025420E-01  0.51100000000E-03 0.  1.
         11    1    4    4    0    0  0.56334235007E-01 -0.31895015728E-01 -0.67968895340E-01  0.93866234168E-01  0.51100000000E-03 0. -1.
</event>
<event>
 8    1  0.1150307E+005  0.1043930E+01  0.7957747E-01            NaN
         13   -1    0    0    0    0  0.00000000000E+00  0.00000000000E+00  0.74505805969E-08  0.10566000000E+00  0.10566000000E+00 0. -1.
     999900   -1    0    0    0    0 -0.00000000000E+00 -0.00000000000E+00 -0.74505805969E-08  0.93827000000E+00  0.93827000000E+00 0. -1.
     999902    2    1    2    0    0  0.15341455766E-01 -0.12765552390E-01 -0.11510980768E-01  0.10208904195E+01  0.10206304063E+01 0.  0.
     999903    2    3    3    0    0  0.67466851054E-02  0.12799410795E+00 -0.28656341537E-02  0.12962059832E+00  0.19112253143E-01 0.  0.
         14    1    1    2    0    0 -0.15341455766E-01  0.12765552390E-01  0.11510980768E-01  0.23039580532E-01  0.00000000000E+00 0.  1.
     999901    1    3    3    0    0  0.85947706606E-02 -0.14075966034E+00 -0.86453466145E-02  0.89126982114E+00  0.88000000000E+00 0. -1.
        -11    1    4    4    0    0  0.49655779714E-02  0.84843316532E-02 -0.22367594284E-02  0.10094803709E-01  0.51100000000E-03 0. -1.
         11    1    4    4    0    0  0.17811071340E-02  0.11950977630E+00 -0.62887472523E-03  0.11952579462E+00  0.51100000000E-03 0.  1.
</event>
<event>
 8    1  0.1150307E+005  0.1043930E+01  0.7957747E-01            NaN
         13   -1    0    0    0    0  0.00000000000E+00  0.00000000000E+00  0.74505805969E-08  0.10566000000E+00  0.10566000000E+00 0. -1.
     999900   -1    0    0    0    0 -0.00000000000E+00 -0.00000000000E+00 -0.74505805969E-08  0.93827000000E+00  0.93827000000E+00 0.  1.
     999902    2    1    2    0    0  0.12764302507E-01 -0.43462832107E-02  0.19395739460E-01  0.10203077159E+01  0.10200342263E+01 0.  0.
     999903    2    3    3    0    0 -0.52611327815E-01 -0.11486021753E+00  0.26897222390E-01  0.13095763020E+00  0.21578205402E-01 0.  0.
         14    1    1    2    0    0 -0.12764302507E-01  0.43462832107E-02 -0.19395739460E-01  0.23622284086E-01  0.00000000000E+00 0.  1.
     999901    1    3    3    0    0  0.65375630321E-01  0.11051393432E+00 -0.75014829302E-02  0.88935008572E+00  0.88000000000E+00 0. -1.
        -11    1    4    4    0    0 -0.43058500784E-01 -0.95854558594E-01  0.30404507220E-01  0.10939298914E+00  0.51100000000E-03 0.  1.
         11    1    4    4    0    0 -0.95528270303E-02 -0.19005658939E-01 -0.35072848295E-02  0.21564641055E-01  0.51100000000E-03 0. -1.
</event>
<event>
 8    1  0.1150307E+005  0.1043930E+01  0.7957747E-01            NaN
         13   -1    0    0    0    0  0.00000000000E+00  0.00000000000E+00  0.74505805969E-08  0.10566000000E+00  0.10566000000E+00 0. -1.
     999900   -1    0    0    0    0 -0.00000000000E+00 -0.00000000000E+00 -0.74505805969E-08  0.93827000000E+00  0.93827000000E+00 0.  1.
     999902    2    1    2    0    0  0.18195337661E-01 -0.11467168541E-01  0.10364839205E-01  0.10200554077E+01  0.10197759747E+01 0.  0.
     999903    2    3    3    0    0 -0.92936679102E-01  0.42992845199E-02  0.87802148037E-01  0.12955249191E+00  0.20467554553E-01 0.  0.
         14    1    1    2    0    0 -0.18195337661E-01  0.11467168541E-01 -0.10364839205E-01  0.23874592325E-01  0.00000000000E+00 0.  1.
     999901    1    3    3    0    0  0.11113201676E+00 -0.15766453061E-01 -0.77437308832E-01  0.89050291577E+00  0.88000000000E+00 0.  1.
        -11    1    4    4    0    0 -0.18998277243E-01 -0.38992561016E-02  0.28193254638E-01  0.34223668191E-01  0.51100000000E-03 0.  1.
         11    1    4    4    0    0 -0.73938401859E-01  0.81985406215E-02  0.59608893400E-01  0.95328823717E-01  0.51100000000E-03 0. -1.
</event>
<event>
 8    1  0.1150307E+005  0.1043930E+01  0.7957747E-01            NaN
         13   -1    0    0    0    0  0.00000000000E+00  0.00000000000E+00  0.74505805969E-08  0.10566000000E+00  0.10566000000E+00 0. -1.
     999900   -1    0    0    0    0 -0.00000000000E+00 -0.00000000000E+00 -0.74505805969E-08  0.93827000000E+00  0.93827000000E+00 0.  1.
     999902    2    1    2    0    0  0.52537223709E-02 -0.21601369512E-01  0.80724763518E-02  0.10202786652E+01  0.10200044946E+01 0.  0.
     999903    2    3    3    0    0  0.10432542457E+00 -0.76868845347E-01 -0.18589331463E-01  0.13259598087E+00  0.21059850456E-01 0.  0.
         14    1    1    2    0    0 -0.52537223709E-02  0.21601369512E-01 -0.80724763518E-02  0.23651334804E-01  0.00000000000E+00 0.  1.
     999901    1    3    3    0    0 -0.99071702199E-01  0.55267475835E-01  0.26661807814E-01  0.88768268433E+00  0.88000000000E+00 0.  1.
        -11    1    4    4    0    0  0.54987346177E-01 -0.53185776186E-01 -0.12710132245E-01  0.77550909800E-01  0.51100000000E-03 0. -1.
         11    1    4    4    0    0  0.49338078393E-01 -0.23683069162E-01 -0.58791992176E-02  0.55045071068E-01  0.51100000000E-03 0.  1.
</event>
<event>
 8    1  0.1150307E+005  0.1043930E+01  0.7957747E-01            NaN
         13   -1    0    0    0    0  0.00000000000E+00  0.00000000000E+00  0.74505805969E-08  0.10566000000E+00  0.10566000000E+00 0. -1.
     999900   -1    0    0    0    0 -0.00000000000E+00 -0.00000000000E+00 -0.74505805969E-08  0.93827000000E+00  0.93827000000E+00 0. -1.
     999902    2    1    2    0    0 -0.65123038277E-02  0.97213987625E-02 -0.22003940732E-01  0.10190083407E+01  0.10187035434E+01 0.  0.
     999903    2    3    3    0    0  0.51215357878E-02  0.97974721953E-01 -0.86287500793E-01  0.13218458629E+00  0.20048835087E-01 0.  0.
         14    1    1    2    0    0  0.65123038277E-02 -0.97213987625E-02  0.22003940732E-01  0.24921659310E-01  0.00000000000E+00 0. -1.
     999901    1    3    3    0    0 -0.11633839615E-01 -0.88253323191E-01  0.64283560061E-01  0.88682375440E+00  0.88000000000E+00 0.  1.
        -11    1    4    4    0    0  0.65109892737E-02  0.55612794243E-01 -0.36704248303E-01  0.66952511748E-01  0.51100000000E-03 0. -1.
         11    1    4    4    0    0 -0.13894534860E-02  0.42361927710E-01 -0.49583252490E-01  0.65232074540E-01  0.51100000000E-03 0.  1.
</event>
<event>
 8    1  0.1150307E+005  0.1043930E+01  0.7957747E-01            NaN
         13   -1    0    0    0    0  0.00000000000E+00  0.00000000000E+00  0.74505805969E-08  0.10566000000E+00  0.10566000000E+00 0. -1.
     999900   -1    0    0    0    0 -0.00000000000E+00 -0.00000000000E+00 -0.74505805969E-08  0.93827000000E+00  0.93827000000E+00 0.  1.
     999902    2    1    2    0    0 -0.11254823151E-01  0.18533237483E-01  0.88318478358E-02  0.10205173224E+01  0.10202487206E+01 0.  0.
     999903    2    3    3    0    0 -0.57726180922E-01  0.95882328291E-01 -0.68144845238E-01  0.13256018368E+00  0.20068620353E-01 0.  0.
         14    1    1    2    0    0  0.11254823151E-01 -0.18533237483E-01 -0.88318478358E-02  0.23412677590E-01  0.00000000000E+00 0.  1.
     999901    1    3    3    0    0  0.46471357771E-01 -0.77349090808E-01  0.76976693074E-01  0.88795713873E+00  0.88000000000E+00 0. -1.
        -11    1    4    4    0    0 -0.51503498024E-01  0.79307923324E-01 -0.49099899730E-01  0.10655242036E+00  0.51100000000E-03 0.  1.
         11    1    4    4    0    0 -0.62226828985E-02  0.16574404967E-01 -0.19044945508E-01  0.26007763319E-01  0.51100000000E-03 0. -1.
</event>
<event>
 8    1  0.1150307E+005  0.1043930E+01  0.7957747E-01            NaN
         13   -1    0    0    0    0  0.00000000000E+00  0.00000000000E+00  0.74505805969E-08  0.10566000000E+00  0.10566000000E+00 0.  1.
     999900   -1    0    0    0    0 -0.00000000000E+00 -0.00000000000E+00 -0.74505805969E-08  0.93827000000E+00  0.93827000000E+00 0.  1.
     999902    2    1    2    0    0 -0.97882526778E-02 -0.15407350941E-01 -0.12145807622E-01  0.10220047407E+01  0.10217695303E+01 0.  0.
     999903    2    3    3    0    0  0.33155427273E-02  0.22613874163E-01 -0.12988831980E+00  0.13325245675E+00  0.19048923350E-01 0.  0.
         14    1    1    2    0    0  0.97882526778E-02  0.15407350941E-01  0.12145807622E-01  0.21925259321E-01  0.00000000000E+00 0.  1.
     999901    1    3    3    0    0 -0.13103795405E-01 -0.38021225104E-01  0.11774251218E+00  0.88875228393E+00  0.88000000000E+00 0. -1.
        -11    1    4    4    0    0 -0.70665355128E-02  0.15488344637E-01 -0.68696148577E-01  0.70776031918E-01  0.51100000000E-03 0. -1.
         11    1    4    4    0    0  0.10382078240E-01  0.71255295264E-02 -0.61192171226E-01  0.62476424833E-01  0.51100000000E-03 0.  1.
</event>
<event>
 8    1  0.1150307E+005  0.1043930E+01  0.7957747E-01            NaN
         13   -1    0    0    0    0  0.00000000000E+00  0.00000000000E+00  0.74505805969E-08  0.10566000000E+00  0.10566000000E+00 0. -1.
     999900   -1    0    0    0    0 -0.00000000000E+00 -0.00000000000E+00 -0.74505805969E-08  0.93827000000E+00  0.93827000000E+00 0.  1.
     999902    2    1    2    0    0 -0.74632258058E-03  0.16888992220E-02  0.22462479944E-01  0.10213917573E+01  0.10211430603E+01 0.  0.
     999903    2    3    3    0    0  0.11920510876E+00  0.45537529136E-02 -0.48308940873E-01  0.13043432440E+00  0.21184064586E-01 0.  0.
         14    1    1    2    0    0  0.74632258058E-03 -0.16888992220E-02 -0.22462479944E-01  0.22538242682E-01  0.00000000000E+00 0.  1.
     999901    1    3    3    0    0 -0.11995143134E+00 -0.28648536916E-02  0.70771420817E-01  0.89095743292E+00  0.88000000000E+00 0. -1.
        -11    1    4    4    0    0  0.74595254280E-01  0.40101040295E-04 -0.40619872977E-01  0.84939324054E-01  0.51100000000E-03 0. -1.
         11    1    4    4    0    0  0.44609854484E-01  0.45136518733E-02 -0.76890678961E-02  0.45495000345E-01  0.51100000000E-03 0.  1.
</event>
<event>
 8    1  0.1150307E+005  0.1043930E+01  0.7957747E-01            NaN
         13   -1    0    0    0    0  0.00000000000E+00  0.00000000000E+00  0.74505805969E-08  0.10566000000E+00  0.10566000000E+00 0. -1.
     999900   -1    0    0    0    0 -0.00000000000E+00 -0.00000000000E+00 -0.74505805969E-08  0.93827000000E+00  0.93827000000E+00 0.  1.
     999902    2    1    2    0    0  0.14390606219E-01  0.87513495491E-02  0.17286854527E-01  0.10197947352E+01  0.10195090931E+01 0.  0.
     999903    2    3    3    0    0 -0.70411506265E-01  0.47173930788E-01  0.98212115742E-01  0.13119100412E+00  0.19552491486E-01 0.  0.
         14    1    1    2    0    0 -0.14390606219E-01 -0.87513495491E-02 -0.17286854527E-01  0.24135264774E-01  0.00000000000E+00 0.  1.
     999901    1    3    3    0    0  0.84802112484E-01 -0.38422581239E-01 -0.80925261214E-01  0.88860373110E+00  0.88000000000E+00 0.  1.
        -11    1    4    4    0    0 -0.22383855250E-01  0.57619056924E-02  0.32324394307E-01  0.39741214393E-01  0.51100000000E-03 0.  1.
         11    1    4    4    0    0 -0.48027651015E-01  0.41412025096E-01  0.65887721434E-01  0.91449789728E-01  0.51100000000E-03 0. -1.
</event>
<event>
 8    1  0.1150307E+005  0.1043930E+01  0.7957747E-01            NaN
         13   -1    0    0    0    0  0.00000000000E+00  0.00000000000E+00  0.74505805969E-08  0.10566000000E+00  0.10566000000E+00 0.  1.
     999900   -1    0    0    0    0 -0.00000000000E+00 -0.00000000000E+00 -0.74505805969E-08  0.93827000000E+00  0.93827000000E+00 0.  1.
     999902    2    1    2    0    0  0.21269609905E-01  0.10202311263E-01 -0.30384813864E-03  0.10203381416E+01  0.10200653643E+01 0.  0.
     999903    2    3    3    0    0  0.88094378072E-01  0.90446669408E-01  0.37862032808E-01  0.13334245887E+00  0.20135996483E-01 0.  0.
         14    1    1    2    0    0 -0.21269609905E-01 -0.10202311263E-01  0.30384813864E-03  0.23591858433E-01  0.00000000000E+00 0.  1.
     999901    1    3    3    0    0 -0.66824768167E-01 -0.80244358145E-01 -0.38165880947E-01  0.88699568270E+00  0.88000000000E+00 0.  1.
        -11    1    4    4    0    0  0.12921147233E-01  0.24063242313E-01  0.47480540845E-02  0.27727257619E-01  0.51100000000E-03 0.  1.
         11    1    4    4    0    0  0.75173230839E-01  0.66383427094E-01  0.33113978724E-01  0.10561520125E+00  0.51100000000E-03 0. -1.
</event>
<event>
 8    1  0.1150307E+005  0.1043930E+01  0.7957747E-01            NaN
         13   -1    0    0    0    0  0.00000000000E+00  0.00000000000E+00  0.74505805969E-08  0.10566000000E+00  0.10566000000E+00 0. -1.
     999900   -1    0    0    0    0 -0.00000000000E+00 -0.00000000000E+00 -0.74505805969E-08  0.93827000000E+00  0.93827000000E+00 0. -1.
     999902    2    1    2    0    0  0.17482045376E-01  0.15638678634E-01 -0.40480263908E-02  0.10201271284E+01  0.10198493915E+01 0.  0.
     999903    2    3    3    0    0 -0.24864556721E-01  0.86302442890E-01  0.93120102818E-01  0.13095433998E+00  0.20281217442E-01 0.  0.
         14    1    1    2    0    0 -0.17482045376E-01 -0.15638678634E-01  0.40480263908E-02  0.23802871625E-01  0.00000000000E+00 0.  1.
     999901    1    3    3    0    0  0.42346602097E-01 -0.70663764257E-01 -0.97168129209E-01  0.88917278839E+00  0.88000000000E+00 0. -1.
        -11    1    4    4    0    0 -0.21665392296E-01  0.83864796762E-01  0.82641474519E-01  0.11971870276E+00  0.51100000000E-03 0. -1.
         11    1    4    4    0    0 -0.31991644243E-02  0.24376461281E-02  0.10478628299E-01  0.11235637218E-01  0.51100000000E-03 0.  1.
</event>
<event>
 8    1  0.1150307E+005  0.1043930E+01  0.7957747E-01            NaN
         13   -1    0    0    0    0  0.00000000000E+00  0.00000000000E+00  0.74505805969E-08  0.10566000000E+00  0.10566000000E+00 0.  1.
     999900   -1    0    0    0    0 -0.00000000000E+00 -0.00000000000E+00 -0.74505805969E-08  0.93827000000E+00  0.93827000000E+00 0.  1.
     999902    2    1    2    0    0 -0.23077935123E-01  0.35960447857E-02  0.34820064279E-02  0.10203154495E+01  0.10200421410E+01 0.  0.
     999903    2    3    3    0    0 -0.10178573588E+00  0.72046929262E-01  0.42678736783E-01  0.13328849095E+00  0.19830562312E-01 0.  0.
         14    1    1    2    0    0  0.23077935123E-01 -0.35960447857E-02 -0.34820064279E-02  0.23614550523E-01  0.00000000000E+00 0.  1.
     999901    1    3    3    0    0  0.78707800756E-01 -0.68450884476E-01 -0.39196730355E-01  0.88702695853E+00  0.88000000000E+00 0. -1.
        -11    1    4    4    0    0 -0.56348804682E-01  0.28503923052E-01  0.17756995964E-01  0.65599035398E-01  0.51100000000E-03 0.  1.
         11    1    4    4    0    0 -0.45436931196E-01  0.43543006210E-01  0.24921740819E-01  0.67689455551E-01  0.51100000000E-03 0. -1.
</event>
<event>
 8    1  0.1150307E+005  0.1043930E+01  0.7957747E-01            NaN
         13   -1    0    0    0    0  0.00000000000E+00  0.00000000000E+00  0.74505805969E-08  0.10566000000E+00  0.10566000000E+00 0.  1.
     999900   -1    0    0    0    0 -0.00000000000E+00 -0.00000000000E+00 -0.74505805969E-08  0.93827000000E+00  0.93827000000E+00 0. -1.
     999902    2    1    2    0    0  0.17101674134E-02  0.13268588562E-01 -0.19796759201E-01  0.10200366580E+01  0.10197567808E+01 0.  0.
     999903    2    3    3    0    0  0.64246559941E-01  0.11396898970E+00 -0.93731104398E-02  0.13202763577E+00  0.15062879198E-01 0.  0.
         14    1    1    2    0    0 -0.17101674134E-02 -0.13268588562E-01  0.19796759201E-01  0.23893341957E-01  0.00000000000E+00 0.  1.
     999901    1    3    3    0    0 -0.62536392528E-01 -0.10070040114E+00 -0.10423648761E-01  0.88800902227E+00  0.88000000000E+00 0. -1.
        -11    1    4    4    0    0  0.40403489162E-01  0.81565460861E-01 -0.11437153755E-01  0.91741135534E-01  0.51100000000E-03 0.  1.
         11    1    4    4    0    0  0.23843070779E-01  0.32403528844E-01  0.20640433148E-02  0.40286500239E-01  0.51100000000E-03 0. -1.
</event>
<event>
 8    1  0.1150307E+005  0.1043930E+01  0.7957747E-01            NaN
         13   -1    0    0    0    0  0.00000000000E+00  0.00000000000E+00  0.74505805969E-08  0.10566000000E+00  0.10566000000E+00 0. -1.
     999900   -1    0    0    0    0 -0.00000000000E+00 -0.00000000000E+00 -0.74505805969E-08  0.93827000000E+00  0.93827000000E+00 0. -1.
     999902    2    1    2    0    0 -0.13507081001E-01  0.34577032796E-02  0.15491081425E-01  0.10230884417E+01  0.10228761357E+01 0.  0.
     999903    2    3    3    0    0 -0.40372919049E-01  0.11700020531E+00 -0.45335708808E-01  0.13330556287E+00  0.19900401156E-01 0.  0.
         14    1    1    2    0    0  0.13507081001E-01 -0.34577032796E-02 -0.15491081425E-01  0.20841558312E-01  0.00000000000E+00 0.  1.
     999901    1    3    3    0    0  0.26865838048E-01 -0.11354250203E+00  0.60826790233E-01  0.88978287881E+00  0.88000000000E+00 0.  1.
        -11    1    4    4    0    0 -0.27089233059E-01  0.50744137113E-01 -0.25120657635E-01  0.62770236260E-01  0.51100000000E-03 0.  1.
         11    1    4    4    0    0 -0.13283685990E-01  0.66256068192E-01 -0.20215051173E-01  0.70535326615E-01  0.51100000000E-03 0. -1.
</event>
<event>
 8    1  0.1150307E+005  0.1043930E+01  0.7957747E-01            NaN
         13   -1    0    0    0    0  0.00000000000E+00  0.00000000000E+00  0.74505805969E-08  0.10566000000E+00  0.10566000000E+00 0. -1.
     999900   -1    0    0    0    0 -0.00000000000E+00 -0.00000000000E+00 -0.74505805969E-08  0.93827000000E+00  0.93827000000E+00 0. -1.
     999902    2    1    2    0    0  0.54697400662E-02 -0.59893383020E-02  0.21976579415E-01  0.10205043672E+01  0.10202354646E+01 0.  0.
     999903    2    3    3    0    0  0.53411590934E-01 -0.39113788449E-01  0.11449218231E+00  0.13373788889E+00  0.19866469772E-01 0.  0.
         14    1    1    2    0    0 -0.54697400662E-02  0.59893383020E-02 -0.21976579415E-01  0.23425632808E-01  0.00000000000E+00 0.  1.
     999901    1    3    3    0    0 -0.47941850868E-01  0.33124450147E-01 -0.92515602897E-01  0.88676647830E+00  0.88000000000E+00 0. -1.
        -11    1    4    4    0    0  0.10745990816E-01 -0.12548520563E-01  0.15230572513E-01  0.22476057194E-01  0.51100000000E-03 0. -1.
         11    1    4    4    0    0  0.42665600119E-01 -0.26565267886E-01  0.99261609798E-01  0.11126183169E+00  0.51100000000E-03 0.  1.
</event>
<event>
 8    1  0.1150307E+005  0.1043930E+01  0.7957747E-01            NaN
         13   -1    0    0    0    0  0.00000000000E+00  0.00000000000E+00  0.74505805969E-08  0.10566000000E+00  0.10566000000E+00 0. -1.
     999900   -1    0    0    0    0 -0.00000000000E+00 -0.00000000000E+00 -0.74505805969E-08  0.93827000000E+00  0.93827000000E+00 0. -1.
     999902    2    1    2    0    0  0.15401138438E-01 -0.45700149228E-03  0.17927351992E-01  0.10202911789E+01  0.10200173017E+01 0.  0.
     999903    2    3    3    0    0 -0.12942146861E-01 -0.54845115029E-01 -0.11389017191E+00  0.12836221962E+00  0.18176973389E-01 0.  0.
         14    1    1    2    0    0 -0.15401138438E-01  0.45700149228E-03 -0.17927351992E-01  0.23638821143E-01  0.00000000000E+00 0.  1.
     999901    1    3    3    0    0  0.28343285299E-01  0.54388113536E-01  0.13181752390E+00  0.89192895924E+00  0.88000000000E+00 0.  1.
        -11    1    4    4    0    0 -0.14041901631E-01 -0.23030289704E-01 -0.44933114767E-01  0.52410067439E-01  0.51100000000E-03 0.  1.
         11    1    4    4    0    0  0.10997547696E-02 -0.31814825324E-01 -0.68957057139E-01  0.75952152183E-01  0.51100000000E-03 0. -1.
</event>
<event>
 8    1  0.1150307E+005  0.1043930E+01  0.7957747E-01            NaN
         13   -1    0    0    0    0  0.00000000000E+00  0.00000000000E+00  0.74505805969E-08  0.10566000000E+00  0.10566000000E+00 0.  1.
     999900   -1    0    0    0    0 -0.00000000000E+00 -0.00000000000E+00 -0.74505805969E-08  0.93827000000E+00  0.93827000000E+00 0. -1.
     999902    2    1    2    0    0  0.18879205597E-01  0.14065781718E-01  0.69589002082E-02  0.10193801138E+01  0.10190844516E+01 0.  0.
     999903    2    3    3    0    0 -0.12623172139E-01 -0.12525179555E+00  0.80060679323E-02  0.12786293300E+00  0.20915920911E-01 0.  0.
         14    1    1    2    0    0 -0.18879205597E-01 -0.14065781718E-01 -0.69589002082E-02  0.24549886180E-01  0.00000000000E+00 0. -1.
     999901    1    3    3    0    0  0.31502377737E-01  0.13931757727E+00 -0.10471677241E-02  0.89151718082E+00  0.88000000000E+00 0. -1.
        -11    1    4    4    0    0 -0.16986013744E-01 -0.75516025536E-01  0.74302942859E-03  0.77408061527E-01  0.51100000000E-03 0. -1.
         11    1    4    4    0    0  0.43628416046E-02 -0.49735770016E-01  0.72630385037E-02  0.50454871472E-01  0.51100000000E-03 0.  1.
</event>
<event>
 8    1  0.1150307E+005  0.1043930E+01  0.7957747E-01            NaN
         13   -1    0    0    0    0  0.00000000000E+00  0.00000000000E+00  0.74505805969E-08  0.10566000000E+00  0.10566000000E+00 0.  1.
     999900   -1    0    0    0    0 -0.00000000000E+00 -0.00000000000E+00 -0.74505805969E-08  0.93827000000E+00  0.93827000000E+00 0.  1.
     999902    2    1    2    0    0 -0.15249862341E-01  0.15764603410E-01  0.82297988572E-02  0.10205032928E+01  0.10202343652E+01 0.  0.
     999903    2    3    3    0    0  0.92047837801E-01 -0.57015503168E-01  0.67341210384E-01  0.12904162824E+00  0.19832578176E-01 0.  0.
         14    1    1    2    0    0  0.15249862341E-01 -0.15764603410E-01 -0.82297988572E-02  0.23426707223E-01  0.00000000000E+00 0. -1.
     999901    1    3    3    0    0 -0.10729770014E+00  0.72780106577E-01 -0.59111411527E-01  0.89146166454E+00  0.88000000000E+00 0.  1.
        -11    1    4    4    0    0  0.84028746534E-01 -0.54731833942E-01  0.55700064638E-01  0.11471339160E+00  0.51100000000E-03 0. -1.
         11    1    4    4    0    0  0.80190912661E-02 -0.22836692259E-02  0.11641145746E-01  0.14328236637E-01  0.51100000000E-03 0.  1.
</event>
<event>
 8    1  0.1150307E+005  0.1043930E+01  0.7957747E-01            NaN
         13   -1    0    0    0    0  0.00000000000E+00  0.00000000000E+00  0.74505805969E-08  0.10566000000E+00  0.10566000000E+00 0.  1.
     999900   -1    0    0    0    0 -0.00000000000E+00 -0.00000000000E+00 -0.74505805969E-08  0.93827000000E+00  0.93827000000E+00 0.  1.
     999902    2    1    2    0    0 -0.10846777791E-01  0.17912787940E-01 -0.12861136472E-01  0.10193550251E+01  0.10190587509E+01 0.  0.
     999903    2    3    3    0    0  0.96037401635E-01  0.40890025715E-02 -0.84908848487E-01  0.12985730297E+00  0.20334800936E-01 0.  0.
         14    1    1    2    0    0  0.10846777791E-01 -0.17912787940E-01  0.12861136472E-01  0.24574974905E-01  0.00000000000E+00 0.  1.
     999901    1    3    3    0    0 -0.10688417943E+00  0.13823785368E-01  0.72047712016E-01  0.88949772212E+00  0.88000000000E+00 0. -1.
        -11    1    4    4    0    0  0.85520724890E-01  0.94364310261E-02 -0.70558489871E-01  0.11127264817E+00  0.51100000000E-03 0. -1.
         11    1    4    4    0    0  0.10516676745E-01 -0.53474284545E-02 -0.14350358616E-01  0.18584654806E-01  0.51100000000E-03 0.  1.
</event>
<event>
 8    1  0.1150307E+005  0.1043930E+01  0.7957747E-01            NaN
         13   -1    0    0    0    0  0.00000000000E+00  0.00000000000E+00  0.74505805969E-08  0.10566000000E+00  0.10566000000E+00 0.  1.
     999900   -1    0    0    0    0 -0.00000000000E+00 -0.00000000000E+00 -0.74505805969E-08  0.93827000000E+00  0.93827000000E+00 0. -1.
     999902    2    1    2    0    0 -0.29163482197E-02 -0.36705567652E-02  0.22934795965E-01  0.10205209646E+01  0.10202524473E+01 0.  0.
     999903    2    3    3    0    0 -0.22766132555E-01  0.38871000820E-01 -0.11820019965E+00  0.12803965661E+00  0.19839732138E-01 0.  0.
         14    1    1    2    0    0  0.29163482197E-02  0.36705567652E-02 -0.22934795965E-01  0.23409035432E-01  0.00000000000E+00 0. -1.
     999901    1    3    3    0    0  0.19849784335E-01 -0.42541557585E-01  0.14113499562E+00  0.89248130795E+00  0.88000000000E+00 0.  1.
        -11    1    4    4    0    0 -0.12852500618E-01  0.35599310987E-01 -0.81156210738E-01  0.89549368380E-01  0.51100000000E-03 0.  1.
         11    1    4    4    0    0 -0.99136319372E-02  0.32716898337E-02 -0.37043988915E-01  0.38490288234E-01  0.51100000000E-03 0. -1.
</event>
<event>
 8    1  0.1150307E+005  0.1043930E+01  0.7957747E-01            NaN
         13   -1    0    0    0    0  0.00000000000E+00  0.00000000000E+00  0.74505805969E-08  0.10566000000E+00  0.10566000000E+00 0.  1.
     999900   -1    0    0    0    0 -0.00000000000E+00 -0.00000000000E+00 -0.74505805969E-08  0.93827000000E+00  0.93827000000E+00 0. -1.
     999902    2    1    2    0    0 -0.10381894886E-01 -0.11486333512E-01  0.17046619813E-01  0.10209016078E+01  0.10206418500E+01 0.  0.
     999903    2    3    3    0    0 -0.72400572441E-01 -0.88134023847E-01 -0.63128820655E-01  0.13177322224E+00  0.19221994016E-01 0.  0.
         14    1    1    2    0    0  0.10381894886E-01  0.11486333512E-01 -0.17046619813E-01  0.23028392172E-01  0.00000000000E+00 0.  1.
     999901    1    3    3    0    0  0.62018677555E-01  0.76647690335E-01  0.80175440468E-01  0.88912838559E+00  0.88000000000E+00 0.  1.
        -11    1    4    4    0    0 -0.46256377575E-01 -0.69049794374E-01 -0.42072693754E-01  0.93155242741E-01  0.51100000000E-03 0. -1.
         11    1    4    4    0    0 -0.26144194866E-01 -0.19084229473E-01 -0.21056126901E-01  0.38617979502E-01  0.51100000000E-03 0.  1.
</event>
<event>
 8    1  0.1150307E+005  0.1043930E+01  0.7957747E-01            NaN
         13   -1    0    0    0    0  0.00000000000E+00  0.00000000000E+00  0.74505805969E-08  0.10566000000E+00  0.10566000000E+00 0.  1.
     999900   -1    0    0    0    0 -0.00000000000E+00 -0.00000000000E+00 -0.74505805969E-08  0.93827000000E+00  0.93827000000E+00 0. -1.
     999902    2    1    2    0    0  0.21240401490E-01 -0.90471572737E-02 -0.49452795252E-02  0.10203193774E+01  0.10200461609E+01 0.  0.
     999903    2    3    3    0    0 -0.28035847733E-01  0.10409855311E+00  0.67566480960E-01  0.12875442972E+00  0.19747311379E-01 0.  0.
         14    1    1    2    0    0 -0.21240401490E-01  0.90471572737E-02  0.49452795252E-02  0.23610622604E-01  0.00000000000E+00 0. -1.
     999901    1    3    3    0    0  0.49276249222E-01 -0.11314571038E+00 -0.72511760485E-01  0.89156494768E+00  0.88000000000E+00 0. -1.
        -11    1    4    4    0    0 -0.17698327537E-01  0.31510189401E-01  0.19333192109E-01  0.40989709341E-01  0.51100000000E-03 0.  1.
         11    1    4    4    0    0 -0.10337520196E-01  0.72588363704E-01  0.48233288851E-01  0.87764720380E-01  0.51100000000E-03 0. -1.
</event>
<event>
 8    1  0.1150307E+005  0.1043930E+01  0.7957747E-01            NaN
         13   -1    0    0    0    0  0.00000000000E+00  0.00000000000E+00  0.74505805969E-08  0.10566000000E+00  0.10566000000E+00 0. -1.
     999900   -1    0    0    0    0 -0.00000000000E+00 -0.00000000000E+00 -0.74505805969E-08  0.93827000000E+00  0.93827000000E+00 0.  1.
     999902    2    1    2    0    0  0.16241444578E-01 -0.15924581953E-01 -0.45929757545E-02  0.10207249950E+01  0.10204611914E+01 0.  0.
     999903    2    3    3    0    0 -0.78498204067E-01 -0.10384660760E+00 -0.56654812457E-02  0.13128301603E+00  0.16032675024E-01 0.  0.
         14    1    1    2    0    0 -0.16241444578E-01  0.15924581953E-01  0.45929757545E-02  0.23205005034E-01  0.00000000000E+00 0.  1.
     999901    1    3    3    0    0  0.94739648645E-01  0.87922025650E-01  0.10725054912E-02  0.88944197893E+00  0.88000000000E+00 0. -1.
        -11    1    4    4    0    0 -0.28957055225E-01 -0.50555287923E-01 -0.54655940644E-02  0.58519074016E-01  0.51100000000E-03 0. -1.
         11    1    4    4    0    0 -0.49541148842E-01 -0.53291319681E-01 -0.19988718127E-03  0.72763942017E-01  0.51100000000E-03 0.  1.
</event>
<event>
 8    1  0.1150307E+005  0.1043930E+01  0.7957747E-01            NaN
         13   -1    0    0    0    0  0.00000000000E+00  0.00000000000E+00  0.74505805969E-08  0.10566000000E+00  0.10566000000E+00 0.  1.
     999900   -1    0    0    0    0 -0.00000000000E+00 -0.00000000000E+00 -0.74505805969E-08  0.93827000000E+00  0.93827000000E+00 0.  1.
     999902    2    1    2    0    0  0.23090175826E-01  0.63605321153E-02 -0.40182833018E-02  0.10196450419E+01  0.10193558026E+01 0.  0.
     999903    2    3    3    0    0  0.16743464336E-01  0.11826762658E-01 -0.12804190400E+00  0.13090884995E+00  0.17949426246E-01 0.  0.
         14    1    1    2    0    0 -0.23090175826E-01 -0.63605321153E-02  0.40182833018E-02  0.24284958084E-01  0.00000000000E+00 0. -1.
     999901    1    3    3    0    0  0.63467114900E-02 -0.54662305426E-02  0.12402362070E+00  0.88873619197E+00  0.88000000000E+00 0. -1.
        -11    1    4    4    0    0  0.56578276473E-02  0.12296232454E-01 -0.41439021829E-01  0.43596582405E-01  0.51100000000E-03 0. -1.
         11    1    4    4    0    0  0.11085636689E-01 -0.46946979584E-03 -0.86602882168E-01  0.87312267543E-01  0.51100000000E-03 0.  1.
</event>
<event>
 8    1  0.1150307E+005  0.1043930E+01  0.7957747E-01            NaN
         13   -1    0    0    0    0  0.00000000000E+00  0.00000000000E+00  0.74505805969E-08  0.10566000000E+00  0.10566000000E+00 0. -1.
     999900   -1    0    0    0    0 -0.00000000000E+00 -0.00000000000E+00 -0.74505805969E-08  0.93827000000E+00  0.93827000000E+00 0.  1.
     999902    2    1    2    0    0  0.47976417483E-02  0.23332122880E-01 -0.10375996809E-02  0.10200871407E+01  0.10198084589E+01 0.  0.
     999903    2    3    3    0    0 -0.80646634400E-01 -0.13306474985E-01 -0.98864264398E-01  0.12979889107E+00  0.19815837884E-01 0.  0.
         14    1    1    2    0    0 -0.47976417483E-02 -0.23332122880E-01  0.10375996809E-02  0.23842859257E-01  0.00000000000E+00 0.  1.
     999901    1    3    3    0    0  0.85444276148E-01  0.36638597866E-01  0.97826664717E-01  0.89028824968E+00  0.88000000000E+00 0.  1.
        -11    1    4    4    0    0 -0.38227356330E-01  0.36091319713E-02 -0.46985978265E-01  0.60681956792E-01  0.51100000000E-03 0. -1.
         11    1    4    4    0    0 -0.42419278070E-01 -0.16915606957E-01 -0.51878286133E-01  0.69116934276E-01  0.51100000000E-03 0.  1.
</event>
<event>
 8    1  0.1150307E+005  0.1043930E+01  0.7957747E-01            NaN
         13   -1    0    0    0    0  0.00000000000E+00  0.00000000000E+00  0.74505805969E-08  0.10566000000E+00  0.10566000000E+00 0. -1.
     999900   -1    0    0    0    0 -0.00000000000E+00 -0.00000000000E+00 -0.74505805969E-08  0.93827000000E+00  0.93827000000E+00 0. -1.
     999902    2    1    2    0    0  0.36688139401E-02  0.13616276854E-01 -0.18446438850E-01  0.10207107343E+01  0.10204466027E+01 0.  0.
     999903    2    3    3    0    0 -0.67962715505E-01 -0.51301462320E-01  0.93920002134E-01  0.12831418240E+00  0.19818977511E-01 0.  0.
         14    1    1    2    0    0 -0.36688139401E-02 -0.13616276854E-01  0.18446438850E-01  0.23219265650E-01  0.00000000000E+00 0. -1.
     999901    1    3    3    0    0  0.71631529445E-01  0.64917739174E-01 -0.11236644098E+00  0.89239655195E+00  0.88000000000E+00 0.  1.
        -11    1    4    4    0    0 -0.53519368678E-01 -0.49346652549E-01  0.79741953544E-01  0.10797432666E+00  0.51100000000E-03 0.  1.
         11    1    4    4    0    0 -0.14443346827E-01 -0.19548097707E-02  0.14178048590E-01  0.20339855742E-01  0.51100000000E-03 0. -1.
</event>
<event>
 8    1  0.1150307E+005  0.1043930E+01  0.7957747E-01            NaN
         13   -1    0    0    0    0  0.00000000000E+00  0.00000000000E+00  0.74505805969E-08  0.10566000000E+00  0.10566000000E+00 0.  1.
     999900   -1    0    0    0    0 -0.00000000000E+00 -0.00000000000E+00 -0.74505805969E-08  0.93827000000E+00  0.93827000000E+00 0. -1.
     999902    2    1    2    0    0 -0.17494392811E-01  0.12705533908E-01  0.10466184281E-01  0.10199086473E+01  0.10196257272E+01 0.  0.
     999903    2    3    3    0    0 -0.29477902742E-01 -0.11909934663E+00 -0.32628195919E-01  0.12896911140E+00  0.22689896587E-01 0.  0.
         14    1    1    2    0    0  0.17494392811E-01 -0.12705533908E-01 -0.10466184281E-01  0.24021352691E-01  0.00000000000E+00 0.  1.
     999901    1    3    3    0    0  0.11983509931E-01  0.13180488054E+00  0.43094380201E-01  0.89093953591E+00  0.88000000000E+00 0.  1.
        -11    1    4    4    0    0 -0.20035543997E-01 -0.62040985687E-01 -0.27972964305E-01  0.70945435239E-01  0.51100000000E-03 0.  1.
         11    1    4    4    0    0 -0.94423587450E-02 -0.57058360946E-01 -0.46552316147E-02  0.58023676158E-01  0.51100000000E-03 0. -1.
</event>
<event>
 8    1  0.1150307E+005  0.1043930E+01  0.7957747E-01            NaN
         13   -1    0    0    0    0  0.00000000000E+00  0.00000000000E+00  0.74505805969E-08  0.10566000000E+00  0.10566000000E+00 0. -1.
     999900   -1    0    0    0    0 -0.00000000000E+00 -0.00000000000E+00 -0.74505805969E-08  0.93827000000E+00  0.93827000000E+00 0. -1.
     999902    2    1    2    0    0  0.14665000133E-01  0.56991725014E-02 -0.17923053798E-01  0.10200809192E+01  0.10198020902E+01 0.  0.
     999903    2    3    3    0    0  0.39813468744E-01 -0.11014975885E+00 -0.58350252390E-01  0.13121209946E+00  0.96840808874E-02 0.  0.
         14    1    1    2    0    0 -0.14665000133E-01 -0.56991725014E-02  0.17923053798E-01  0.23849080769E-01  0.00000000000E+00 0. -1.
     999901    1    3    3    0    0 -0.25148468611E-01  0.11584893135E+00  0.40427198592E-01  0.88886881977E+00  0.88000000000E+00 0.  1.
        -11    1    4    4    0    0  0.16530220207E-01 -0.33442605169E-01 -0.20338618283E-01  0.42492076146E-01  0.51100000000E-03 0. -1.
         11    1    4    4    0    0  0.23283248537E-01 -0.76707153684E-01 -0.38011634108E-01  0.88720023317E-01  0.51100000000E-03 0.  1.
</event>
<event>
 8    1  0.1150307E+005  0.1043930E+01  0.7957747E-01            NaN
         13   -1    0    0    0    0  0.00000000000E+00  0.00000000000E+00  0.74505805969E-08  0.10566000000E+00  0.10566000000E+00 0.  1.
     999900   -1    0    0    0    0 -0.00000000000E+00 -0.00000000000E+00 -0.74505805969E-08  0.93827000000E+00  0.93827000000E+00 0.  1.
     999902    2    1    2    0    0 -0.23434087415E-03 -0.18673219134E-01 -0.14314204764E-01  0.10204004338E+01  0.10201291118E+01 0.  0.
     999903    2    3    3    0    0  0.36068072757E-01 -0.78234164894E-01 -0.10025193300E+00  0.13346714168E+00  0.18480730787E-01 0.  0.
         14    1    1    2    0    0  0.23434087415E-03  0.18673219134E-01  0.14314204764E-01  0.23529566219E-01  0.00000000000E+00 0.  1.
     999901    1    3    3    0    0 -0.36302413631E-01  0.59560945760E-01  0.85937728234E-01  0.88693329210E+00  0.88000000000E+00 0. -1.
        -11    1    4    4    0    0  0.32965294308E-01 -0.67162295764E-01 -0.76132567994E-01  0.10674227668E+00  0.51100000000E-03 0. -1.
         11    1    4    4    0    0  0.31027784495E-02 -0.11071869130E-01 -0.24119365004E-01  0.26724865001E-01  0.51100000000E-03 0.  1.
</event>
<event>
 8    1  0.1150307E+005  0.1043930E+01  0.7957747E-01            NaN
         13   -1    0    0    0    0  0.00000000000E+00  0.00000000000E+00  0.74505805969E-08  0.10566000000E+00  0.10566000000E+00 0. -1.
     999900   -1    0    0    0    0 -0.00000000000E+00 -0.00000000000E+00 -0.74505805969E-08  0.93827000000E+00  0.93827000000E+00 0.  1.
     999902    2    1    2    0    0 -0.45474501755E-02  0.23592282086E-01 -0.21417076182E-02  0.10198081844E+01  0.10195228644E+01 0.  0.
     999903    2    3    3    0    0 -0.98280137161E-01 -0.62005286023E-01  0.52396794750E-01  0.12902919467E+00  0.19986698616E-01 0.  0.
         14    1    1    2    0    0  0.45474501755E-02 -0.23592282086E-01  0.21417076182E-02  0.24121815617E-01  0.00000000000E+00 0.  1.
     999901    1    3    3    0    0  0.93732686986E-01  0.85597568110E-01 -0.54538502368E-01  0.89077898971E+00  0.88000000000E+00 0.  1.
        -11    1    4    4    0    0 -0.75769694452E-01 -0.52172263801E-01  0.33035059583E-01  0.97747470504E-01  0.51100000000E-03 0.  1.
         11    1    4    4    0    0 -0.22510442710E-01 -0.98330222226E-02  0.19361735167E-01  0.31281724164E-01  0.51100000000E-03 0. -1.
</event>
<event>
 8    1  0.1150307E+005  0.1043930E+01  0.7957747E-01            NaN
         13   -1    0    0    0    0  0.00000000000E+00  0.00000000000E+00  0.74505805969E-08  0.10566000000E+00  0.10566000000E+00 0. -1.
     999900   -1    0    0    0    0 -0.00000000000E+00 -0.00000000000E+00 -0.74505805969E-08  0.93827000000E+00  0.93827000000E+00 0. -1.
     999902    2    1    2    0    0 -0.21264987779E-01 -0.53883470756E-02 -0.35286479432E-02  0.10217109688E+01  0.10214693429E+01 0.  0.
     999903    2    3    3    0    0 -0.12620325346E+00 -0.35410612764E-01 -0.25205513359E-01  0.13470292911E+00  0.18121493529E-01 0.  0.
         14    1    1    2    0    0  0.21264987779E-01  0.53883470756E-02  0.35286479432E-02  0.22219031161E-01  0.00000000000E+00 0. -1.
     999901    1    3    3    0    0  0.10493826568E+00  0.30022265688E-01  0.21676865416E-01  0.88700803972E+00  0.88000000000E+00 0.  1.
        -11    1    4    4    0    0 -0.80862645494E-01 -0.15100685836E-01 -0.10770583212E-01  0.82964237674E-01  0.51100000000E-03 0. -1.
         11    1    4    4    0    0 -0.45340607967E-01 -0.20309926928E-01 -0.14434930147E-01  0.51738691441E-01  0.51100000000E-03 0.  1.
</event>
<event>
 8    1  0.1150307E+005  0.1043930E+01  0.7957747E-01            NaN
         13   -1    0    0    0    0  0.00000000000E+00  0.00000000000E+00  0.74505805969E-08  0.10566000000E+00  0.10566000000E+00 0. -1.
     999900   -1    0    0    0    0 -0.00000000000E+00 -0.00000000000E+00 -0.74505805969E-08  0.93827000000E+00  0.93827000000E+00 0.  1.
     999902    2    1    2    0    0  0.23448665157E-01  0.18470581611E-02  0.26689625528E-03  0.10204071865E+01  0.10201360221E+01 0.  0.
     999903    2    3    3    0    0  0.91360215123E-01 -0.70488144465E-01  0.62269781010E-01  0.13266357606E+00  0.20170061178E-01 0.  0.
         14    1    1    2    0    0 -0.23448665157E-01 -0.18470581611E-02 -0.26689625528E-03  0.23522813503E-01  0.00000000000E+00 0. -1.
     999901    1    3    3    0    0 -0.67911549966E-01  0.72335202626E-01 -0.62002884755E-01  0.88774361044E+00  0.88000000000E+00 0. -1.
        -11    1    4    4    0    0  0.21449707712E-01 -0.16057363274E-01  0.52773424883E-02  0.27313739052E-01  0.51100000000E-03 0.  1.
         11    1    4    4    0    0  0.69910507411E-01 -0.54430781191E-01  0.56992438522E-01  0.10534983701E+00  0.51100000000E-03 0. -1.
</event>
<event>
 8    1  0.1150307E+005  0.1043930E+01  0.7957747E-01            NaN
         13   -1    0    0    0    0  0.00000000000E+00  0.00000000000E+00  0.74505805969E-08  0.10566000000E+00  0.10566000000E+00 0.  1.
     999900   -1    0    0    0    0 -0.00000000000E+00 -0.00000000000E+00 -0.74505805969E-08  0.93827000000E+00  0.93827000000E+00 0.  1.
     999902    2    1    2    0    0 -0.71565384430E-02 -0.21092476472E-01 -0.79787208234E-02  0.10202705708E+01  0.10199962103E+01 0.  0.
     999903    2    3    3    0    0  0.12123250956E+00 -0.38841996160E-01  0.24800289655E-01  0.13017324089E+00  0.11135359757E-01 0.  0.
         14    1    1    2    0    0  0.71565384430E-02  0.21092476472E-01  0.79787208234E-02  0.23659429245E-01  0.00000000000E+00 0.  1.
     999901    1    3    3    0    0 -0.12838904801E+00  0.17749519688E-01 -0.32779010479E-01  0.89009732986E+00  0.88000000000E+00 0.  1.
        -11    1    4    4    0    0  0.14450665065E-01 -0.10201765366E-02  0.33310728995E-02  0.14873454496E-01  0.51100000000E-03 0. -1.
         11    1    4    4    0    0  0.10678184450E+00 -0.37821819623E-01  0.21469216756E-01  0.11529978640E+00  0.51100000000E-03 0.  1.
</event>
<event>
 8    1  0.1150307E+005  0.1043930E+01  0.7957747E-01            NaN
         13   -1    0    0    0    0  0.00000000000E+00  0.00000000000E+00  0.74505805969E-08  0.10566000000E+00  0.10566000000E+00 0. -1.
     999900   -1    0    0    0    0 -0.00000000000E+00 -0.00000000000E+00 -0.74505805969E-08  0.93827000000E+00  0.93827000000E+00 0.  1.
     999902    2    1    2    0    0 -0.44628017053E-02 -0.22643519414E-01  0.53033659246E-04  0.10208508236E+01  0.10205899057E+01 0.  0.
     999903    2    3    3    0    0  0.86809377596E-01  0.83616627270E-01 -0.40495760606E-01  0.12884968336E+00  0.20850081040E-01 0.  0.
         14    1    1    2    0    0  0.44628017053E-02  0.22643519414E-01 -0.53033659246E-04  0.23079176396E-01  0.00000000000E+00 0.  1.
     999901    1    3    3    0    0 -0.91272179301E-01 -0.10626014668E+00  0.40548794266E-01  0.89200114025E+00  0.88000000000E+00 0. -1.
        -11    1    4    4    0    0  0.58268971820E-01  0.62955882589E-01 -0.20000166072E-01  0.88085095183E-01  0.51100000000E-03 0.  1.
         11    1    4    4    0    0  0.28540405776E-01  0.20660744681E-01 -0.20495594534E-01  0.40764588173E-01  0.51100000000E-03 0. -1.
</event>
<event>
 8    1  0.1150307E+005  0.1043930E+01  0.7957747E-01            NaN
         13   -1    0    0    0    0  0.00000000000E+00  0.00000000000E+00  0.74505805969E-08  0.10566000000E+00  0.10566000000E+00 0.  1.
     999900   -1    0    0    0    0 -0.00000000000E+00 -0.00000000000E+00 -0.74505805969E-08  0.93827000000E+00  0.93827000000E+00 0.  1.
     999902    2    1    2    0    0  0.10450045258E-01  0.20005300826E-01  0.14371941369E-03  0.10213593074E+01  0.10211098857E+01 0.  0.
     999903    2    3    3    0    0  0.45237484569E-01  0.36674835430E-01  0.11753680381E+00  0.13272598848E+00  0.20243868331E-01 0.  0.
         14    1    1    2    0    0 -0.10450045258E-01 -0.20005300826E-01 -0.14371941369E-03  0.22570692552E-01  0.00000000000E+00 0. -1.
     999901    1    3    3    0    0 -0.34787439311E-01 -0.16669534604E-01 -0.11739308439E+00  0.88863331897E+00  0.88000000000E+00 0.  1.
        -11    1    4    4    0    0  0.69912862572E-02 -0.35345298958E-03  0.25018570500E-01  0.25984476200E-01  0.51100000000E-03 0.  1.
         11    1    4    4    0    0  0.38246198312E-01  0.37028288420E-01  0.92518233306E-01  0.10674151228E+00  0.51100000000E-03 0. -1.
</event>
<event>
 8    1  0.1150307E+005  0.1043930E+01  0.7957747E-01            NaN
         13   -1    0    0    0    0  0.00000000000E+00  0.00000000000E+00  0.74505805969E-08  0.10566000000E+00  0.10566000000E+00 0.  1.
     999900   -1    0    0    0    0 -0.00000000000E+00 -0.00000000000E+00 -0.74505805969E-08  0.93827000000E+00  0.93827000000E+00 0.  1.
     999902    2    1    2    0    0 -0.19020508331E-01 -0.54808602162E-02  0.13567156111E-01  0.10199323482E+01  0.10196499927E+01 0.  0.
     999903    2    3    3    0    0 -0.24210798518E-01 -0.70214967215E-01  0.10790014567E+00  0.13251127757E+00  0.20012317737E-01 0.  0.
         14    1    1    2    0    0  0.19020508331E-01  0.54808602162E-02 -0.13567156111E-01  0.23997651777E-01  0.00000000000E+00 0. -1.
     999901    1    3    3    0    0  0.51902901871E-02  0.64734106999E-01 -0.94332989560E-01  0.88742107065E+00  0.88000000000E+00 0.  1.
        -11    1    4    4    0    0 -0.43121791224E-02 -0.33420435773E-01  0.35899672110E-01  0.49239902464E-01  0.51100000000E-03 0.  1.
         11    1    4    4    0    0 -0.19898619396E-01 -0.36794531442E-01  0.72000473561E-01  0.83271375105E-01  0.51100000000E-03 0. -1.
</event>
<event>
 8    1  0.1150307E+005  0.1043930E+01  0.7957747E-01            NaN
         13   -1    0    0    0    0  0.00000000000E+00  0.00000000000E+00  0.74505805969E-08  0.10566000000E+00  0.10566000000E+00 0.  1.
     999900   -1    0    0    0    0 -0.00000000000E+00 -0.00000000000E+00 -0.74505805969E-08  0.93827000000E+00  0.93827000000E+00 0.  1.
     999902    2    1    2    0    0 -0.70652732590E-02 -0.61967131384E-03 -0.22073091351E-01  0.10207454482E+01  0.10204821148E+01 0.  0.
     999903    2    3    3    0    0  0.10214874941E+00  0.13653921302E-01  0.74333210430E-01  0.12865486247E+00  0.20145741238E-01 0.  0.
         14    1    1    2    0    0  0.70652732590E-02  0.61967131384E-03  0.22073091351E-01  0.23184551765E-01  0.00000000000E+00 0.  1.
     999901    1    3    3    0    0 -0.10921402267E+00 -0.14273592616E-01 -0.96406301781E-01  0.89209058577E+00  0.88000000000E+00 0.  1.
        -11    1    4    4    0    0  0.26121457661E-01 -0.39864309791E-02  0.13365477547E-01  0.29616199846E-01  0.51100000000E-03 0.  1.
         11    1    4    4    0    0  0.76027291751E-01  0.17640352281E-01  0.60967732884E-01  0.99038662620E-01  0.51100000000E-03 0. -1.
</event>
<event>
 8    1  0.1150307E+005  0.1043930E+01  0.7957747E-01            NaN
         13   -1    0    0    0    0  0.00000000000E+00  0.00000000000E+00  0.74505805969E-08  0.10566000000E+00  0.10566000000E+00 0. -1.
     999900   -1    0    0    0    0 -0.00000000000E+00 -0.00000000000E+00 -0.74505805969E-08  0.93827000000E+00  0.93827000000E+00 0.  1.
     999902    2    1    2    0    0  0.30230874078E-02 -0.32834582335E-02  0.23532867778E-01  0.10199776302E+01  0.10196963519E+01 0.  0.
     999903    2    3    3    0    0 -0.10999490521E+00  0.63384700180E-01  0.20080524972E-01  0.13024192295E+00  0.21053066811E-01 0.  0.
         14    1    1    2    0    0 -0.30230874078E-02  0.32834582335E-02 -0.23532867778E-01  0.23952369847E-01  0.00000000000E+00 0.  1.
     999901    1    3    3    0    0  0.11301799261E+00 -0.66668158413E-01  0.34523428061E-02  0.88973570720E+00  0.88000000000E+00 0.  1.
        -11    1    4    4    0    0 -0.15958830005E-01  0.90446618653E-02 -0.44820444013E-02  0.18890209274E-01  0.51100000000E-03 0. -1.
         11    1    4    4    0    0 -0.94036075202E-01  0.54340038315E-01  0.24562569373E-01  0.11135171368E+00  0.51100000000E-03 0.  1.
</event>
<event>
 8    1  0.1150307E+005  0.1043930E+01  0.7957747E-01            NaN
         13   -1    0    0    0    0  0.00000000000E+00  0.00000000000E+00  0.74505805969E-08  0.10566000000E+00  0.10566000000E+00 0. -1.
     999900   -1    0    0    0    0 -0.00000000000E+00 -0.00000000000E+00 -0.74505805969E-08  0.93827000000E+00  0.93827000000E+00 0. -1.
     999902    2    1    2    0    0 -0.13725746004E-01 -0.16036468269E-02 -0.19024247654E-01  0.10204163915E+01  0.10201454417E+01 0.  0.
     999903    2    3    3    0    0  0.66374240755E-01 -0.45277014174E-01  0.97424723095E-01  0.12806907475E+00  0.21320492244E-01 0.  0.
         14    1    1    2    0    0  0.13725746004E-01  0.16036468269E-02  0.19024247654E-01  0.23513608513E-01  0.00000000000E+00 0. -1.
     999901    1    3    3    0    0 -0.80099986759E-01  0.43673367347E-01 -0.11644897075E+00  0.89234731673E+00  0.88000000000E+00 0. -1.
        -11    1    4    4    0    0  0.47550058186E-01 -0.21274409170E-01  0.68216710392E-01  0.85833497055E-01  0.51100000000E-03 0. -1.
         11    1    4    4    0    0  0.18824182569E-01 -0.24002605004E-01  0.29208012704E-01  0.42235577698E-01  0.51100000000E-03 0.  1.
</event>
<event>
 8    1  0.1150307E+005  0.1043930E+01  0.7957747E-01            NaN
         13   -1    0    0    0    0  0.00000000000E+00  0.00000000000E+00  0.74505805969E-08  0.10566000000E+00  0.10566000000E+00 0.  1.
     999900   -1    0    0    0    0 -0.00000000000E+00 -0.00000000000E+00 -0.74505805969E-08  0.93827000000E+00  0.93827000000E+00 0.  1.
     999902    2    1    2    0    0 -0.72994053286E-02 -0.89192646787E-02 -0.21099518510E-01  0.10198878644E+01  0.10196044487E+01 0.  0.
     999903    2    3    3    0    0 -0.50903961596E-02  0.43111172812E-02 -0.13110969253E+00  0.13293681669E+00  0.20927204563E-01 0.  0.
         14    1    1    2    0    0  0.72994053286E-02  0.89192646787E-02  0.21099518510E-01  0.24042135553E-01  0.00000000000E+00 0.  1.
     999901    1    3    3    0    0 -0.22090091689E-02 -0.13230381960E-01  0.11001017402E+00  0.88695104776E+00  0.88000000000E+00 0. -1.
        -11    1    4    4    0    0 -0.24913834732E-03 -0.67087691828E-02 -0.85439780600E-01  0.85704649138E-01  0.51100000000E-03 0.  1.
         11    1    4    4    0    0 -0.48412578123E-02  0.11019886464E-01 -0.45669911932E-01  0.47232167553E-01  0.51100000000E-03 0. -1.
</event>
<event>
 8    1  0.1150307E+005  0.1043930E+01  0.7957747E-01            NaN
         13   -1    0    0    0    0  0.00000000000E+00  0.00000000000E+00  0.74505805969E-08  0.10566000000E+00  0.10566000000E+00 0.  1.
     999900   -1    0    0    0    0 -0.00000000000E+00 -0.00000000000E+00 -0.74505805969E-08  0.93827000000E+00  0.93827000000E+00 0. -1.
     999902    2    1    2    0    0 -0.74321988267E-02  0.72040327203E-02  0.19249510558E-01  0.10220741238E+01  0.10218404158E+01 0.  0.
     999903    2    3    3    0    0  0.11194188579E+00 -0.39512279195E-01  0.54314144333E-01  0.13209540811E+00  0.20173362799E-01 0.  0.
         14    1    1    2    0    0  0.74321988267E-02 -0.72040327203E-02 -0.19249510558E-01  0.21855876179E-01  0.00000000000E+00 0. -1.
     999901    1    3    3    0    0 -0.11937408462E+00  0.46716311916E-01 -0.35064633776E-01  0.88997871571E+00  0.88000000000E+00 0.  1.
        -11    1    4    4    0    0  0.24309169494E-01 -0.17383837126E-01  0.10796329377E-01  0.31779794897E-01  0.51100000000E-03 0. -1.
         11    1    4    4    0    0  0.87632716300E-01 -0.22128442070E-01  0.43517814957E-01  0.10031561321E+00  0.51100000000E-03 0.  1.
</event>
<event>
 8    1  0.1150307E+005  0.1043930E+01  0.7957747E-01            NaN
         13   -1    0    0    0    0  0.00000000000E+00  0.00000000000E+00  0.74505805969E-08  0.10566000000E+00  0.10566000000E+00 0. -1.
     999900   -1    0    0    0    0 -0.00000000000E+00 -0.00000000000E+00 -0.74505805969E-08  0.93827000000E+00  0.93827000000E+00 0.  1.
     999902    2    1    2    0    0 -0.13672499025E-01 -0.15717373918E-01  0.11377082769E-01  0.10201937180E+01  0.10199175511E+01 0.  0.
     999903    2    3    3    0    0  0.59709943809E-01  0.46413963148E-01  0.10410850227E+00  0.13011259687E+00  0.19265883169E-01 0.  0.
         14    1    1    2    0    0  0.13672499025E-01  0.15717373918E-01 -0.11377082769E-01  0.23736282034E-01  0.00000000000E+00 0.  1.
     999901    1    3    3    0    0 -0.73382442835E-01 -0.62131337067E-01 -0.92731419506E-01  0.89008112109E+00  0.88000000000E+00 0.  1.
        -11    1    4    4    0    0  0.36872418491E-01  0.24403492333E-01  0.74968005574E-01  0.87037742756E-01  0.51100000000E-03 0. -1.
         11    1    4    4    0    0  0.22837525319E-01  0.22010470815E-01  0.29140496701E-01  0.43074854117E-01  0.51100000000E-03 0.  1.
</event>
<event>
 8    1  0.1150307E+005  0.1043930E+01  0.7957747E-01            NaN
         13   -1    0    0    0    0  0.00000000000E+00  0.00000000000E+00  0.74505805969E-08  0.10566000000E+00  0.10566000000E+00 0. -1.
     999900   -1    0    0    0    0 -0.00000000000E+00 -0.00000000000E+00 -0.74505805969E-08  0.93827000000E+00  0.93827000000E+00 0. -1.
     999902    2    1    2    0    0  0.12416715993E-01  0.17028408245E-02  0.19932234104E-01  0.10203849695E+01  0.10201132867E+01 0.  0.
     999903    2    3    3    0    0  0.93269131845E-01 -0.83957221082E-01  0.37470039366E-01  0.13236338536E+00  0.19186349505E-01 0.  0.
         14    1    1    2    0    0 -0.12416715993E-01 -0.17028408245E-02 -0.19932234104E-01  0.23545030459E-01  0.00000000000E+00 0.  1.
     999901    1    3    3    0    0 -0.80852415852E-01  0.85660061907E-01 -0.17537805262E-01  0.88802158418E+00  0.88000000000E+00 0. -1.
        -11    1    4    4    0    0  0.45984606588E-01 -0.32745636549E-01  0.24123241234E-01  0.61392610669E-01  0.51100000000E-03 0.  1.
         11    1    4    4    0    0  0.47284525257E-01 -0.51211584533E-01  0.13346798132E-01  0.70970774693E-01  0.51100000000E-03 0. -1.
</event>
<event>
 8    1  0.1150307E+005  0.1043930E+01  0.7957747E-01            NaN
         13   -1    0    0    0    0  0.00000000000E+00  0.00000000000E+00  0.74505805969E-08  0.10566000000E+00  0.10566000000E+00 0. -1.
     999900   -1    0    0    0    0 -0.00000000000E+00 -0.00000000000E+00 -0.74505805969E-08  0.93827000000E+00  0.93827000000E+00 0.  1.
     999902    2    1    2    0    0 -0.94380724573E-02  0.21397174286E-01  0.18503992060E-02  0.10204706680E+01  0.10202009822E+01 0.  0.
     999903    2    3    3    0    0 -0.16299785381E-01  0.12965829204E+00  0.18777085936E-01  0.13364821374E+00  0.20792074943E-01 0.  0.
         14    1    1    2    0    0  0.94380724573E-02 -0.21397174286E-01 -0.18503992060E-02  0.23459331967E-01  0.00000000000E+00 0. -1.
     999901    1    3    3    0    0  0.68617129235E-02 -0.10826111775E+00 -0.16926686730E-01  0.88682245430E+00  0.88000000000E+00 0. -1.
        -11    1    4    4    0    0 -0.53534405059E-02  0.10217156671E+00  0.10092840348E-01  0.10280960517E+00  0.51100000000E-03 0. -1.
         11    1    4    4    0    0 -0.10946344875E-01  0.27486725333E-01  0.86842455884E-02  0.30838608562E-01  0.51100000000E-03 0.  1.
</event>
<event>
 8    1  0.1150307E+005  0.1043930E+01  0.7957747E-01            NaN
         13   -1    0    0    0    0  0.00000000000E+00  0.00000000000E+00  0.74505805969E-08  0.10566000000E+00  0.10566000000E+00 0.  1.
     999900   -1    0    0    0    0 -0.00000000000E+00 -0.00000000000E+00 -0.74505805969E-08  0.93827000000E+00  0.93827000000E+00 0. -1.
     999902    2    1    2    0    0 -0.22736980521E-01 -0.21655288177E-02 -0.40734820583E-02  0.10207297187E+01  0.10204660237E+01 0.  0.
     999903    2    3    3    0    0 -0.43240234213E-01  0.87110450297E-01  0.86068598783E-01  0.13139503554E+00  0.19972562733E-01 0.  0.
         14    1    1    2    0    0  0.22736980521E-01  0.21655288177E-02  0.40734820583E-02  0.23200281342E-01  0.00000000000E+00 0.  1.
     999901    1    3    3    0    0  0.20503253692E-01 -0.89275979115E-01 -0.90142080841E-01  0.88933468312E+00  0.88000000000E+00 0. -1.
        -11    1    4    4    0    0 -0.13221385350E-01  0.23570571034E-01  0.36400361371E-01  0.45338992913E-01  0.51100000000E-03 0.  1.
         11    1    4    4    0    0 -0.30018848862E-01  0.63539879264E-01  0.49668237412E-01  0.86056042626E-01  0.51100000000E-03 0. -1.
</event>
<event>
 8    1  0.1150307E+005  0.1043930E+01  0.7957747E-01            NaN
         13   -1    0    0    0    0  0.00000000000E+00  0.00000000000E+00  0.74505805969E-08  0.10566000000E+00  0.10566000000E+00 0.  1.
     999900   -1    0    0    0    0 -0.00000000000E+00 -0.00000000000E+00 -0.74505805969E-08  0.93827000000E+00  0.93827000000E+00 0. -1.
     999902    2    1    2    0    0 -0.90516815669E-02  0.17176237027E-01 -0.83983475678E-02  0.10227760808E+01  0.10225572957E+01 0.  0.
     999903    2    3    3    0    0  0.10925259057E-01  0.47779295825E-01  0.12125403961E+00  0.13252590981E+00  0.21409162840E-01 0.  0.
         14    1    1    2    0    0  0.90516815669E-02 -0.17176237027E-01  0.83983475678E-02  0.21153919246E-01  0.00000000000E+00 0. -1.
     999901    1    3    3    0    0 -0.19976940624E-01 -0.30603058798E-01 -0.12965238718E+00  0.89025017094E+00  0.88000000000E+00 0. -1.
        -11    1    4    4    0    0 -0.34611132050E-02  0.31739101636E-01  0.72624662411E-01  0.79334435075E-01  0.51100000000E-03 0.  1.
         11    1    4    4    0    0  0.14386372262E-01  0.16040194188E-01  0.48629377202E-01  0.53191474735E-01  0.51100000000E-03 0. -1.
</event>
<event>
 8    1  0.1150307E+005  0.1043930E+01  0.7957747E-01            NaN
         13   -1    0    0    0    0  0.00000000000E+00  0.00000000000E+00  0.74505805969E-08  0.10566000000E+00  0.10566000000E+00 0.  1.
     999900   -1    0    0    0    0 -0.00000000000E+00 -0.00000000000E+00 -0.74505805969E-08  0.93827000000E+00  0.93827000000E+00 0. -1.
     999902    2    1    2    0    0 -0.12489462377E-02 -0.22988511653E-01  0.67370698796E-02  0.10199420938E+01  0.10196599703E+01 0.  0.
     999903    2    3    3    0    0 -0.74570475730E-01  0.38414574537E-01  0.97490718858E-01  0.13012042035E+00  0.19759760672E-01 0.  0.
         14    1    1    2    0    0  0.12489462377E-02  0.22988511653E-01 -0.67370698796E-02  0.23987906230E-01  0.00000000000E+00 0. -1.
     999901    1    3    3    0    0  0.73321529493E-01 -0.61403086190E-01 -0.90753648979E-01  0.88982167342E+00  0.88000000000E+00 0. -1.
        -11    1    4    4    0    0 -0.49385835713E-01  0.35046107720E-01  0.72680337204E-01  0.94603821130E-01  0.51100000000E-03 0. -1.
         11    1    4    4    0    0 -0.25184640017E-01  0.33684668170E-02  0.24810381654E-01  0.35516599222E-01  0.51100000000E-03 0.  1.
</event>
<event>
 8    1  0.1150307E+005  0.1043930E+01  0.7957747E-01            NaN
         13   -1    0    0    0    0  0.00000000000E+00  0.00000000000E+00  0.74505805969E-08  0.10566000000E+00  0.10566000000E+00 0. -1.
     999900   -1    0    0    0    0 -0.00000000000E+00 -0.00000000000E+00 -0.74505805969E-08  0.93827000000E+00  0.93827000000E+00 0.  1.
     999902    2    1    2    0    0 -0.90135000092E-02  0.23686213935E-01 -0.35056608968E-02  0.10183454427E+01  0.10180240032E+01 0.  0.
     999903    2    3    3    0    0 -0.59020701405E-02 -0.64234518075E-01  0.10755140655E+00  0.12701306457E+00  0.20102382342E-01 0.  0.
         14    1    1    2    0    0  0.90135000092E-02 -0.23686213935E-01  0.35056608968E-02  0.25584557282E-01  0.00000000000E+00 0.  1.
     999901    1    3    3    0    0 -0.31114298686E-02  0.87920732010E-01 -0.11105706744E+00  0.89133237815E+00  0.88000000000E+00 0.  1.
        -11    1    4    4    0    0 -0.10128624820E-01 -0.28571358354E-01  0.61906093066E-01  0.68931393709E-01  0.51100000000E-03 0.  1.
         11    1    4    4    0    0  0.42265546792E-02 -0.35663159721E-01  0.45645313481E-01  0.58081670857E-01  0.51100000000E-03 0. -1.
</event>
<event>
 8    1  0.1150307E+005  0.1043930E+01  0.7957747E-01            NaN
         13   -1    0    0    0    0  0.00000000000E+00  0.00000000000E+00  0.74505805969E-08  0.10566000000E+00  0.10566000000E+00 0. -1.
     999900   -1    0    0    0    0 -0.00000000000E+00 -0.00000000000E+00 -0.74505805969E-08  0.93827000000E+00  0.93827000000E+00 0. -1.
     999902    2    1    2    0    0  0.18286112394E-01 -0.53072616663E-02  0.13820845268E-01  0.10204020444E+01  0.10201307600E+01 0.  0.
     999903    2    3    3    0    0 -0.13976999232E-01  0.12446661805E+00  0.29216435085E-01  0.13016657415E+00  0.20060942914E-01 0.  0.
         14    1    1    2    0    0 -0.18286112394E-01  0.53072616663E-02 -0.13820845268E-01  0.23527955644E-01  0.00000000000E+00 0.  1.
     999901    1    3    3    0    0  0.32263111626E-01 -0.12977387972E+00 -0.15395589817E-01  0.89023547021E+00  0.88000000000E+00 0.  1.
        -11    1    4    4    0    0  0.23491317033E-02  0.24288905495E-01  0.12066098079E-01  0.27227214212E-01  0.51100000000E-03 0. -1.
         11    1    4    4    0    0 -0.16326130935E-01  0.10017771255E+00  0.17150337007E-01  0.10293935994E+00  0.51100000000E-03 0.  1.
</event>
<event>
 8    1  0.1150307E+005  0.1043930E+01  0.7957747E-01            NaN
         13   -1    0    0    0    0  0.00000000000E+00  0.00000000000E+00  0.74505805969E-08  0.10566000000E+00  0.10566000000E+00 0. -1.
     999900   -1    0    0    0    0 -0.00000000000E+00 -0.00000000000E+00 -0.74505805969E-08  0.93827000000E+00  0.93827000000E+00 0. -1.
     999902    2    1    2    0    0 -0.20895790007E-01 -0.34648624545E-03  0.48423359721E-02  0.10224776735E+01  0.10222526061E+01 0.  0.
     999903    2    3    3    0    0  0.70105443043E-01  0.10749590389E+00  0.19095083585E-01  0.13112233119E+00  0.18928841008E-01 0.  0.
         14    1    1    2    0    0  0.20895790007E-01  0.34648624545E-03 -0.48423359721E-02  0.21452326456E-01  0.00000000000E+00 0.  1.
     999901    1    3    3    0    0 -0.91001233049E-01 -0.10784239014E+00 -0.14252747613E-01  0.89135534235E+00  0.88000000000E+00 0.  1.
        -11    1    4    4    0    0  0.34862409669E-01  0.68715656289E-01  0.15468641672E-01  0.78592423447E-01  0.51100000000E-03 0.  1.
         11    1    4    4    0    0  0.35243033374E-01  0.38780247603E-01  0.36264419131E-02  0.52529907744E-01  0.51100000000E-03 0. -1.
</event>
<event>
 8    1  0.1150307E+005  0.1043930E+01  0.7957747E-01            NaN
         13   -1    0    0    0    0  0.00000000000E+00  0.00000000000E+00  0.74505805969E-08  0.10566000000E+00  0.10566000000E+00 0. -1.
     999900   -1    0    0    0    0 -0.00000000000E+00 -0.00000000000E+00 -0.74505805969E-08  0.93827000000E+00  0.93827000000E+00 0.  1.
     999902    2    1    2    0    0 -0.51869750618E-02  0.31379116145E-02  0.13700281390E-01  0.10289483809E+01  0.10288393080E+01 0.  0.
     999903    2    3    3    0    0  0.12015166416E-01  0.10734895831E+00 -0.82570480710E-01  0.13741940465E+00  0.19951075560E-01 0.  0.
         14    1    1    2    0    0  0.51869750618E-02 -0.31379116145E-02 -0.13700281390E-01  0.14981619063E-01  0.00000000000E+00 0.  1.
     999901    1    3    3    0    0 -0.17202141478E-01 -0.10421104669E+00  0.96270762100E-01  0.89152897629E+00  0.88000000000E+00 0. -1.
        -11    1    4    4    0    0 -0.41857238091E-02  0.50835050934E-01 -0.36417099087E-01  0.62675265569E-01  0.51100000000E-03 0.  1.
         11    1    4    4    0    0  0.16200890225E-01  0.56513907373E-01 -0.46153381623E-01  0.74744139081E-01  0.51100000000E-03 0. -1.
</event>
<event>
 8    1  0.1150307E+005  0.1043930E+01  0.7957747E-01            NaN
         13   -1    0    0    0    0  0.00000000000E+00  0.00000000000E+00  0.74505805969E-08  0.10566000000E+00  0.10566000000E+00 0. -1.
     999900   -1    0    0    0    0 -0.00000000000E+00 -0.00000000000E+00 -0.74505805969E-08  0.93827000000E+00  0.93827000000E+00 0. -1.
     999902    2    1    2    0    0  0.26501242498E-01 -0.22754466011E-01  0.51874209595E-03  0.10089964821E+01  0.10083915660E+01 0.  0.
     999903    2    3    3    0    0 -0.37919910404E-01 -0.98713454840E-01 -0.56655765038E-01  0.12153449579E+00  0.19454875595E-01 0.  0.
         14    1    1    2    0    0 -0.26501242498E-01  0.22754466011E-01 -0.51874209595E-03  0.34933517870E-01  0.00000000000E+00 0.  1.
     999901    1    3    3    0    0  0.64421152902E-01  0.75958988829E-01  0.57174507134E-01  0.88746198634E+00  0.88000000000E+00 0.  1.
        -11    1    4    4    0    0 -0.10526146486E-01 -0.10332909627E-01 -0.10636730184E-01  0.18192579014E-01  0.51100000000E-03 0.  1.
         11    1    4    4    0    0 -0.27393763918E-01 -0.88380545214E-01 -0.46019034854E-01  0.10334191678E+00  0.51100000000E-03 0. -1.
</event>
<event>
 8    1  0.1150307E+005  0.1043930E+01  0.7957747E-01            NaN
         13   -1    0    0    0    0  0.00000000000E+00  0.00000000000E+00  0.74505805969E-08  0.10566000000E+00  0.10566000000E+00 0. -1.
     999900   -1    0    0    0    0 -0.00000000000E+00 -0.00000000000E+00 -0.74505805969E-08  0.93827000000E+00  0.93827000000E+00 0.  1.
     999902    2    1    2    0    0  0.10707089958E-02  0.52847148205E-02  0.21713435331E-01  0.10215570721E+01  0.10213120501E+01 0.  0.
     999903    2    3    3    0    0 -0.96711599755E-01  0.17556348184E-01  0.88321994796E-01  0.13355444087E+00  0.19356007432E-01 0.  0.
         14    1    1    2    0    0 -0.10707089958E-02 -0.52847148205E-02 -0.21713435331E-01  0.22372927889E-01  0.00000000000E+00 0.  1.
     999901    1    3    3    0    0  0.97782308751E-01 -0.12271633363E-01 -0.66608559465E-01  0.88800263124E+00  0.88000000000E+00 0.  1.
        -11    1    4    4    0    0 -0.29223168894E-01  0.47338367148E-02  0.39088093381E-01  0.49036139483E-01  0.51100000000E-03 0. -1.
         11    1    4    4    0    0 -0.67488430861E-01  0.12822511469E-01  0.49233901415E-01  0.84518301391E-01  0.51100000000E-03 0.  1.
</event>
<event>
 8    1  0.1150307E+005  0.1043930E+01  0.7957747E-01            NaN
         13   -1    0    0    0    0  0.00000000000E+00  0.00000000000E+00  0.74505805969E-08  0.10566000000E+00  0.10566000000E+00 0. -1.
     999900   -1    0    0    0    0 -0.00000000000E+00 -0.00000000000E+00 -0.74505805969E-08  0.93827000000E+00  0.93827000000E+00 0.  1.
     999902    2    1    2    0    0  0.20230640269E-01 -0.20620200146E-02 -0.81480780657E-02  0.10220228800E+01  0.10217880628E+01 0.  0.
     999903    2    3    3    0    0 -0.60840836059E-01  0.10961255952E+00 -0.31416136275E-01  0.13096440908E+00  0.21170316286E-01 0.  0.
         14    1    1    2    0    0 -0.20230640269E-01  0.20620200146E-02  0.81480780657E-02  0.21907120039E-01  0.00000000000E+00 0. -1.
     999901    1    3    3    0    0  0.81071476328E-01 -0.11167457953E+00  0.23268058209E-01  0.89105847088E+00  0.88000000000E+00 0. -1.
        -11    1    4    4    0    0 -0.29228329605E-01  0.32223166291E-01 -0.12204127616E-01  0.45186608074E-01  0.51100000000E-03 0. -1.
         11    1    4    4    0    0 -0.31612506454E-01  0.77389393229E-01 -0.19212008659E-01  0.85777801011E-01  0.51100000000E-03 0.  1.
</event>
<event>
 8    1  0.1150307E+005  0.1043930E+01  0.7957747E-01            NaN
         13   -1    0    0    0    0  0.00000000000E+00  0.00000000000E+00  0.74505805969E-08  0.10566000000E+00  0.10566000000E+00 0. -1.
     999900   -1    0    0    0    0 -0.00000000000E+00 -0.00000000000E+00 -0.74505805969E-08  0.93827000000E+00  0.93827000000E+00 0.  1.
     999902    2    1    2    0    0 -0.11117243427E-01  0.64399243187E-02 -0.21070457086E-01  0.10192514691E+01  0.10189526620E+01 0.  0.
     999903    2    3    3    0    0  0.25447658160E-01  0.12177024689E+00 -0.35580677290E-01  0.13085481115E+00  0.19529994119E-01 0.  0.
         14    1    1    2    0    0  0.11117243427E-01 -0.64399243187E-02  0.21070457086E-01  0.24678530922E-01  0.00000000000E+00 0. -1.
     999901    1    3    3    0    0 -0.36564901587E-01 -0.11533032257E+00  0.14510220204E-01  0.88839665793E+00  0.88000000000E+00 0. -1.
        -11    1    4    4    0    0  0.14587000637E-01  0.68025392754E-01 -0.97912130620E-02  0.70259260038E-01  0.51100000000E-03 0. -1.
         11    1    4    4    0    0  0.10860657523E-01  0.53744854136E-01 -0.25789464228E-01  0.60595551109E-01  0.51100000000E-03 0.  1.
</event>
<event>
 8    1  0.1150307E+005  0.1043930E+01  0.7957747E-01            NaN
         13   -1    0    0    0    0  0.00000000000E+00  0.00000000000E+00  0.74505805969E-08  0.10566000000E+00  0.10566000000E+00 0.  1.
     999900   -1    0    0    0    0 -0.00000000000E+00 -0.00000000000E+00 -0.74505805969E-08  0.93827000000E+00  0.93827000000E+00 0.  1.
     999902    2    1    2    0    0 -0.17496341160E-01 -0.27812150884E-02  0.20089722271E-02  0.10261004436E+01  0.10259455284E+01 0.  0.
     999903    2    3    3    0    0  0.67510305066E-01 -0.11013697131E+00  0.34180524752E-01  0.13492908126E+00  0.18701736765E-01 0.  0.
         14    1    1    2    0    0  0.17496341160E-01  0.27812150884E-02 -0.20089722271E-02  0.17829556382E-01  0.00000000000E+00 0.  1.
     999901    1    3    3    0    0 -0.85006646226E-01  0.10735575622E+00 -0.32171552525E-01  0.89117136236E+00  0.88000000000E+00 0. -1.
        -11    1    4    4    0    0  0.25532038441E-01 -0.59135074219E-01  0.14887706549E-01  0.66111624675E-01  0.51100000000E-03 0.  1.
         11    1    4    4    0    0  0.41978266625E-01 -0.51001897090E-01  0.19292818203E-01  0.68817456585E-01  0.51100000000E-03 0. -1.
</event>
<event>
 8    1  0.1150307E+005  0.1043930E+01  0.7957747E-01            NaN
         13   -1    0    0    0    0  0.00000000000E+00  0.00000000000E+00  0.74505805969E-08  0.10566000000E+00  0.10566000000E+00 0. -1.
     999900   -1    0    0    0    0 -0.00000000000E+00 -0.00000000000E+00 -0.74505805969E-08  0.93827000000E+00  0.93827000000E+00 0.  1.
     999902    2    1    2    0    0  0.17803558683E-01 -0.54154234236E-02  0.93588303312E-02  0.10231001844E+01  0.10228881200E+01 0.  0.
     999903    2    3    3    0    0  0.84921779689E-01 -0.10132249913E+00 -0.15946973206E-01  0.13498791309E+00  0.22124041895E-01 0.  0.
         14    1    1    2    0    0 -0.17803558683E-01  0.54154234236E-02 -0.93588303312E-02  0.20829815597E-01  0.00000000000E+00 0.  1.
     999901    1    3    3    0    0 -0.67118221006E-01  0.95907075711E-01  0.25305803537E-01  0.88811227131E+00  0.88000000000E+00 0. -1.
        -11    1    4    4    0    0  0.51627192803E-01 -0.59093774160E-01 -0.20239223603E-01  0.81039055241E-01  0.51100000000E-03 0.  1.
         11    1    4    4    0    0  0.33294586886E-01 -0.42228724974E-01  0.42922503976E-02  0.53948857850E-01  0.51100000000E-03 0. -1.
</event>
<event>
 8    1  0.1150307E+005  0.1043930E+01  0.7957747E-01            NaN
         13   -1    0    0    0    0  0.00000000000E+00  0.00000000000E+00  0.74505805969E-08  0.10566000000E+00  0.10566000000E+00 0.  1.
     999900   -1    0    0    0    0 -0.00000000000E+00 -0.00000000000E+00 -0.74505805969E-08  0.93827000000E+00  0.93827000000E+00 0.  1.
     999902    2    1    2    0    0  0.18528517013E-01 -0.14533078702E-01  0.26116218935E-02  0.10202374508E+01  0.10199623126E+01 0.  0.
     999903    2    3    3    0    0 -0.74110565415E-02 -0.12867497028E+00  0.23074073642E-01  0.13225099547E+00  0.18594117149E-01 0.  0.
         14    1    1    2    0    0 -0.18528517013E-01  0.14533078702E-01 -0.26116218935E-02  0.23692549212E-01  0.00000000000E+00 0. -1.
     999901    1    3    3    0    0  0.25939573555E-01  0.11414189158E+00 -0.20462451749E-01  0.88798645531E+00  0.88000000000E+00 0.  1.
        -11    1    4    4    0    0 -0.10572034495E-01 -0.10967584909E+00  0.24685194719E-01  0.11291669383E+00  0.51100000000E-03 0.  1.
         11    1    4    4    0    0  0.31609779538E-02 -0.18999121198E-01 -0.16111210768E-02  0.19334301643E-01  0.51100000000E-03 0. -1.
</event>
<event>
 8    1  0.1150307E+005  0.1043930E+01  0.7957747E-01            NaN
         13   -1    0    0    0    0  0.00000000000E+00  0.00000000000E+00  0.74505805969E-08  0.10566000000E+00  0.10566000000E+00 0. -1.
     999900   -1    0    0    0    0 -0.00000000000E+00 -0.00000000000E+00 -0.74505805969E-08  0.93827000000E+00  0.93827000000E+00 0.  1.
     999902    2    1    2    0    0 -0.14146950175E-01  0.19972843282E-01  0.27506285854E-02  0.10193004116E+01  0.10190028030E+01 0.  0.
     999903    2    3    3    0    0 -0.30844126089E-01  0.11890057172E+00  0.45617724176E-01  0.13256308913E+00  0.20082075904E-01 0.  0.
         14    1    1    2    0    0  0.14146950175E-01 -0.19972843282E-01 -0.27506285854E-02  0.24629588418E-01  0.00000000000E+00 0. -1.
     999901    1    3    3    0    0  0.16697175914E-01 -0.98927728437E-01 -0.42867095591E-01  0.88673732245E+00  0.88000000000E+00 0.  1.
        -11    1    4    4    0    0 -0.24687490161E-01  0.10086474428E+00  0.30493393530E-01  0.10822789372E+00  0.51100000000E-03 0.  1.
         11    1    4    4    0    0 -0.61566359280E-02  0.18035827438E-01  0.15124330646E-01  0.24335195414E-01  0.51100000000E-03 0. -1.
</event>
<event>
 8    1  0.1150307E+005  0.1043930E+01  0.7957747E-01            NaN
         13   -1    0    0    0    0  0.00000000000E+00  0.00000000000E+00  0.74505805969E-08  0.10566000000E+00  0.10566000000E+00 0.  1.
     999900   -1    0    0    0    0 -0.00000000000E+00 -0.00000000000E+00 -0.74505805969E-08  0.93827000000E+00  0.93827000000E+00 0. -1.
     999902    2    1    2    0    0 -0.30276372736E-02  0.23129396504E-01 -0.10101170769E-01  0.10185101412E+01  0.10181928788E+01 0.  0.
     999903    2    3    3    0    0  0.87854375658E-02  0.13009637264E+00 -0.66790994686E-02  0.13194756965E+00  0.19060448050E-01 0.  0.
         14    1    1    2    0    0  0.30276372736E-02 -0.23129396504E-01  0.10101170769E-01  0.25419858792E-01  0.00000000000E+00 0. -1.
     999901    1    3    3    0    0 -0.11813074839E-01 -0.10696697613E+00 -0.34220713000E-02  0.88656257156E+00  0.88000000000E+00 0. -1.
        -11    1    4    4    0    0  0.88850133832E-02  0.88483987688E-01 -0.12928634486E-01  0.89865289466E-01  0.51100000000E-03 0. -1.
         11    1    4    4    0    0 -0.99575817321E-04  0.41612384948E-01  0.62495350172E-02  0.42082280182E-01  0.51100000000E-03 0.  1.
</event>
<event>
 8    1  0.1150307E+005  0.1043930E+01  0.7957747E-01            NaN
         13   -1    0    0    0    0  0.00000000000E+00  0.00000000000E+00  0.74505805969E-08  0.10566000000E+00  0.10566000000E+00 0.  1.
     999900   -1    0    0    0    0 -0.00000000000E+00 -0.00000000000E+00 -0.74505805969E-08  0.93827000000E+00  0.93827000000E+00 0.  1.
     999902    2    1    2    0    0  0.16542128641E-01 -0.13818783552E-01  0.13026240985E-01  0.10187450094E+01  0.10184336554E+01 0.  0.
     999903    2    3    3    0    0 -0.43014698933E-01 -0.74612865466E-01 -0.92968818512E-01  0.12830810046E+00  0.20060493803E-01 0.  0.
         14    1    1    2    0    0 -0.16542128641E-01  0.13818783552E-01 -0.13026240985E-01  0.25184990629E-01  0.00000000000E+00 0. -1.
     999901    1    3    3    0    0  0.59556827574E-01  0.60794081914E-01  0.10599505950E+00  0.89043690891E+00  0.88000000000E+00 0.  1.
        -11    1    4    4    0    0 -0.13457597689E-01 -0.34113716216E-01 -0.27479629507E-01  0.45828416168E-01  0.51100000000E-03 0. -1.
         11    1    4    4    0    0 -0.29557101244E-01 -0.40499149250E-01 -0.65489189005E-01  0.82479684295E-01  0.51100000000E-03 0.  1.
</event>
<event>
 8    1  0.1150307E+005  0.1043930E+01  0.7957747E-01            NaN
         13   -1    0    0    0    0  0.00000000000E+00  0.00000000000E+00  0.74505805969E-08  0.10566000000E+00  0.10566000000E+00 0.  1.
     999900   -1    0    0    0    0 -0.00000000000E+00 -0.00000000000E+00 -0.74505805969E-08  0.93827000000E+00  0.93827000000E+00 0. -1.
     999902    2    1    2    0    0  0.16586701015E-01  0.30434140586E-02  0.16028875052E-01  0.10206640194E+01  0.10203988115E+01 0.  0.
     999903    2    3    3    0    0  0.47467120363E-01  0.12124336155E+00 -0.74584723372E-02  0.13191406388E+00  0.19814419090E-01 0.  0.
         14    1    1    2    0    0 -0.16586701015E-01 -0.30434140586E-02 -0.16028875052E-01  0.23265980639E-01  0.00000000000E+00 0. -1.
     999901    1    3    3    0    0 -0.30880419348E-01 -0.11819994749E+00  0.23487347389E-01  0.88874995548E+00  0.88000000000E+00 0. -1.
        -11    1    4    4    0    0  0.13144587715E-01  0.32654988633E-01  0.67647124116E-02  0.35849001713E-01  0.51100000000E-03 0.  1.
         11    1    4    4    0    0  0.34322532648E-01  0.88588372915E-01 -0.14223184749E-01  0.96065062164E-01  0.51100000000E-03 0. -1.
</event>
<event>
 8    1  0.1150307E+005  0.1043930E+01  0.7957747E-01            NaN
         13   -1    0    0    0    0  0.00000000000E+00  0.00000000000E+00  0.74505805969E-08  0.10566000000E+00  0.10566000000E+00 0. -1.
     999900   -1    0    0    0    0 -0.00000000000E+00 -0.00000000000E+00 -0.74505805969E-08  0.93827000000E+00  0.93827000000E+00 0.  1.
     999902    2    1    2    0    0  0.98421343123E-02 -0.16106412272E-01 -0.15156257403E-01  0.10197226403E+01  0.10194352686E+01 0.  0.
     999903    2    3    3    0    0 -0.27966549279E-01 -0.40603093752E-01  0.11728699480E+00  0.12867224948E+00  0.19224191471E-01 0.  0.
         14    1    1    2    0    0 -0.98421343123E-02  0.16106412272E-01  0.15156257403E-01  0.24207359678E-01  0.00000000000E+00 0. -1.
     999901    1    3    3    0    0  0.37808683592E-01  0.24496681480E-01 -0.13244325220E+00  0.89105039084E+00  0.88000000000E+00 0.  1.
        -11    1    4    4    0    0 -0.19173835935E-01 -0.39296821717E-01  0.91996758157E-01  0.10186039865E+00  0.51100000000E-03 0.  1.
         11    1    4    4    0    0 -0.87927133443E-02 -0.13062720352E-02  0.25290236641E-01  0.26811850830E-01  0.51100000000E-03 0. -1.
</event>
<event>
 8    1  0.1150307E+005  0.1043930E+01  0.7957747E-01            NaN
         13   -1    0    0    0    0  0.00000000000E+00  0.00000000000E+00  0.74505805969E-08  0.10566000000E+00  0.10566000000E+00 0.  1.
     999900   -1    0    0    0    0 -0.00000000000E+00 -0.00000000000E+00 -0.74505805969E-08  0.93827000000E+00  0.93827000000E+00 0.  1.
     999902    2    1    2    0    0  0.71822099628E-02 -0.76755146081E-02 -0.21893169087E-01  0.10196440263E+01  0.10193547625E+01 0.  0.
     999903    2    3    3    0    0  0.43092096741E-01 -0.80112942096E-01 -0.94804567283E-01  0.13293507021E+00  0.20219164724E-01 0.  0.
         14    1    1    2    0    0 -0.71822099628E-02  0.76755146081E-02  0.21893169087E-01  0.24285973670E-01  0.00000000000E+00 0.  1.
     999901    1    3    3    0    0 -0.35909886778E-01  0.72437427488E-01  0.72911398196E-01  0.88670895612E+00  0.88000000000E+00 0. -1.
        -11    1    4    4    0    0  0.46128370074E-02 -0.97187382544E-02 -0.22453917370E-01  0.24903246069E-01  0.51100000000E-03 0. -1.
         11    1    4    4    0    0  0.38479259734E-01 -0.70394203842E-01 -0.72350649913E-01  0.10803182414E+00  0.51100000000E-03 0.  1.
</event>
<event>
 8    1  0.1150307E+005  0.1043930E+01  0.7957747E-01            NaN
         13   -1    0    0    0    0  0.00000000000E+00  0.00000000000E+00  0.74505805969E-08  0.10566000000E+00  0.10566000000E+00 0. -1.
     999900   -1    0    0    0    0 -0.00000000000E+00 -0.00000000000E+00 -0.74505805969E-08  0.93827000000E+00  0.93827000000E+00 0. -1.
     999902    2    1    2    0    0  0.11249573988E-01 -0.21014049487E-01 -0.14489896926E-02  0.10200502437E+01  0.10197706884E+01 0.  0.
     999903    2    3    3    0    0  0.95660534944E-01  0.82879110552E-01 -0.20419346366E-01  0.12972509326E+00  0.19793059505E-01 0.  0.
         14    1    1    2    0    0 -0.11249573988E-01  0.21014049487E-01  0.14489896926E-02  0.23879756320E-01  0.00000000000E+00 0. -1.
     999901    1    3    3    0    0 -0.84410960956E-01 -0.10389316004E+00  0.18970356673E-01  0.89032515042E+00  0.88000000000E+00 0. -1.
        -11    1    4    4    0    0  0.64889594557E-01  0.43751648953E-01 -0.14485793381E-01  0.79592497126E-01  0.51100000000E-03 0.  1.
         11    1    4    4    0    0  0.30770940387E-01  0.39127461598E-01 -0.59335529849E-02  0.50132596137E-01  0.51100000000E-03 0. -1.
</event>
<event>
 8    1  0.1150307E+005  0.1043930E+01  0.7957747E-01            NaN
         13   -1    0    0    0    0  0.00000000000E+00  0.00000000000E+00  0.74505805969E-08  0.10566000000E+00  0.10566000000E+00 0.  1.
     999900   -1    0    0    0    0 -0.00000000000E+00 -0.00000000000E+00 -0.74505805969E-08  0.93827000000E+00  0.93827000000E+00 0.  1.
     999902    2    1    2    0    0 -0.14892779614E-01 -0.12089081598E-01  0.14232087776E-01  0.10200450026E+01  0.10197653231E+01 0.  0.
     999903    2    3    3    0    0 -0.28214183550E-01 -0.10460306372E+00  0.74691545270E-01  0.13303223905E+00  0.19516879840E-01 0.  0.
         14    1    1    2    0    0  0.14892779614E-01  0.12089081598E-01 -0.14232087776E-01  0.23884997404E-01  0.00000000000E+00 0. -1.
     999901    1    3    3    0    0  0.13321403937E-01  0.92513982124E-01 -0.60459457494E-01  0.88701276355E+00  0.88000000000E+00 0.  1.
        -11    1    4    4    0    0 -0.68612179788E-02 -0.20602814179E-01  0.25025603541E-01  0.33137504701E-01  0.51100000000E-03 0. -1.
         11    1    4    4    0    0 -0.21352965571E-01 -0.84000249543E-01  0.49665941730E-01  0.99894734350E-01  0.51100000000E-03 0.  1.
</event>
<event>
 8    1  0.1150307E+005  0.1043930E+01  0.7957747E-01            NaN
         13   -1    0    0    0    0  0.00000000000E+00  0.00000000000E+00  0.74505805969E-08  0.10566000000E+00  0.10566000000E+00 0. -1.
     999900   -1    0    0    0    0 -0.00000000000E+00 -0.00000000000E+00 -0.74505805969E-08  0.93827000000E+00  0.93827000000E+00 0. -1.
     999902    2    1    2    0    0 -0.17818558332E-01 -0.18558098097E-01  0.46203169980E-02  0.10177909228E+01  0.10174552134E+01 0.  0.
     999903    2    3    3    0    0 -0.60051292059E-01  0.87298565409E-01 -0.67877746959E-01  0.12748467986E+00  0.20439125844E-01 0.  0.
         14    1    1    2    0    0  0.17818558332E-01  0.18558098097E-01 -0.46203169980E-02  0.26139077167E-01  0.00000000000E+00 0.  1.
     999901    1    3    3    0    0  0.42232733728E-01 -0.10585666351E+00  0.72498063957E-01  0.89030624298E+00  0.88000000000E+00 0.  1.
        -11    1    4    4    0    0 -0.81223895811E-02  0.27354881018E-01 -0.16079122850E-01  0.32757625687E-01  0.51100000000E-03 0.  1.
         11    1    4    4    0    0 -0.51928902478E-01  0.59943684391E-01 -0.51798624109E-01  0.94727054169E-01  0.51100000000E-03 0. -1.
</event>
<event>
 8    1  0.1150307E+005  0.1043930E+01  0.7957747E-01            NaN
         13   -1    0    0    0    0  0.00000000000E+00  0.00000000000E+00  0.74505805969E-08  0.10566000000E+00  0.10566000000E+00 0.  1.
     999900   -1    0    0    0    0 -0.00000000000E+00 -0.00000000000E+00 -0.74505805969E-08  0.93827000000E+00  0.93827000000E+00 0. -1.
     999902    2    1    2    0    0  0.18742431172E-01 -0.10851647438E-01 -0.95926410294E-02  0.10202433848E+01  0.10199683860E+01 0.  0.
     999903    2    3    3    0    0  0.12143868437E+00 -0.14544221185E-01 -0.49463537161E-01  0.13336693123E+00  0.19524559035E-01 0.  0.
         14    1    1    2    0    0 -0.18742431172E-01  0.10851647438E-01  0.95926410294E-02  0.23686615213E-01  0.00000000000E+00 0.  1.
     999901    1    3    3    0    0 -0.10269625320E+00  0.36925737476E-02  0.39870896131E-01  0.88687645356E+00  0.88000000000E+00 0. -1.
        -11    1    4    4    0    0  0.24693745789E-01 -0.66363167628E-02 -0.29988340182E-02  0.25750260343E-01  0.51100000000E-03 0. -1.
         11    1    4    4    0    0  0.96744938579E-01 -0.79079044226E-02 -0.46464703142E-01  0.10761667088E+00  0.51100000000E-03 0.  1.
</event>
<event>
 8    1  0.1150307E+005  0.1043930E+01  0.7957747E-01            NaN
         13   -1    0    0    0    0  0.00000000000E+00  0.00000000000E+00  0.74505805969E-08  0.10566000000E+00  0.10566000000E+00 0.  1.
     999900   -1    0    0    0    0 -0.00000000000E+00 -0.00000000000E+00 -0.74505805969E-08  0.93827000000E+00  0.93827000000E+00 0. -1.
     999902    2    1    2    0    0  0.22972610059E-01  0.51662735949E-02  0.48591968089E-02  0.10198874754E+01  0.10196040503E+01 0.  0.
     999903    2    3    3    0    0 -0.12313669419E+00  0.27028442370E-01 -0.62296877744E-03  0.12755573364E+00  0.19413782199E-01 0.  0.
         14    1    1    2    0    0 -0.22972610059E-01 -0.51662735949E-02 -0.48591968089E-02  0.24042524605E-01  0.00000000000E+00 0. -1.
     999901    1    3    3    0    0  0.14610930425E+00 -0.21862168776E-01  0.54821655864E-02  0.89233174176E+00  0.88000000000E+00 0.  1.
        -11    1    4    4    0    0 -0.52793941342E-01  0.16377277117E-01 -0.86764801124E-02  0.55954962928E-01  0.51100000000E-03 0.  1.
         11    1    4    4    0    0 -0.70342752851E-01  0.10651165254E-01  0.80535113349E-02  0.71600770707E-01  0.51100000000E-03 0. -1.
</event>
<event>
 8    1  0.1636186E+005  0.1043930E+01  0.7957747E-01            NaN
         13   -1    0    0    0    0  0.00000000000E+00  0.00000000000E+00  0.74505805969E-08  0.10566000000E+00  0.10566000000E+00 0. -1.
     999900   -1    0    0    0    0 -0.00000000000E+00 -0.00000000000E+00 -0.74505805969E-08  0.93827000000E+00  0.93827000000E+00 0. -1.
     999902    2    1    2    0    0 -0.17097084107E-01 -0.11449253928E-01  0.11878725435E-01  0.10201707951E+01  0.10198940883E+01 0.  0.
     999903    2    3    3    0    0  0.47939835741E-01 -0.66726669460E-01  0.10087896462E+00  0.13157277787E+00  0.19599849622E-01 0.  0.
         14    1    1    2    0    0  0.17097084107E-01  0.11449253928E-01 -0.11878725435E-01  0.23759204920E-01  0.00000000000E+00 0.  1.
     999901    1    3    3    0    0 -0.65036919848E-01  0.55277415532E-01 -0.89000239189E-01  0.88859801721E+00  0.88000000000E+00 0. -1.
        -11    1    4    4    0    0  0.32609715684E-01 -0.28669238846E-01  0.52996396996E-01  0.68514217711E-01  0.51100000000E-03 0. -1.
         11    1    4    4    0    0  0.15330120058E-01 -0.38057430614E-01  0.47882567628E-01  0.63058560161E-01  0.51100000000E-03 0.  1.
</event>
<event>
 8    1  0.1150307E+005  0.1043930E+01  0.7957747E-01            NaN
         13   -1    0    0    0    0  0.00000000000E+00  0.00000000000E+00  0.74505805969E-08  0.10566000000E+00  0.10566000000E+00 0.  1.
     999900   -1    0    0    0    0 -0.00000000000E+00 -0.00000000000E+00 -0.74505805969E-08  0.93827000000E+00  0.93827000000E+00 0. -1.
     999902    2    1    2    0    0  0.10478181899E-01  0.15315318764E-01 -0.22294202854E-01  0.10149234013E+01  0.10145088111E+01 0.  0.
     999903    2    3    3    0    0 -0.56458523379E-01  0.11190234667E+00 -0.13763714627E-01  0.12707074144E+00  0.15742726473E-01 0.  0.
         14    1    1    2    0    0 -0.10478181899E-01 -0.15315318764E-01  0.22294202854E-01  0.29006598657E-01  0.00000000000E+00 0.  1.
     999901    1    3    3    0    0  0.66936705278E-01 -0.96587027904E-01 -0.85304882267E-02  0.88785265991E+00  0.88000000000E+00 0.  1.
        -11    1    4    4    0    0 -0.48348942625E-01  0.10523523205E+00 -0.12735032972E-01  0.11650972708E+00  0.51100000000E-03 0. -1.
         11    1    4    4    0    0 -0.81095807546E-02  0.66671146147E-02 -0.10286816551E-02  0.10561014357E-01  0.51100000000E-03 0.  1.
</event>
<event>
 8    1  0.1150307E+005  0.1043930E+01  0.7957747E-01            NaN
         13   -1    0    0    0    0  0.00000000000E+00  0.00000000000E+00  0.74505805969E-08  0.10566000000E+00  0.10566000000E+00 0.  1.
     999900   -1    0    0    0    0 -0.00000000000E+00 -0.00000000000E+00 -0.74505805969E-08  0.93827000000E+00  0.93827000000E+00 0.  1.
     999902    2    1    2    0    0  0.93899501701E-02 -0.22100257808E-01 -0.15986612239E-02  0.10198645003E+01  0.10195805268E+01 0.  0.
     999903    2    3    3    0    0  0.12658894821E+00 -0.80632947362E-02  0.28534361468E-01  0.13147233432E+00  0.19518872285E-01 0.  0.
         14    1    1    2    0    0 -0.93899501701E-02  0.22100257808E-01  0.15986612239E-02  0.24065499727E-01  0.00000000000E+00 0.  1.
     999901    1    3    3    0    0 -0.11719899804E+00 -0.14036963072E-01 -0.30133022691E-01  0.88839216596E+00  0.88000000000E+00 0. -1.
        -11    1    4    4    0    0  0.97532640779E-01 -0.14331879978E-01  0.23077250648E-01  0.10124642917E+00  0.51100000000E-03 0. -1.
         11    1    4    4    0    0  0.29056307433E-01  0.62685852419E-02  0.54571108191E-02  0.30225905149E-01  0.51100000000E-03 0.  1.
</event>
<event>
 8    1  0.1150307E+005  0.1043930E+01  0.7957747E-01            NaN
         13   -1    0    0    0    0  0.00000000000E+00  0.00000000000E+00  0.74505805969E-08  0.10566000000E+00  0.10566000000E+00 0. -1.
     999900   -1    0    0    0    0 -0.00000000000E+00 -0.00000000000E+00 -0.74505805969E-08  0.93827000000E+00  0.93827000000E+00 0.  1.
     999902    2    1    2    0    0  0.38556120650E-02 -0.58628490804E-02  0.23153212977E-01  0.10197368188E+01  0.10194497877E+01 0.  0.
     999903    2    3    3    0    0 -0.10025483742E+00 -0.36379956738E-01  0.74194655811E-01  0.13160647455E+00  0.20997226324E-01 0.  0.
         14    1    1    2    0    0 -0.38556120650E-02  0.58628490804E-02 -0.23153212977E-01  0.24193181165E-01  0.00000000000E+00 0.  1.
     999901    1    3    3    0    0  0.10411044949E+00  0.30517107657E-01 -0.51041442834E-01  0.88813034428E+00  0.88000000000E+00 0. -1.
        -11    1    4    4    0    0 -0.60810989283E-01 -0.32299225441E-01  0.50719691288E-01  0.85521719973E-01  0.51100000000E-03 0. -1.
         11    1    4    4    0    0 -0.39443848142E-01 -0.40807312968E-02  0.23474964522E-01  0.46084754578E-01  0.51100000000E-03 0.  1.
</event>
<event>
 8    1  0.1304552E+005  0.1043930E+01  0.7957747E-01            NaN
         13   -1    0    0    0    0  0.00000000000E+00  0.00000000000E+00  0.74505805969E-08  0.10566000000E+00  0.10566000000E+00 0. -1.
     999900   -1    0    0    0    0 -0.00000000000E+00 -0.00000000000E+00 -0.74505805969E-08  0.93827000000E+00  0.93827000000E+00 0.  1.
     999902    2    1    2    0    0 -0.25668543028E-02 -0.20673897608E-01  0.10584443669E-01  0.10205627316E+01  0.10202951828E+01 0.  0.
     999903    2    3    3    0    0  0.32278529903E-01  0.12106759680E+00 -0.16432015329E-01  0.12813080644E+00  0.21171347221E-01 0.  0.
         14    1    1    2    0    0  0.25668543028E-02  0.20673897608E-01 -0.10584443669E-01  0.23367268370E-01  0.00000000000E+00 0. -1.
     999901    1    3    3    0    0 -0.34845384206E-01 -0.14174149441E+00  0.27016458998E-01  0.89243192519E+00  0.88000000000E+00 0.  1.
        -11    1    4    4    0    0  0.23568202917E-01  0.51301156179E-01 -0.29155386846E-02  0.56533444091E-01  0.51100000000E-03 0. -1.
         11    1    4    4    0    0  0.87103269865E-02  0.69766440625E-01 -0.13516476644E-01  0.71597362350E-01  0.51100000000E-03 0.  1.
</event>
<event>
 8    1  0.1150307E+005  0.1043930E+01  0.7957747E-01            NaN
         13   -1    0    0    0    0  0.00000000000E+00  0.00000000000E+00  0.74505805969E-08  0.10566000000E+00  0.10566000000E+00 0. -1.
     999900   -1    0    0    0    0 -0.00000000000E+00 -0.00000000000E+00 -0.74505805969E-08  0.93827000000E+00  0.93827000000E+00 0. -1.
     999902    2    1    2    0    0  0.18959508273E-02 -0.20909330348E-01 -0.10415820469E-01  0.10204931905E+01  0.10202240282E+01 0.  0.
     999903    2    3    3    0    0  0.66760908827E-01  0.10912918471E+00 -0.27150961118E-02  0.12854208232E+00  0.12226907891E-01 0.  0.
         14    1    1    2    0    0 -0.18959508273E-02  0.20909330348E-01  0.10415820469E-01  0.23436809535E-01  0.00000000000E+00 0. -1.
     999901    1    3    3    0    0 -0.64864958000E-01 -0.13003851506E+00 -0.77007243570E-02  0.89195110815E+00  0.88000000000E+00 0.  1.
        -11    1    4    4    0    0  0.35887108256E-01  0.47706177223E-01 -0.33211992196E-02  0.59791766736E-01  0.51100000000E-03 0.  1.
         11    1    4    4    0    0  0.30873800572E-01  0.61423007485E-01  0.60610310772E-03  0.68750315579E-01  0.51100000000E-03 0. -1.
</event>
<event>
 8    1  0.1150307E+005  0.1043930E+01  0.7957747E-01            NaN
         13   -1    0    0    0    0  0.00000000000E+00  0.00000000000E+00  0.74505805969E-08  0.10566000000E+00  0.10566000000E+00 0.  1.
     999900   -1    0    0    0    0 -0.00000000000E+00 -0.00000000000E+00 -0.74505805969E-08  0.93827000000E+00  0.93827000000E+00 0. -1.
     999902    2    1    2    0    0  0.87905194868E-02  0.12935595252E-01  0.17615558638E-01  0.10203734560E+01  0.10201015043E+01 0.  0.
     999903    2    3    3    0    0 -0.41998219374E-01  0.10508621290E+00  0.66195200397E-01  0.13277489029E+00  0.20985813395E-01 0.  0.
         14    1    1    2    0    0 -0.87905194868E-02 -0.12935595252E-01 -0.17615558638E-01  0.23556543963E-01  0.00000000000E+00 0. -1.
     999901    1    3    3    0    0  0.50788738861E-01 -0.92150617644E-01 -0.48579641759E-01  0.88759856575E+00  0.88000000000E+00 0. -1.
        -11    1    4    4    0    0 -0.17626035250E-01  0.60518668334E-01  0.46329995825E-01  0.78229891792E-01  0.51100000000E-03 0. -1.
         11    1    4    4    0    0 -0.24372184124E-01  0.44567544561E-01  0.19865204572E-01  0.54544998496E-01  0.51100000000E-03 0.  1.
</event>
<event>
 8    1  0.1150307E+005  0.1043930E+01  0.7957747E-01            NaN
         13   -1    0    0    0    0  0.00000000000E+00  0.00000000000E+00  0.74505805969E-08  0.10566000000E+00  0.10566000000E+00 0.  1.
     999900   -1    0    0    0    0 -0.00000000000E+00 -0.00000000000E+00 -0.74505805969E-08  0.93827000000E+00  0.93827000000E+00 0. -1.
     999902    2    1    2    0    0  0.19534604665E-01 -0.12667642516E-01  0.43867617399E-02  0.10202379417E+01  0.10199628151E+01 0.  0.
     999903    2    3    3    0    0  0.60473261645E-01  0.88326859466E-01  0.72804520982E-01  0.13088039111E+00  0.19249130510E-01 0.  0.
         14    1    1    2    0    0 -0.19534604665E-01  0.12667642516E-01 -0.43867617399E-02  0.23692058266E-01  0.00000000000E+00 0. -1.
     999901    1    3    3    0    0 -0.40938656980E-01 -0.10099450198E+00 -0.68417759242E-01  0.88935755062E+00  0.88000000000E+00 0.  1.
        -11    1    4    4    0    0  0.26267741296E-01  0.27917055148E-01  0.17596591473E-01  0.42181244095E-01  0.51100000000E-03 0. -1.
         11    1    4    4    0    0  0.34205520349E-01  0.60409804318E-01  0.55207929509E-01  0.88699147018E-01  0.51100000000E-03 0.  1.
</event>
<event>
 8    1  0.1150307E+005  0.1043930E+01  0.7957747E-01            NaN
         13   -1    0    0    0    0  0.00000000000E+00  0.00000000000E+00  0.74505805969E-08  0.10566000000E+00  0.10566000000E+00 0.  1.
     999900   -1    0    0    0    0 -0.00000000000E+00 -0.00000000000E+00 -0.74505805969E-08  0.93827000000E+00  0.93827000000E+00 0.  1.
     999902    2    1    2    0    0 -0.21050841226E-01 -0.55376731282E-02  0.89389716467E-02  0.10203989789E+01  0.10201276230E+01 0.  0.
     999903    2    3    3    0    0 -0.23446223864E-02 -0.12989031993E+00 -0.51777237547E-02  0.13134735808E+00  0.18663525532E-01 0.  0.
         14    1    1    2    0    0  0.21050841226E-01  0.55376731282E-02 -0.89389716467E-02  0.23531021102E-01  0.00000000000E+00 0. -1.
     999901    1    3    3    0    0 -0.18706218840E-01  0.12435264680E+00  0.14116695401E-01  0.88905162082E+00  0.88000000000E+00 0.  1.
        -11    1    4    4    0    0  0.49964066506E-02 -0.39903882791E-01  0.48294671517E-02  0.40507638973E-01  0.51100000000E-03 0. -1.
         11    1    4    4    0    0 -0.73410290369E-02 -0.89986437140E-01 -0.10007190906E-01  0.90839719107E-01  0.51100000000E-03 0.  1.
</event>
<event>
 8    1  0.1150307E+005  0.1043930E+01  0.7957747E-01            NaN
         13   -1    0    0    0    0  0.00000000000E+00  0.00000000000E+00  0.74505805969E-08  0.10566000000E+00  0.10566000000E+00 0. -1.
     999900   -1    0    0    0    0 -0.00000000000E+00 -0.00000000000E+00 -0.74505805969E-08  0.93827000000E+00  0.93827000000E+00 0. -1.
     999902    2    1    2    0    0  0.19960552055E-01 -0.83652545507E-02  0.11562020579E-01  0.10193926521E+01  0.10190972955E+01 0.  0.
     999903    2    3    3    0    0  0.18719023970E-01 -0.12610260496E+00  0.25223735367E-01  0.13144543097E+00  0.19733110757E-01 0.  0.
         14    1    1    2    0    0 -0.19960552055E-01  0.83652545507E-02 -0.11562020579E-01  0.24537347898E-01  0.00000000000E+00 0.  1.
     999901    1    3    3    0    0  0.12415280848E-02  0.11773735041E+00 -0.13661714788E-01  0.88794722114E+00  0.88000000000E+00 0. -1.
        -11    1    4    4    0    0  0.60943018490E-02 -0.46787370349E-01 -0.25352897322E-03  0.47186056596E-01  0.51100000000E-03 0. -1.
         11    1    4    4    0    0  0.12624722121E-01 -0.79315234610E-01  0.25477264340E-01  0.84259374369E-01  0.51100000000E-03 0.  1.
</event>
<event>
 8    1  0.1150307E+005  0.1043930E+01  0.7957747E-01            NaN
         13   -1    0    0    0    0  0.00000000000E+00  0.00000000000E+00  0.74505805969E-08  0.10566000000E+00  0.10566000000E+00 0.  1.
     999900   -1    0    0    0    0 -0.00000000000E+00 -0.00000000000E+00 -0.74505805969E-08  0.93827000000E+00  0.93827000000E+00 0. -1.
     999902    2    1    2    0    0 -0.11184261706E-01  0.23913037682E-01 -0.96094784154E-02  0.10158361723E+01  0.10154476184E+01 0.  0.
     999903    2    3    3    0    0 -0.12192684076E+00 -0.30360782195E-01  0.42667925643E-02  0.12712805526E+00  0.18852196770E-01 0.  0.
         14    1    1    2    0    0  0.11184261706E-01 -0.23913037682E-01  0.96094784154E-02  0.28093827729E-01  0.00000000000E+00 0.  1.
     999901    1    3    3    0    0  0.11074257905E+00  0.54273819877E-01 -0.13876270980E-01  0.88870811701E+00  0.88000000000E+00 0. -1.
        -11    1    4    4    0    0 -0.59883802879E-01 -0.19192314082E-01 -0.63199733371E-02  0.63202990048E-01  0.51100000000E-03 0.  1.
         11    1    4    4    0    0 -0.62043037881E-01 -0.11168468113E-01  0.10586765901E-01  0.63925065215E-01  0.51100000000E-03 0. -1.
</event>
<event>
 8    1  0.1150307E+005  0.1043930E+01  0.7957747E-01            NaN
         13   -1    0    0    0    0  0.00000000000E+00  0.00000000000E+00  0.74505805969E-08  0.10566000000E+00  0.10566000000E+00 0. -1.
     999900   -1    0    0    0    0 -0.00000000000E+00 -0.00000000000E+00 -0.74505805969E-08  0.93827000000E+00  0.93827000000E+00 0. -1.
     999902    2    1    2    0    0 -0.73829914135E-02 -0.20533385931E-01  0.10114903228E-01  0.10198792252E+01  0.10195956033E+01 0.  0.
     999903    2    3    3    0    0 -0.51912751056E-01 -0.10034649892E+00  0.67680643107E-01  0.13327511577E+00  0.20426293436E-01 0.  0.
         14    1    1    2    0    0  0.73829914135E-02  0.20533385931E-01 -0.10114903228E-01  0.24050774775E-01  0.00000000000E+00 0. -1.
     999901    1    3    3    0    0  0.44529759643E-01  0.79813112989E-01 -0.57565739879E-01  0.88660410946E+00  0.88000000000E+00 0. -1.
        -11    1    4    4    0    0 -0.45245618784E-01 -0.74136122669E-01  0.44190701514E-01  0.97449525011E-01  0.51100000000E-03 0.  1.
         11    1    4    4    0    0 -0.66671322723E-02 -0.26210376251E-01  0.23489941594E-01  0.35825590756E-01  0.51100000000E-03 0. -1.
</event>
<event>
 8    1  0.1150307E+005  0.1043930E+01  0.7957747E-01            NaN
         13   -1    0    0    0    0  0.00000000000E+00  0.00000000000E+00  0.74505805969E-08  0.10566000000E+00  0.10566000000E+00 0. -1.
     999900   -1    0    0    0    0 -0.00000000000E+00 -0.00000000000E+00 -0.74505805969E-08  0.93827000000E+00  0.93827000000E+00 0.  1.
     999902    2    1    2    0    0  0.32197530913E-02  0.14666032695E-01  0.17467829082E-01  0.10208955828E+01  0.10206356875E+01 0.  0.
     999903    2    3    3    0    0 -0.12577798239E-02 -0.26125082271E-01 -0.12431502092E+00  0.12860283936E+00  0.20009096216E-01 0.  0.
         14    1    1    2    0    0 -0.32197530913E-02 -0.14666032695E-01 -0.17467829082E-01  0.23034417245E-01  0.00000000000E+00 0.  1.
     999901    1    3    3    0    0  0.44775329152E-02  0.40791114966E-01  0.14178285000E+00  0.89229274340E+00  0.88000000000E+00 0. -1.
        -11    1    4    4    0    0  0.33428019581E-02 -0.24647221360E-02 -0.56043927367E-01  0.56199929678E-01  0.51100000000E-03 0. -1.
         11    1    4    4    0    0 -0.46005817820E-02 -0.23660360135E-01 -0.68271093553E-01  0.72402909682E-01  0.51100000000E-03 0.  1.
</event>
<event>
 8    1  0.1150307E+005  0.1043930E+01  0.7957747E-01            NaN
         13   -1    0    0    0    0  0.00000000000E+00  0.00000000000E+00  0.74505805969E-08  0.10566000000E+00  0.10566000000E+00 0. -1.
     999900   -1    0    0    0    0 -0.00000000000E+00 -0.00000000000E+00 -0.74505805969E-08  0.93827000000E+00  0.93827000000E+00 0. -1.
     999902    2    1    2    0    0 -0.22672367493E-01 -0.14894395469E-03  0.71091628348E-02  0.10201687158E+01  0.10198919600E+01 0.  0.
     999903    2    3    3    0    0  0.29094668119E-01 -0.82261055421E-01 -0.92963401625E-01  0.12919355170E+00  0.20866212122E-01 0.  0.
         14    1    1    2    0    0  0.22672367493E-01  0.14894395469E-03 -0.71091628348E-02  0.23761284229E-01  0.00000000000E+00 0.  1.
     999901    1    3    3    0    0 -0.51767035611E-01  0.82112111466E-01  0.10007256446E+00  0.89097516407E+00  0.88000000000E+00 0.  1.
        -11    1    4    4    0    0  0.25049783886E-01 -0.43636810135E-01 -0.45258369695E-01  0.67677500102E-01  0.51100000000E-03 0.  1.
         11    1    4    4    0    0  0.40448842324E-02 -0.38624245286E-01 -0.47705031930E-01  0.61516051602E-01  0.51100000000E-03 0. -1.
</event>
<event>
 8    1  0.1150307E+005  0.1043930E+01  0.7957747E-01            NaN
         13   -1    0    0    0    0  0.00000000000E+00  0.00000000000E+00  0.74505805969E-08  0.10566000000E+00  0.10566000000E+00 0.  1.
     999900   -1    0    0    0    0 -0.00000000000E+00 -0.00000000000E+00 -0.74505805969E-08  0.93827000000E+00  0.93827000000E+00 0. -1.
     999902    2    1    2    0    0  0.36037377532E-02 -0.19407072853E-01  0.13570412388E-01  0.10199763469E+01  0.10196950381E+01 0.  0.
     999903    2    3    3    0    0  0.11780331593E+00  0.45405276072E-01 -0.19195435831E-01  0.12963046750E+00  0.22278532474E-01 0.  0.
         14    1    1    2    0    0 -0.36037377532E-02  0.19407072853E-01 -0.13570412388E-01  0.23953653060E-01  0.00000000000E+00 0. -1.
     999901    1    3    3    0    0 -0.11419957817E+00 -0.64812348925E-01  0.32765848219E-01  0.89034587944E+00  0.88000000000E+00 0.  1.
        -11    1    4    4    0    0  0.52512163292E-01  0.18753139200E-01 -0.19597355112E-01  0.59106048521E-01  0.51100000000E-03 0. -1.
         11    1    4    4    0    0  0.65291152634E-01  0.26652136872E-01  0.40191928112E-03  0.70524418978E-01  0.51100000000E-03 0.  1.
</event>
<event>
 8    1  0.1150307E+005  0.1043930E+01  0.7957747E-01            NaN
         13   -1    0    0    0    0  0.00000000000E+00  0.00000000000E+00  0.74505805969E-08  0.10566000000E+00  0.10566000000E+00 0.  1.
     999900   -1    0    0    0    0 -0.00000000000E+00 -0.00000000000E+00 -0.74505805969E-08  0.93827000000E+00  0.93827000000E+00 0. -1.
     999902    2    1    2    0    0 -0.17866473994E-01  0.63023303928E-02 -0.16351666302E-01  0.10189038686E+01  0.10185964786E+01 0.  0.
     999903    2    3    3    0    0 -0.11716512347E+00  0.57068045104E-01 -0.48417640236E-02  0.13179065294E+00  0.18997515453E-01 0.  0.
         14    1    1    2    0    0  0.17866473994E-01 -0.63023303928E-02  0.16351666302E-01  0.25026131387E-01  0.00000000000E+00 0.  1.
     999901    1    3    3    0    0  0.99298649474E-01 -0.50765714711E-01 -0.11509902278E-01  0.88711321568E+00  0.88000000000E+00 0.  1.
        -11    1    4    4    0    0 -0.47277016813E-01  0.20632088987E-01  0.71066850017E-02  0.52072694451E-01  0.51100000000E-03 0. -1.
         11    1    4    4    0    0 -0.69888106655E-01  0.36435956117E-01 -0.11948449025E-01  0.79717958485E-01  0.51100000000E-03 0.  1.
</event>
<event>
 8    1  0.1150307E+005  0.1043930E+01  0.7957747E-01            NaN
         13   -1    0    0    0    0  0.00000000000E+00  0.00000000000E+00  0.74505805969E-08  0.10566000000E+00  0.10566000000E+00 0.  1.
     999900   -1    0    0    0    0 -0.00000000000E+00 -0.00000000000E+00 -0.74505805969E-08  0.93827000000E+00  0.93827000000E+00 0. -1.
     999902    2    1    2    0    0  0.58026192324E-02 -0.15861462953E-02  0.22981845273E-01  0.10201739174E+01  0.10198972841E+01 0.  0.
     999903    2    3    3    0    0  0.36315968014E-01  0.10421887671E+00  0.69827053215E-01  0.13207468819E+00  0.19684565155E-01 0.  0.
         14    1    1    2    0    0 -0.58026192324E-02  0.15861462953E-02 -0.22981845273E-01  0.23756082635E-01  0.00000000000E+00 0. -1.
     999901    1    3    3    0    0 -0.30513348782E-01 -0.10580502300E+00 -0.46845207942E-01  0.88809922917E+00  0.88000000000E+00 0. -1.
        -11    1    4    4    0    0  0.16365422220E-01  0.30184157122E-01  0.30363087904E-01  0.45837633159E-01  0.51100000000E-03 0. -1.
         11    1    4    4    0    0  0.19950545795E-01  0.74034719588E-01  0.39463965311E-01  0.86237055035E-01  0.51100000000E-03 0.  1.
</event>
<event>
 8    1  0.1150307E+005  0.1043930E+01  0.7957747E-01            NaN
         13   -1    0    0    0    0  0.00000000000E+00  0.00000000000E+00  0.74505805969E-08  0.10566000000E+00  0.10566000000E+00 0. -1.
     999900   -1    0    0    0    0 -0.00000000000E+00 -0.00000000000E+00 -0.74505805969E-08  0.93827000000E+00  0.93827000000E+00 0.  1.
     999902    2    1    2    0    0  0.15564288783E-01  0.85959595191E-02  0.15627632749E-01  0.10202580649E+01  0.10199834109E+01 0.  0.
     999903    2    3    3    0    0 -0.78098521986E-01  0.51417219802E-01 -0.86199089584E-01  0.12842003935E+00  0.17841351801E-01 0.  0.
         14    1    1    2    0    0 -0.15564288783E-01 -0.85959595191E-02 -0.15627632749E-01  0.23671935086E-01  0.00000000000E+00 0.  1.
     999901    1    3    3    0    0  0.93662810769E-01 -0.42821260283E-01  0.10182672233E+00  0.89183802556E+00  0.88000000000E+00 0. -1.
        -11    1    4    4    0    0 -0.10419035780E-01  0.14769721262E-01 -0.13713475218E-01  0.22694085051E-01  0.51100000000E-03 0.  1.
         11    1    4    4    0    0 -0.67679486206E-01  0.36647498540E-01 -0.72485614367E-01  0.10572595430E+00  0.51100000000E-03 0. -1.
</event>
<event>
 8    1  0.1150307E+005  0.1043930E+01  0.7957747E-01            NaN
         13   -1    0    0    0    0  0.00000000000E+00  0.00000000000E+00  0.74505805969E-08  0.10566000000E+00  0.10566000000E+00 0. -1.
     999900   -1    0    0    0    0 -0.00000000000E+00 -0.00000000000E+00 -0.74505805969E-08  0.93827000000E+00  0.93827000000E+00 0.  1.
     999902    2    1    2    0    0  0.29800073392E-02 -0.17991070505E-01 -0.14155226072E-01  0.10208447344E+01  0.10205836773E+01 0.  0.
     999903    2    3    3    0    0 -0.60627016040E-01 -0.96704258819E-01  0.63029021479E-01  0.13168837724E+00  0.18488439770E-01 0.  0.
         14    1    1    2    0    0 -0.29800073392E-02  0.17991070505E-01  0.14155226072E-01  0.23085265578E-01  0.00000000000E+00 0. -1.
     999901    1    3    3    0    0  0.63607023380E-01  0.78713188313E-01 -0.77184247551E-01  0.88915635718E+00  0.88000000000E+00 0.  1.
        -11    1    4    4    0    0 -0.32144108519E-01 -0.67592226073E-01  0.39039237327E-01  0.84417272581E-01  0.51100000000E-03 0. -1.
         11    1    4    4    0    0 -0.28482907521E-01 -0.29112032746E-01  0.23989784153E-01  0.47271104664E-01  0.51100000000E-03 0.  1.
</event>
<event>
 8    1  0.1150307E+005  0.1043930E+01  0.7957747E-01            NaN
         13   -1    0    0    0    0  0.00000000000E+00  0.00000000000E+00  0.74505805969E-08  0.10566000000E+00  0.10566000000E+00 0. -1.
     999900   -1    0    0    0    0 -0.00000000000E+00 -0.00000000000E+00 -0.74505805969E-08  0.93827000000E+00  0.93827000000E+00 0.  1.
     999902    2    1    2    0    0 -0.10052011576E-01  0.11424246595E-01 -0.18463921064E-01  0.10200035977E+01  0.10197229362E+01 0.  0.
     999903    2    3    3    0    0 -0.26630270924E-01  0.56113028672E-01  0.11160625937E+00  0.12916681254E+00  0.19242271565E-01 0.  0.
         14    1    1    2    0    0  0.10052011576E-01 -0.11424246595E-01  0.18463921064E-01  0.23926402321E-01  0.00000000000E+00 0. -1.
     999901    1    3    3    0    0  0.16578259348E-01 -0.44688782078E-01 -0.13007018043E+00  0.89083678514E+00  0.88000000000E+00 0.  1.
        -11    1    4    4    0    0 -0.20279280085E-01  0.20533244225E-01  0.50897930671E-01  0.58512595112E-01  0.51100000000E-03 0. -1.
         11    1    4    4    0    0 -0.63509908396E-02  0.35579784447E-01  0.60708328695E-01  0.70654217425E-01  0.51100000000E-03 0.  1.
</event>
<event>
 7    1  0.1150307E+005  0.1043930E+01  0.7957747E-01            NaN
         13   -1    0    0    0    0  0.00000000000E+00  0.00000000000E+00  0.74505805969E-08  0.10566000000E+00  0.10566000000E+00 0.  1.
     999900   -1    0    0    0    0 -0.00000000000E+00 -0.00000000000E+00 -0.74505805969E-08  0.93827000000E+00  0.93827000000E+00 0.  1.
     999903    2    1    2    0    0  0.34207861538E-01 -0.49275395507E-01  0.97804477136E-01  0.11644611693E+00  0.19893215076E-01 0.  0.
         14    1    1    2    0    0 -0.23854371630E-01 -0.26813182810E-01 -0.19063427912E-01  0.40637324002E-01  0.00000000000E+00 0.  1.
     999901    1    1    2    0    0 -0.10353489909E-01  0.76088578318E-01 -0.78741049224E-01  0.88684655907E+00  0.88000000000E+00 0.  1.
        -11    1    3    3    0    0  0.53383640139E-02 -0.12698248359E-03  0.40441228592E-02  0.67179093173E-02  0.51100000000E-03 0.  1.
         11    1    3    3    0    0  0.28869497525E-01 -0.49148413024E-01  0.93760354277E-01  0.10972820761E+00  0.51100000000E-03 0. -1.
</event>
<event>
 8    1  0.1150307E+005  0.1043930E+01  0.7957747E-01            NaN
         13   -1    0    0    0    0  0.00000000000E+00  0.00000000000E+00  0.74505805969E-08  0.10566000000E+00  0.10566000000E+00 0. -1.
     999900   -1    0    0    0    0 -0.00000000000E+00 -0.00000000000E+00 -0.74505805969E-08  0.93827000000E+00  0.93827000000E+00 0.  1.
     999902    2    1    2    0    0  0.21701866454E-01 -0.76473104515E-02  0.58789050036E-02  0.10201810234E+01  0.10199045576E+01 0.  0.
     999903    2    3    3    0    0 -0.32865432841E-01 -0.70711460576E-01 -0.10180210672E+00  0.12970369217E+00  0.19471299310E-01 0.  0.
         14    1    1    2    0    0 -0.21701866454E-01  0.76473104515E-02 -0.58789050036E-02  0.23748976584E-01  0.00000000000E+00 0.  1.
     999901    1    3    3    0    0  0.54567299296E-01  0.63064150125E-01  0.10768101172E+00  0.89047733125E+00  0.88000000000E+00 0. -1.
        -11    1    4    4    0    0 -0.34412435096E-01 -0.63789182186E-01 -0.86665952158E-01  0.11298019224E+00  0.51100000000E-03 0. -1.
         11    1    4    4    0    0  0.15470022542E-02 -0.69222783908E-02 -0.15136154560E-01  0.16723499932E-01  0.51100000000E-03 0.  1.
</event>
<event>
 8    1  0.1150307E+005  0.1043930E+01  0.7957747E-01            NaN
         13   -1    0    0    0    0  0.00000000000E+00  0.00000000000E+00  0.74505805969E-08  0.10566000000E+00  0.10566000000E+00 0. -1.
     999900   -1    0    0    0    0 -0.00000000000E+00 -0.00000000000E+00 -0.74505805969E-08  0.93827000000E+00  0.93827000000E+00 0. -1.
     999902    2    1    2    0    0 -0.17213931089E-02 -0.23996846374E-01 -0.12673875795E-01  0.10167373731E+01  0.10163736748E+01 0.  0.
     999903    2    3    3    0    0  0.10809866667E+00 -0.48412710977E-01 -0.46839372005E-01  0.12891764978E+00  0.19917864751E-01 0.  0.
         14    1    1    2    0    0  0.17213931089E-02  0.23996846374E-01  0.12673875795E-01  0.27192626902E-01  0.00000000000E+00 0.  1.
     999901    1    3    3    0    0 -0.10982005978E+00  0.24415864603E-01  0.34165496210E-01  0.88781972331E+00  0.88000000000E+00 0. -1.
        -11    1    4    4    0    0  0.12862261257E-01 -0.75970561044E-02  0.59912835832E-03  0.14959047493E-01  0.51100000000E-03 0.  1.
         11    1    4    4    0    0  0.95236405412E-01 -0.40815654873E-01 -0.47438500364E-01  0.11395860229E+00  0.51100000000E-03 0. -1.
</event>
<event>
 8    1  0.1150307E+005  0.1043930E+01  0.7957747E-01            NaN
         13   -1    0    0    0    0  0.00000000000E+00  0.00000000000E+00  0.74505805969E-08  0.10566000000E+00  0.10566000000E+00 0.  1.
     999900   -1    0    0    0    0 -0.00000000000E+00 -0.00000000000E+00 -0.74505805969E-08  0.93827000000E+00  0.93827000000E+00 0.  1.
     999902    2    1    2    0    0  0.18229657254E-01 -0.17092820404E-02  0.14088681353E-01  0.10208273380E+01  0.10205658828E+01 0.  0.
     999903    2    3    3    0    0 -0.13282632708E-01 -0.57185031032E-01  0.11635895602E+00  0.13261013922E+00  0.24484408763E-01 0.  0.
         14    1    1    2    0    0 -0.18229657254E-01  0.17092820404E-02 -0.14088681353E-01  0.23102661988E-01  0.00000000000E+00 0.  1.
     999901    1    3    3    0    0  0.31512289962E-01  0.55475748992E-01 -0.10227027467E+00  0.88821719879E+00  0.88000000000E+00 0.  1.
        -11    1    4    4    0    0 -0.82221275413E-02 -0.34868336904E-01  0.44139759393E-01  0.56850538960E-01  0.51100000000E-03 0. -1.
         11    1    4    4    0    0 -0.50605051669E-02 -0.22316694129E-01  0.72219196628E-01  0.75759600263E-01  0.51100000000E-03 0.  1.
</event>
<event>
 8    1  0.1150307E+005  0.1043930E+01  0.7957747E-01            NaN
         13   -1    0    0    0    0  0.00000000000E+00  0.00000000000E+00  0.74505805969E-08  0.10566000000E+00  0.10566000000E+00 0. -1.
     999900   -1    0    0    0    0 -0.00000000000E+00 -0.00000000000E+00 -0.74505805969E-08  0.93827000000E+00  0.93827000000E+00 0.  1.
     999902    2    1    2    0    0 -0.66714293065E-02 -0.18757868920E-01 -0.11741864559E-01  0.10208164326E+01  0.10205547276E+01 0.  0.
     999903    2    3    3    0    0  0.83599326151E-01 -0.92175971219E-01 -0.41471670241E-01  0.13265941472E+00  0.19833403089E-01 0.  0.
         14    1    1    2    0    0  0.66714293065E-02  0.18757868920E-01  0.11741864559E-01  0.23113567417E-01  0.00000000000E+00 0.  1.
     999901    1    3    3    0    0 -0.90270755457E-01  0.73418102299E-01  0.29729805681E-01  0.88815701786E+00  0.88000000000E+00 0.  1.
        -11    1    4    4    0    0  0.42025763407E-01 -0.42359489670E-01 -0.98575488142E-02  0.60480770040E-01  0.51100000000E-03 0.  1.
         11    1    4    4    0    0  0.41573562744E-01 -0.49816481549E-01 -0.31614121426E-01  0.72178644679E-01  0.51100000000E-03 0. -1.
</event>
<event>
 8    1  0.1150307E+005  0.1043930E+01  0.7957747E-01            NaN
         13   -1    0    0    0    0  0.00000000000E+00  0.00000000000E+00  0.74505805969E-08  0.10566000000E+00  0.10566000000E+00 0.  1.
     999900   -1    0    0    0    0 -0.00000000000E+00 -0.00000000000E+00 -0.74505805969E-08  0.93827000000E+00  0.93827000000E+00 0. -1.
     999902    2    1    2    0    0 -0.16602779821E-01 -0.60207297511E-02  0.14028945851E-01  0.10213753374E+01  0.10211262738E+01 0.  0.
     999903    2    3    3    0    0 -0.32256362984E-01 -0.12645836695E+00 -0.38596030807E-02  0.13285394804E+00  0.24557757397E-01 0.  0.
         14    1    1    2    0    0  0.16602779821E-01  0.60207297511E-02 -0.14028945851E-01  0.22554662627E-01  0.00000000000E+00 0. -1.
     999901    1    3    3    0    0  0.15653583163E-01  0.12043763720E+00  0.17888548932E-01  0.88852138933E+00  0.88000000000E+00 0.  1.
        -11    1    4    4    0    0 -0.71797755146E-02 -0.33681410842E-01  0.97310274297E-02  0.35790230910E-01  0.51100000000E-03 0. -1.
         11    1    4    4    0    0 -0.25076587469E-01 -0.92776956111E-01 -0.13590630510E-01  0.97063717129E-01  0.51100000000E-03 0.  1.
</event>
<event>
 8    1  0.1150307E+005  0.1043930E+01  0.7957747E-01            NaN
         13   -1    0    0    0    0  0.00000000000E+00  0.00000000000E+00  0.74505805969E-08  0.10566000000E+00  0.10566000000E+00 0. -1.
     999900   -1    0    0    0    0 -0.00000000000E+00 -0.00000000000E+00 -0.74505805969E-08  0.93827000000E+00  0.93827000000E+00 0.  1.
     999902    2    1    2    0    0  0.16009891409E-01  0.19605953635E-01  0.20383087807E-02  0.10185358128E+01  0.10182191990E+01 0.  0.
     999903    2    3    3    0    0  0.54435573693E-01 -0.17310369428E-01  0.11481723641E+00  0.12973975380E+00  0.19660248404E-01 0.  0.
         14    1    1    2    0    0 -0.16009891409E-01 -0.19605953635E-01 -0.20383087807E-02  0.25394187200E-01  0.00000000000E+00 0. -1.
     999901    1    3    3    0    0 -0.38425682284E-01  0.36916323063E-01 -0.11277892763E+00  0.88879605899E+00  0.88000000000E+00 0.  1.
        -11    1    4    4    0    0  0.18912481084E-01  0.21540786836E-02  0.47488151593E-01  0.51163538370E-01  0.51100000000E-03 0. -1.
         11    1    4    4    0    0  0.35523092609E-01 -0.19464448112E-01  0.67329084817E-01  0.78576215435E-01  0.51100000000E-03 0.  1.
</event>
<event>
 8    1  0.1150307E+005  0.1043930E+01  0.7957747E-01            NaN
         13   -1    0    0    0    0  0.00000000000E+00  0.00000000000E+00  0.74505805969E-08  0.10566000000E+00  0.10566000000E+00 0.  1.
     999900   -1    0    0    0    0 -0.00000000000E+00 -0.00000000000E+00 -0.74505805969E-08  0.93827000000E+00  0.93827000000E+00 0.  1.
     999902    2    1    2    0    0 -0.42670901472E-02  0.34152662907E-02 -0.23741504007E-01  0.10195675060E+01  0.10192763944E+01 0.  0.
     999903    2    3    3    0    0  0.12091638117E+00 -0.40048522023E-01  0.57016713082E-02  0.12915922718E+00  0.20614110719E-01 0.  0.
         14    1    1    2    0    0  0.42670901472E-02 -0.34152662907E-02  0.23741504007E-01  0.24362494015E-01  0.00000000000E+00 0.  1.
     999901    1    3    3    0    0 -0.12518347131E+00  0.43463788313E-01 -0.29443175315E-01  0.89040827880E+00  0.88000000000E+00 0.  1.
        -11    1    4    4    0    0  0.30486031324E-01 -0.13156733623E-01  0.10104313333E-01  0.34711035917E-01  0.51100000000E-03 0.  1.
         11    1    4    4    0    0  0.90430349841E-01 -0.26891788399E-01 -0.44026420248E-02  0.94448191267E-01  0.51100000000E-03 0. -1.
</event>
<event>
 8    1  0.1150307E+005  0.1043930E+01  0.7957747E-01            NaN
         13   -1    0    0    0    0  0.00000000000E+00  0.00000000000E+00  0.74505805969E-08  0.10566000000E+00  0.10566000000E+00 0. -1.
     999900   -1    0    0    0    0 -0.00000000000E+00 -0.00000000000E+00 -0.74505805969E-08  0.93827000000E+00  0.93827000000E+00 0.  1.
     999902    2    1    2    0    0 -0.84473225161E-02  0.10375930602E-01 -0.19020962275E-01  0.10206745877E+01  0.10204096236E+01 0.  0.
     999903    2    3    3    0    0  0.38262979603E-01 -0.10649267655E+00  0.57261127336E-01  0.12845315734E+00  0.20411544807E-01 0.  0.
         14    1    1    2    0    0  0.84473225161E-02 -0.10375930602E-01  0.19020962275E-01  0.23255412261E-01  0.00000000000E+00 0. -1.
     999901    1    3    3    0    0 -0.46710302120E-01  0.11686860715E+00 -0.76282089611E-01  0.89222143040E+00  0.88000000000E+00 0. -1.
        -11    1    4    4    0    0  0.11007607147E-01 -0.36757405944E-01  0.91344026010E-02  0.39445820295E-01  0.51100000000E-03 0.  1.
         11    1    4    4    0    0  0.27255372456E-01 -0.69735270604E-01  0.48126724735E-01  0.89007337049E-01  0.51100000000E-03 0. -1.
</event>
<event>
 8    1  0.1150307E+005  0.1043930E+01  0.7957747E-01            NaN
         13   -1    0    0    0    0  0.00000000000E+00  0.00000000000E+00  0.74505805969E-08  0.10566000000E+00  0.10566000000E+00 0.  1.
     999900   -1    0    0    0    0 -0.00000000000E+00 -0.00000000000E+00 -0.74505805969E-08  0.93827000000E+00  0.93827000000E+00 0. -1.
     999902    2    1    2    0    0  0.16970761915E-02 -0.81845247227E-02  0.19704264242E-01  0.10225261559E+01  0.10223021153E+01 0.  0.
     999903    2    3    3    0    0 -0.32192637192E-01 -0.61342811366E-02  0.12934173951E+00  0.13507300664E+00  0.21010384264E-01 0.  0.
         14    1    1    2    0    0 -0.16970761915E-02  0.81845247227E-02 -0.19704264242E-01  0.21403844090E-01  0.00000000000E+00 0. -1.
     999901    1    3    3    0    0  0.33889713383E-01 -0.20502435862E-02 -0.10963747527E+00  0.88745314927E+00  0.88000000000E+00 0. -1.
        -11    1    4    4    0    0 -0.69497916534E-02 -0.10928978572E-01  0.51126953410E-01  0.52744370909E-01  0.51100000000E-03 0. -1.
         11    1    4    4    0    0 -0.25242845538E-01  0.47946974357E-02  0.78214786104E-01  0.82328635727E-01  0.51100000000E-03 0.  1.
</event>
<event>
 8    1  0.1150307E+005  0.1043930E+01  0.7957747E-01            NaN
         13   -1    0    0    0    0  0.00000000000E+00  0.00000000000E+00  0.74505805969E-08  0.10566000000E+00  0.10566000000E+00 0. -1.
     999900   -1    0    0    0    0 -0.00000000000E+00 -0.00000000000E+00 -0.74505805969E-08  0.93827000000E+00  0.93827000000E+00 0.  1.
     999902    2    1    2    0    0 -0.12362718615E-01 -0.30251964405E-02  0.20942382500E-01  0.10194234293E+01  0.10191288221E+01 0.  0.
     999903    2    3    3    0    0 -0.24907912977E-01  0.12352877881E+00  0.27223777881E-01  0.13025935751E+00  0.18617271938E-01 0.  0.
         14    1    1    2    0    0  0.12362718615E-01  0.30251964405E-02 -0.20942382500E-01  0.24506570748E-01  0.00000000000E+00 0.  1.
     999901    1    3    3    0    0  0.12545194362E-01 -0.12655397525E+00 -0.62813953817E-02  0.88916407174E+00  0.88000000000E+00 0. -1.
        -11    1    4    4    0    0 -0.20736985060E-01  0.66697567423E-01  0.20982415517E-01  0.72932235202E-01  0.51100000000E-03 0. -1.
         11    1    4    4    0    0 -0.41709279171E-02  0.56831211382E-01  0.62413623640E-02  0.57327122307E-01  0.51100000000E-03 0.  1.
</event>
<event>
 8    1  0.1150307E+005  0.1043930E+01  0.7957747E-01            NaN
         13   -1    0    0    0    0  0.00000000000E+00  0.00000000000E+00  0.74505805969E-08  0.10566000000E+00  0.10566000000E+00 0.  1.
     999900   -1    0    0    0    0 -0.00000000000E+00 -0.00000000000E+00 -0.74505805969E-08  0.93827000000E+00  0.93827000000E+00 0.  1.
     999902    2    1    2    0    0 -0.24436523642E-02  0.71583275986E-02  0.22392856145E-01  0.10202941565E+01  0.10200203492E+01 0.  0.
     999903    2    3    3    0    0  0.11861409130E-01  0.40660495986E-01  0.12505222335E+00  0.13357775555E+00  0.20272869874E-01 0.  0.
         14    1    1    2    0    0  0.24436523642E-02 -0.71583275986E-02 -0.22392856145E-01  0.23635843484E-01  0.00000000000E+00 0. -1.
     999901    1    3    3    0    0 -0.14305061494E-01 -0.33502168387E-01 -0.10265936720E+00  0.88671640097E+00  0.88000000000E+00 0.  1.
        -11    1    4    4    0    0  0.10617893020E-01  0.12643986900E-01  0.27564591417E-01  0.32135305785E-01  0.51100000000E-03 0. -1.
         11    1    4    4    0    0  0.12435161102E-02  0.28016509086E-01  0.97487631930E-01  0.10144244976E+00  0.51100000000E-03 0.  1.
</event>
<event>
 8    1  0.1150307E+005  0.1043930E+01  0.7957747E-01            NaN
         13   -1    0    0    0    0  0.00000000000E+00  0.00000000000E+00  0.74505805969E-08  0.10566000000E+00  0.10566000000E+00 0.  1.
     999900   -1    0    0    0    0 -0.00000000000E+00 -0.00000000000E+00 -0.74505805969E-08  0.93827000000E+00  0.93827000000E+00 0. -1.
     999902    2    1    2    0    0 -0.12933571972E-01  0.13075372613E-01 -0.11799477054E-01  0.10220789059E+01  0.10218453012E+01 0.  0.
     999903    2    3    3    0    0 -0.51482723471E-01  0.10549065608E+00  0.58828332831E-01  0.13358866445E+00  0.24625376937E-01 0.  0.
         14    1    1    2    0    0  0.12933571972E-01 -0.13075372613E-01  0.11799477054E-01  0.21851094062E-01  0.00000000000E+00 0.  1.
     999901    1    3    3    0    0  0.38549151499E-01 -0.92415283462E-01 -0.70627809886E-01  0.88849024149E+00  0.88000000000E+00 0. -1.
        -11    1    4    4    0    0 -0.35996346734E-02  0.12252034524E-01  0.15705143848E-01  0.20248021732E-01  0.51100000000E-03 0.  1.
         11    1    4    4    0    0 -0.47883088798E-01  0.93238621551E-01  0.43123188983E-01  0.11334064271E+00  0.51100000000E-03 0. -1.
</event>
<event>
 7    1  0.1150307E+005  0.1043930E+01  0.7957747E-01            NaN
         13   -1    0    0    0    0  0.00000000000E+00  0.00000000000E+00  0.74505805969E-08  0.10566000000E+00  0.10566000000E+00 0. -1.
     999900   -1    0    0    0    0 -0.00000000000E+00 -0.00000000000E+00 -0.74505805969E-08  0.93827000000E+00  0.93827000000E+00 0.  1.
     999903    2    1    2    0    0  0.80345881451E-01  0.81191295232E-01  0.30107711679E-01  0.11974411032E+00  0.19613530180E-01 0.  0.
         14    1    1    2    0    0 -0.31299616276E-01 -0.13449587870E-01 -0.21298295731E-01  0.40176794222E-01  0.00000000000E+00 0.  1.
     999901    1    1    2    0    0 -0.49046265175E-01 -0.67741707363E-01 -0.88094159479E-02  0.88400909546E+00  0.88000000000E+00 0.  1.
        -11    1    3    3    0    0  0.10551810436E-01  0.20791325004E-01  0.28077506776E-02  0.23489667595E-01  0.51100000000E-03 0.  1.
         11    1    3    3    0    0  0.69794071015E-01  0.60399970229E-01  0.27299961001E-01  0.96254442724E-01  0.51100000000E-03 0. -1.
</event>
<event>
 8    1  0.1150307E+005  0.1043930E+01  0.7957747E-01            NaN
         13   -1    0    0    0    0  0.00000000000E+00  0.00000000000E+00  0.74505805969E-08  0.10566000000E+00  0.10566000000E+00 0. -1.
     999900   -1    0    0    0    0 -0.00000000000E+00 -0.00000000000E+00 -0.74505805969E-08  0.93827000000E+00  0.93827000000E+00 0.  1.
     999902    2    1    2    0    0  0.23105337858E-01 -0.51853381355E-02  0.95785667036E-03  0.10202305937E+01  0.10199552944E+01 0.  0.
     999903    2    3    3    0    0  0.17264288170E-01  0.46582659218E-01 -0.11928788353E+00  0.13052666461E+00  0.18428543926E-01 0.  0.
         14    1    1    2    0    0 -0.23105337858E-01  0.51853381355E-02 -0.95785667036E-03  0.23699406290E-01  0.00000000000E+00 0.  1.
     999901    1    3    3    0    0  0.58410496874E-02 -0.51767997354E-01  0.12024574020E+00  0.88970392910E+00  0.88000000000E+00 0. -1.
        -11    1    4    4    0    0  0.19349225146E-01  0.34935268359E-01 -0.10228063713E+00  0.10980189134E+00  0.51100000000E-03 0.  1.
         11    1    4    4    0    0 -0.20849369755E-02  0.11647390860E-01 -0.17007246408E-01  0.20724773278E-01  0.51100000000E-03 0. -1.
</event>
<event>
 8    1  0.1150307E+005  0.1043930E+01  0.7957747E-01            NaN
         13   -1    0    0    0    0  0.00000000000E+00  0.00000000000E+00  0.74505805969E-08  0.10566000000E+00  0.10566000000E+00 0.  1.
     999900   -1    0    0    0    0 -0.00000000000E+00 -0.00000000000E+00 -0.74505805969E-08  0.93827000000E+00  0.93827000000E+00 0.  1.
     999902    2    1    2    0    0 -0.21276987705E-01  0.90888378997E-02  0.66080106605E-02  0.10198679347E+01  0.10195840433E+01 0.  0.
     999903    2    3    3    0    0  0.33679916772E-01 -0.78130330050E-01  0.95320247509E-01  0.12942012291E+00  0.20613911843E-01 0.  0.
         14    1    1    2    0    0  0.21276987705E-01 -0.90888378997E-02 -0.66080106605E-02  0.24062065270E-01  0.00000000000E+00 0.  1.
     999901    1    3    3    0    0 -0.54956904477E-01  0.87219167949E-01 -0.88712236849E-01  0.89044781182E+00  0.88000000000E+00 0.  1.
        -11    1    4    4    0    0  0.45566221497E-02 -0.17055952770E-01  0.33001275503E-01  0.37430116699E-01  0.51100000000E-03 0. -1.
         11    1    4    4    0    0  0.29123294622E-01 -0.61074377280E-01  0.62318972006E-01  0.91990006211E-01  0.51100000000E-03 0.  1.
</event>
<event>
 8    1  0.1150307E+005  0.1043930E+01  0.7957747E-01            NaN
         13   -1    0    0    0    0  0.00000000000E+00  0.00000000000E+00  0.74505805969E-08  0.10566000000E+00  0.10566000000E+00 0.  1.
     999900   -1    0    0    0    0 -0.00000000000E+00 -0.00000000000E+00 -0.74505805969E-08  0.93827000000E+00  0.93827000000E+00 0. -1.
     999902    2    1    2    0    0 -0.63960544645E-02 -0.20837197973E-01 -0.10178703106E-01  0.10198737258E+01  0.10195899726E+01 0.  0.
     999903    2    3    3    0    0  0.45126857996E-01 -0.79002963093E-01 -0.93460235342E-01  0.13253293424E+00  0.23500246314E-01 0.  0.
         14    1    1    2    0    0  0.63960544645E-02  0.20837197973E-01  0.10178703106E-01  0.24056274213E-01  0.00000000000E+00 0.  1.
     999901    1    3    3    0    0 -0.51522912461E-01  0.58165765120E-01  0.83281532236E-01  0.88734079155E+00  0.88000000000E+00 0.  1.
        -11    1    4    4    0    0  0.30297839939E-01 -0.32140443849E-01 -0.36554316398E-01  0.57336257326E-01  0.51100000000E-03 0. -1.
         11    1    4    4    0    0  0.14829018057E-01 -0.46862519244E-01 -0.56905918943E-01  0.75196676910E-01  0.51100000000E-03 0.  1.
</event>
<event>
 8    1  0.1150307E+005  0.1043930E+01  0.7957747E-01            NaN
         13   -1    0    0    0    0  0.00000000000E+00  0.00000000000E+00  0.74505805969E-08  0.10566000000E+00  0.10566000000E+00 0.  1.
     999900   -1    0    0    0    0 -0.00000000000E+00 -0.00000000000E+00 -0.74505805969E-08  0.93827000000E+00  0.93827000000E+00 0. -1.
     999902    2    1    2    0    0 -0.15229578842E-01  0.38453816589E-02  0.17514209896E-01  0.10204039595E+01  0.10201327198E+01 0.  0.
     999903    2    3    3    0    0  0.36116095577E-01  0.12288526443E+00 -0.13436212259E-01  0.13036755544E+00  0.20248633044E-01 0.  0.
         14    1    1    2    0    0  0.15229578842E-01 -0.38453816589E-02 -0.17514209896E-01  0.23526040468E-01  0.00000000000E+00 0.  1.
     999901    1    3    3    0    0 -0.51345674419E-01 -0.11903988277E+00  0.30950422155E-01  0.89003640409E+00  0.88000000000E+00 0.  1.
        -11    1    4    4    0    0  0.34461362093E-01  0.85315786306E-01 -0.78984899729E-02  0.92352672594E-01  0.51100000000E-03 0. -1.
         11    1    4    4    0    0  0.16547334835E-02  0.37569478119E-01 -0.55377222857E-02  0.38014882851E-01  0.51100000000E-03 0.  1.
</event>
<event>
 8    1  0.1150307E+005  0.1043930E+01  0.7957747E-01            NaN
         13   -1    0    0    0    0  0.00000000000E+00  0.00000000000E+00  0.74505805969E-08  0.10566000000E+00  0.10566000000E+00 0. -1.
     999900   -1    0    0    0    0 -0.00000000000E+00 -0.00000000000E+00 -0.74505805969E-08  0.93827000000E+00  0.93827000000E+00 0.  1.
     999902    2    1    2    0    0  0.10156586538E-01 -0.14512660095E-01  0.16958583534E-01  0.10194072125E+01  0.10191122106E+01 0.  0.
     999903    2    3    3    0    0 -0.85585042970E-01  0.90134526526E-01  0.23174083725E-01  0.12802843454E+00  0.20129814754E-01 0.  0.
         14    1    1    2    0    0 -0.10156586538E-01  0.14512660095E-01 -0.16958583534E-01  0.24522787537E-01  0.00000000000E+00 0.  1.
     999901    1    3    3    0    0  0.95741629508E-01 -0.10464718662E+00 -0.62155001914E-02  0.89137877792E+00  0.88000000000E+00 0.  1.
        -11    1    4    4    0    0 -0.38682937175E-01  0.49838011228E-01  0.37094948211E-02  0.63199829624E-01  0.51100000000E-03 0. -1.
         11    1    4    4    0    0 -0.46902105795E-01  0.40296515297E-01  0.19464588904E-01  0.64828604916E-01  0.51100000000E-03 0.  1.
</event>
<event>
 8    1  0.1150307E+005  0.1043930E+01  0.7957747E-01            NaN
         13   -1    0    0    0    0  0.00000000000E+00  0.00000000000E+00  0.74505805969E-08  0.10566000000E+00  0.10566000000E+00 0.  1.
     999900   -1    0    0    0    0 -0.00000000000E+00 -0.00000000000E+00 -0.74505805969E-08  0.93827000000E+00  0.93827000000E+00 0.  1.
     999902    2    1    2    0    0  0.34173105325E-02  0.54321294157E-02  0.22954540581E-01  0.10200952150E+01  0.10198167241E+01 0.  0.
     999903    2    3    3    0    0  0.96074142598E-01 -0.71465209664E-01 -0.44770824942E-01  0.12931734462E+00  0.19520035451E-01 0.  0.
         14    1    1    2    0    0 -0.34173105325E-02 -0.54321294157E-02 -0.22954540581E-01  0.23834784970E-01  0.00000000000E+00 0. -1.
     999901    1    3    3    0    0 -0.92656832066E-01  0.76897339080E-01  0.67725365523E-01  0.89077787042E+00  0.88000000000E+00 0. -1.
        -11    1    4    4    0    0  0.73678809210E-01 -0.48416495448E-01 -0.25235459218E-01  0.91705035200E-01  0.51100000000E-03 0.  1.
         11    1    4    4    0    0  0.22395333388E-01 -0.23048714216E-01 -0.19535365724E-01  0.37612309415E-01  0.51100000000E-03 0. -1.
</event>
<event>
 8    1  0.1150307E+005  0.1043930E+01  0.7957747E-01            NaN
         13   -1    0    0    0    0  0.00000000000E+00  0.00000000000E+00  0.74505805969E-08  0.10566000000E+00  0.10566000000E+00 0.  1.
     999900   -1    0    0    0    0 -0.00000000000E+00 -0.00000000000E+00 -0.74505805969E-08  0.93827000000E+00  0.93827000000E+00 0.  1.
     999902    2    1    2    0    0  0.27860541792E-01  0.23247655879E-02  0.14282950249E-01  0.10125354624E+01  0.10120486380E+01 0.  0.
     999903    2    3    3    0    0  0.10863485725E+00  0.47450843148E-01  0.41134853402E-01  0.12727737707E+00  0.21315248666E-01 0.  0.
         14    1    1    2    0    0 -0.27860541792E-01 -0.23247655879E-02 -0.14282950249E-01  0.31394537611E-01  0.00000000000E+00 0. -1.
     999901    1    3    3    0    0 -0.80774315455E-01 -0.45126077560E-01 -0.26851903153E-01  0.88525808532E+00  0.88000000000E+00 0. -1.
        -11    1    4    4    0    0  0.33116251314E-01  0.65989034447E-02  0.50722366209E-02  0.34149968274E-01  0.51100000000E-03 0. -1.
         11    1    4    4    0    0  0.75518605933E-01  0.40851939703E-01  0.36062616781E-01  0.93127408800E-01  0.51100000000E-03 0.  1.
</event>
<event>
 8    1  0.1150307E+005  0.1043930E+01  0.7957747E-01            NaN
         13   -1    0    0    0    0  0.00000000000E+00  0.00000000000E+00  0.74505805969E-08  0.10566000000E+00  0.10566000000E+00 0. -1.
     999900   -1    0    0    0    0 -0.00000000000E+00 -0.00000000000E+00 -0.74505805969E-08  0.93827000000E+00  0.93827000000E+00 0. -1.
     999902    2    1    2    0    0  0.22648126347E-01 -0.31934447124E-02 -0.10353778611E-01  0.10188234979E+01  0.10185141057E+01 0.  0.
     999903    2    3    3    0    0 -0.13250425551E-01  0.11760604674E+00 -0.47158758172E-01  0.12908430595E+00  0.20785898175E-01 0.  0.
         14    1    1    2    0    0 -0.22648126347E-01  0.31934447124E-02  0.10353778611E-01  0.25106502100E-01  0.00000000000E+00 0.  1.
     999901    1    3    3    0    0  0.35898551899E-01 -0.12079949146E+00  0.36804979561E-01  0.88973919195E+00  0.88000000000E+00 0.  1.
        -11    1    4    4    0    0 -0.76412756388E-02  0.74020450478E-01 -0.18708595077E-01  0.76731276759E-01  0.51100000000E-03 0.  1.
         11    1    4    4    0    0 -0.56091499123E-02  0.43585596267E-01 -0.28450163095E-01  0.52353029195E-01  0.51100000000E-03 0. -1.
</event>
<event>
 8    1  0.1150307E+005  0.1043930E+01  0.7957747E-01            NaN
         13   -1    0    0    0    0  0.00000000000E+00  0.00000000000E+00  0.74505805969E-08  0.10566000000E+00  0.10566000000E+00 0. -1.
     999900   -1    0    0    0    0 -0.00000000000E+00 -0.00000000000E+00 -0.74505805969E-08  0.93827000000E+00  0.93827000000E+00 0.  1.
     999902    2    1    2    0    0 -0.80231081637E-02 -0.17917572617E-01  0.12547013973E-01  0.10206311324E+01  0.10203651656E+01 0.  0.
     999903    2    3    3    0    0 -0.38371050546E-01  0.10112023423E+00 -0.66684816963E-01  0.12857245712E+00  0.19656363441E-01 0.  0.
         14    1    1    2    0    0  0.80231081637E-02  0.17917572617E-01 -0.12547013973E-01  0.23298867628E-01  0.00000000000E+00 0.  1.
     999901    1    3    3    0    0  0.30347942382E-01 -0.11903780685E+00  0.79231830936E-01  0.89205867526E+00  0.88000000000E+00 0. -1.
        -11    1    4    4    0    0 -0.20056148949E-01  0.30312214531E-01 -0.16831855349E-01  0.40058106994E-01  0.51100000000E-03 0.  1.
         11    1    4    4    0    0 -0.18314901598E-01  0.70808019703E-01 -0.49852961614E-01  0.88514350122E-01  0.51100000000E-03 0. -1.
</event>
<event>
 8    1  0.1150307E+005  0.1043930E+01  0.7957747E-01            NaN
         13   -1    0    0    0    0  0.00000000000E+00  0.00000000000E+00  0.74505805969E-08  0.10566000000E+00  0.10566000000E+00 0. -1.
     999900   -1    0    0    0    0 -0.00000000000E+00 -0.00000000000E+00 -0.74505805969E-08  0.93827000000E+00  0.93827000000E+00 0. -1.
     999902    2    1    2    0    0  0.13037429266E-01  0.19699641789E-01 -0.23580021563E-02  0.10201895151E+01  0.10199132493E+01 0.  0.
     999903    2    3    3    0    0 -0.54736546002E-01 -0.10255694026E+00  0.48579679416E-01  0.12770162669E+00  0.20825579074E-01 0.  0.
         14    1    1    2    0    0 -0.13037429266E-01 -0.19699641789E-01  0.23580021563E-02  0.23740484887E-01  0.00000000000E+00 0. -1.
     999901    1    3    3    0    0  0.67773975269E-01  0.12225658205E+00 -0.50937681572E-01  0.89248788842E+00  0.88000000000E+00 0. -1.
        -11    1    4    4    0    0 -0.18974214848E-01 -0.21463334135E-01  0.18500249464E-01  0.34105950984E-01  0.51100000000E-03 0.  1.
         11    1    4    4    0    0 -0.35762331154E-01 -0.81093606123E-01  0.30079429952E-01  0.93595675706E-01  0.51100000000E-03 0. -1.
</event>
<event>
 8    1  0.1150307E+005  0.1043930E+01  0.7957747E-01            NaN
         13   -1    0    0    0    0  0.00000000000E+00  0.00000000000E+00  0.74505805969E-08  0.10566000000E+00  0.10566000000E+00 0. -1.
     999900   -1    0    0    0    0 -0.00000000000E+00 -0.00000000000E+00 -0.74505805969E-08  0.93827000000E+00  0.93827000000E+00 0. -1.
     999902    2    1    2    0    0 -0.19162695160E-01 -0.11576889749E-01  0.70886407533E-02  0.10204463442E+01  0.10201760923E+01 0.  0.
     999903    2    3    3    0    0  0.12541234201E+00 -0.27818778867E-02  0.10448548350E-01  0.12859961825E+00  0.26319104833E-01 0.  0.
         14    1    1    2    0    0  0.19162695160E-01  0.11576889749E-01 -0.70886407533E-02  0.23483655801E-01  0.00000000000E+00 0.  1.
     999901    1    3    3    0    0 -0.14457503717E+00 -0.87950118619E-02 -0.33599075967E-02  0.89184672595E+00  0.88000000000E+00 0. -1.
        -11    1    4    4    0    0  0.79894127591E-01 -0.10468318905E-01  0.15838726768E-01  0.82120543781E-01  0.51100000000E-03 0. -1.
         11    1    4    4    0    0  0.45518214417E-01  0.76864410179E-02 -0.53901784184E-02  0.46479074470E-01  0.51100000000E-03 0.  1.
</event>
<event>
 8    1  0.1150307E+005  0.1043930E+01  0.7957747E-01            NaN
         13   -1    0    0    0    0  0.00000000000E+00  0.00000000000E+00  0.74505805969E-08  0.10566000000E+00  0.10566000000E+00 0. -1.
     999900   -1    0    0    0    0 -0.00000000000E+00 -0.00000000000E+00 -0.74505805969E-08  0.93827000000E+00  0.93827000000E+00 0. -1.
     999902    2    1    2    0    0 -0.18967241409E-01 -0.12503278702E-01 -0.17902420493E-01  0.10150062229E+01  0.10145940309E+01 0.  0.
     999903    2    3    3    0    0  0.70541396186E-01 -0.34100047923E-01  0.93018437981E-01  0.12327663745E+00  0.20144420848E-01 0.  0.
         14    1    1    2    0    0  0.18967241409E-01  0.12503278702E-01  0.17902420493E-01  0.28923777147E-01  0.00000000000E+00 0.  1.
     999901    1    3    3    0    0 -0.89508637595E-01  0.21596769221E-01 -0.11092085847E+00  0.89172958541E+00  0.88000000000E+00 0. -1.
        -11    1    4    4    0    0  0.23673839682E-01 -0.21561384895E-01  0.42721453300E-01  0.53392206331E-01  0.51100000000E-03 0.  1.
         11    1    4    4    0    0  0.46867556504E-01 -0.12538663028E-01  0.50296984681E-01  0.69884431115E-01  0.51100000000E-03 0. -1.
</event>
<event>
 7    1  0.1150307E+005  0.1043930E+01  0.7957747E-01            NaN
         13   -1    0    0    0    0  0.00000000000E+00  0.00000000000E+00  0.74505805969E-08  0.10566000000E+00  0.10566000000E+00 0.  1.
     999900   -1    0    0    0    0 -0.00000000000E+00 -0.00000000000E+00 -0.74505805969E-08  0.93827000000E+00  0.93827000000E+00 0.  1.
     999903    2    1    2    0    0  0.67449556935E-01 -0.31521453650E-01 -0.59569718905E-01  0.97339913793E-01  0.19582202020E-01 0.  0.
         14    1    1    2    0    0  0.31309915824E-01 -0.25122160159E-01  0.43386205765E-01  0.59108346370E-01  0.00000000000E+00 0. -1.
     999901    1    1    2    0    0 -0.98759472759E-01  0.56643613809E-01  0.16183513140E-01  0.88748173984E+00  0.88000000000E+00 0.  1.
        -11    1    3    3    0    0  0.54460748599E-01 -0.21264016028E-01 -0.36436961281E-01  0.68891543632E-01  0.51100000000E-03 0. -1.
         11    1    3    3    0    0  0.12988808336E-01 -0.10257437622E-01 -0.23132757624E-01  0.28448370161E-01  0.51100000000E-03 0.  1.
</event>
<event>
 8    1  0.1150307E+005  0.1043930E+01  0.7957747E-01            NaN
         13   -1    0    0    0    0  0.00000000000E+00  0.00000000000E+00  0.74505805969E-08  0.10566000000E+00  0.10566000000E+00 0.  1.
     999900   -1    0    0    0    0 -0.00000000000E+00 -0.00000000000E+00 -0.74505805969E-08  0.93827000000E+00  0.93827000000E+00 0. -1.
     999902    2    1    2    0    0  0.78962123989E-02 -0.19433883330E-01  0.10707402731E-01  0.10203784721E+01  0.10201066375E+01 0.  0.
     999903    2    3    3    0    0  0.12358684552E+00 -0.17721181694E-01 -0.36313796842E-01  0.13156001534E+00  0.20039888450E-01 0.  0.
         14    1    1    2    0    0 -0.78962123989E-02  0.19433883330E-01 -0.10707402731E-01  0.23551527865E-01  0.00000000000E+00 0. -1.
     999901    1    3    3    0    0 -0.11569063312E+00 -0.17127016355E-02  0.47021199573E-01  0.88881845680E+00  0.88000000000E+00 0.  1.
        -11    1    4    4    0    0  0.10026527002E+00 -0.21842302936E-01 -0.27038649423E-01  0.10612049874E+00  0.51100000000E-03 0. -1.
         11    1    4    4    0    0  0.23321575494E-01  0.41211212418E-02 -0.92751474186E-02  0.25439516592E-01  0.51100000000E-03 0.  1.
</event>
<event>
 8    1  0.1151958E+005  0.1043930E+01  0.7957747E-01            NaN
         13   -1    0    0    0    0  0.00000000000E+00  0.00000000000E+00  0.74505805969E-08  0.10566000000E+00  0.10566000000E+00 0.  1.
     999900   -1    0    0    0    0 -0.00000000000E+00 -0.00000000000E+00 -0.74505805969E-08  0.93827000000E+00  0.93827000000E+00 0.  1.
     999902    2    1    2    0    0 -0.41362399011E-02 -0.22209016119E-01  0.10392599524E-01  0.10190632551E+01  0.10187598161E+01 0.  0.
     999903    2    3    3    0    0 -0.99379032841E-01  0.90624317324E-02  0.81239306808E-01  0.13054294075E+00  0.21984416588E-01 0.  0.
         14    1    1    2    0    0  0.41362399011E-02  0.22209016119E-01 -0.10392599524E-01  0.24866744908E-01  0.00000000000E+00 0. -1.
     999901    1    3    3    0    0  0.95242792940E-01 -0.31271447851E-01 -0.70846707284E-01  0.88852031434E+00  0.88000000000E+00 0.  1.
        -11    1    4    4    0    0 -0.55763299599E-01  0.89588888351E-02  0.58641225372E-01  0.81417821793E-01  0.51100000000E-03 0. -1.
         11    1    4    4    0    0 -0.43615733242E-01  0.10354289734E-03  0.22598081436E-01  0.49125118961E-01  0.51100000000E-03 0.  1.
</event>
<event>
 8    1  0.1150307E+005  0.1043930E+01  0.7957747E-01            NaN
         13   -1    0    0    0    0  0.00000000000E+00  0.00000000000E+00  0.74505805969E-08  0.10566000000E+00  0.10566000000E+00 0.  1.
     999900   -1    0    0    0    0 -0.00000000000E+00 -0.00000000000E+00 -0.74505805969E-08  0.93827000000E+00  0.93827000000E+00 0. -1.
     999902    2    1    2    0    0 -0.14983300108E-01  0.18346115897E-01 -0.28247039541E-02  0.10200750591E+01  0.10197960914E+01 0.  0.
     999903    2    3    3    0    0  0.35722028232E-01  0.11486536103E+00  0.50006869600E-01  0.13177433858E+00  0.19841240758E-01 0.  0.
         14    1    1    2    0    0  0.14983300108E-01 -0.18346115897E-01  0.28247039541E-02  0.23854940853E-01  0.00000000000E+00 0. -1.
     999901    1    3    3    0    0 -0.50705328340E-01 -0.96519245131E-01 -0.52831573554E-01  0.88830072057E+00  0.88000000000E+00 0. -1.
        -11    1    4    4    0    0  0.31914152687E-01  0.72971691960E-01  0.36292238299E-01  0.87525817054E-01  0.51100000000E-03 0.  1.
         11    1    4    4    0    0  0.38078755451E-02  0.41893669069E-01  0.13714631301E-01  0.44248521522E-01  0.51100000000E-03 0. -1.
</event>
<event>
 8    1  0.1150307E+005  0.1043930E+01  0.7957747E-01            NaN
         13   -1    0    0    0    0  0.00000000000E+00  0.00000000000E+00  0.74505805969E-08  0.10566000000E+00  0.10566000000E+00 0.  1.
     999900   -1    0    0    0    0 -0.00000000000E+00 -0.00000000000E+00 -0.74505805969E-08  0.93827000000E+00  0.93827000000E+00 0. -1.
     999902    2    1    2    0    0 -0.17592525131E-01  0.15945343432E-01 -0.28819892076E-02  0.10200122915E+01  0.10197318363E+01 0.  0.
     999903    2    3    3    0    0 -0.10697790692E+00 -0.72007433902E-01  0.13543328907E-01  0.13097054412E+00  0.18453145073E-01 0.  0.
         14    1    1    2    0    0  0.17592525131E-01 -0.15945343432E-01  0.28819892076E-02  0.23917708490E-01  0.00000000000E+00 0.  1.
     999901    1    3    3    0    0  0.89385381794E-01  0.87952777334E-01 -0.16425318114E-01  0.88904174739E+00  0.88000000000E+00 0. -1.
        -11    1    4    4    0    0 -0.81557639470E-01 -0.59923129528E-01  0.16944249953E-01  0.10261480758E+00  0.51100000000E-03 0. -1.
         11    1    4    4    0    0 -0.25420267455E-01 -0.12084304375E-01 -0.34009210460E-02  0.28355736539E-01  0.51100000000E-03 0.  1.
</event>
<event>
 8    1  0.1150307E+005  0.1043930E+01  0.7957747E-01            NaN
         13   -1    0    0    0    0  0.00000000000E+00  0.00000000000E+00  0.74505805969E-08  0.10566000000E+00  0.10566000000E+00 0.  1.
     999900   -1    0    0    0    0 -0.00000000000E+00 -0.00000000000E+00 -0.74505805969E-08  0.93827000000E+00  0.93827000000E+00 0.  1.
     999902    2    1    2    0    0 -0.20888135037E-01  0.49146137230E-02 -0.86364080626E-02  0.10207987407E+01  0.10205366303E+01 0.  0.
     999903    2    3    3    0    0 -0.35587328951E-01  0.10320164303E+00 -0.73052430310E-01  0.13286528014E+00  0.19987195542E-01 0.  0.
         14    1    1    2    0    0  0.20888135037E-01 -0.49146137230E-02  0.86364080626E-02  0.23131259317E-01  0.00000000000E+00 0. -1.
     999901    1    3    3    0    0  0.14699193914E-01 -0.98287029309E-01  0.64416022248E-01  0.88793346054E+00  0.88000000000E+00 0. -1.
        -11    1    4    4    0    0 -0.11976999568E-01  0.22718087767E-01 -0.86109870130E-02  0.27091885294E-01  0.51100000000E-03 0.  1.
         11    1    4    4    0    0 -0.23610329383E-01  0.80483555265E-01 -0.64441443297E-01  0.10577339484E+00  0.51100000000E-03 0. -1.
</event>
<event>
 8    1  0.1150307E+005  0.1043930E+01  0.7957747E-01            NaN
         13   -1    0    0    0    0  0.00000000000E+00  0.00000000000E+00  0.74505805969E-08  0.10566000000E+00  0.10566000000E+00 0.  1.
     999900   -1    0    0    0    0 -0.00000000000E+00 -0.00000000000E+00 -0.74505805969E-08  0.93827000000E+00  0.93827000000E+00 0.  1.
     999902    2    1    2    0    0 -0.15473299581E-01  0.22455145091E-01 -0.10200589764E-01  0.10148145647E+01  0.10143968120E+01 0.  0.
     999903    2    3    3    0    0 -0.40725991113E-01 -0.10753963644E+00  0.39947389896E-01  0.12349466617E+00  0.20778807818E-01 0.  0.
         14    1    1    2    0    0  0.15473299581E-01 -0.22455145091E-01  0.10200589764E-01  0.29115435297E-01  0.00000000000E+00 0.  1.
     999901    1    3    3    0    0  0.25252691533E-01  0.12999478154E+00 -0.50147979660E-01  0.89131989853E+00  0.88000000000E+00 0.  1.
        -11    1    4    4    0    0 -0.20240472558E-01 -0.79005362561E-01  0.30923392607E-01  0.87224087121E-01  0.51100000000E-03 0.  1.
         11    1    4    4    0    0 -0.20485518555E-01 -0.28534273884E-01  0.90239972887E-02  0.36270579050E-01  0.51100000000E-03 0. -1.
</event>
<event>
 8    1  0.1150307E+005  0.1043930E+01  0.7957747E-01            NaN
         13   -1    0    0    0    0  0.00000000000E+00  0.00000000000E+00  0.74505805969E-08  0.10566000000E+00  0.10566000000E+00 0. -1.
     999900   -1    0    0    0    0 -0.00000000000E+00 -0.00000000000E+00 -0.74505805969E-08  0.93827000000E+00  0.93827000000E+00 0. -1.
     999902    2    1    2    0    0 -0.83136274870E-02 -0.78369541231E-02  0.22042048382E-01  0.10191028747E+01  0.10188004138E+01 0.  0.
     999903    2    3    3    0    0  0.97155576467E-01  0.66159532047E-01  0.48915016331E-01  0.12931560277E+00  0.22661786734E-01 0.  0.
         14    1    1    2    0    0  0.83136274870E-02  0.78369541231E-02 -0.22042048382E-01  0.24827125262E-01  0.00000000000E+00 0. -1.
     999901    1    3    3    0    0 -0.10546920395E+00 -0.73996486170E-01 -0.26872967949E-01  0.88978727197E+00  0.88000000000E+00 0. -1.
        -11    1    4    4    0    0  0.53139908751E-01  0.28647498597E-01  0.14764589822E-01  0.62151293724E-01  0.51100000000E-03 0. -1.
         11    1    4    4    0    0  0.44015667716E-01  0.37512033449E-01  0.34150426509E-01  0.67164309047E-01  0.51100000000E-03 0.  1.
</event>
<event>
 8    1  0.1150307E+005  0.1043930E+01  0.7957747E-01            NaN
         13   -1    0    0    0    0  0.00000000000E+00  0.00000000000E+00  0.74505805969E-08  0.10566000000E+00  0.10566000000E+00 0. -1.
     999900   -1    0    0    0    0 -0.00000000000E+00 -0.00000000000E+00 -0.74505805969E-08  0.93827000000E+00  0.93827000000E+00 0.  1.
     999902    2    1    2    0    0 -0.24533069002E-03  0.88680988899E-02  0.21885049901E-01  0.10203152001E+01  0.10200418858E+01 0.  0.
     999903    2    3    3    0    0  0.59851937401E-01 -0.26726379332E-01 -0.10813722439E+00  0.12802352115E+00  0.19995222102E-01 0.  0.
         14    1    1    2    0    0  0.24533069002E-03 -0.88680988899E-02 -0.21885049901E-01  0.23614799898E-01  0.00000000000E+00 0.  1.
     999901    1    3    3    0    0 -0.60097268091E-01  0.35594478222E-01  0.13002227429E+00  0.89229167895E+00  0.88000000000E+00 0.  1.
        -11    1    4    4    0    0  0.28649822730E-01 -0.22194863775E-01 -0.48312740085E-01  0.60397071915E-01  0.51100000000E-03 0.  1.
         11    1    4    4    0    0  0.31202114671E-01 -0.45315155572E-02 -0.59824484304E-01  0.67626449237E-01  0.51100000000E-03 0. -1.
</event>
<event>
 8    1  0.1150307E+005  0.1043930E+01  0.7957747E-01            NaN
         13   -1    0    0    0    0  0.00000000000E+00  0.00000000000E+00  0.74505805969E-08  0.10566000000E+00  0.10566000000E+00 0. -1.
     999900   -1    0    0    0    0 -0.00000000000E+00 -0.00000000000E+00 -0.74505805969E-08  0.93827000000E+00  0.93827000000E+00 0.  1.
     999902    2    1    2    0    0 -0.10242500135E-01 -0.16952948510E-01 -0.94850953953E-02  0.10219691642E+01  0.10217331816E+01 0.  0.
     999903    2    3    3    0    0 -0.55519897772E-01  0.63839044487E-01 -0.99991089050E-01  0.13249250702E+00  0.19954044134E-01 0.  0.
         14    1    1    2    0    0  0.10242500135E-01  0.16952948510E-01  0.94850953953E-02  0.21960835750E-01  0.00000000000E+00 0.  1.
     999901    1    3    3    0    0  0.45277397637E-01 -0.80791992997E-01  0.90505993655E-01  0.88947665723E+00  0.88000000000E+00 0. -1.
        -11    1    4    4    0    0 -0.35779045540E-01  0.37365652531E-01 -0.46147921887E-01  0.69326934912E-01  0.51100000000E-03 0.  1.
         11    1    4    4    0    0 -0.19740852232E-01  0.26473391955E-01 -0.53843167164E-01  0.63165572108E-01  0.51100000000E-03 0. -1.
</event>
<event>
 8    1  0.1150307E+005  0.1043930E+01  0.7957747E-01            NaN
         13   -1    0    0    0    0  0.00000000000E+00  0.00000000000E+00  0.74505805969E-08  0.10566000000E+00  0.10566000000E+00 0.  1.
     999900   -1    0    0    0    0 -0.00000000000E+00 -0.00000000000E+00 -0.74505805969E-08  0.93827000000E+00  0.93827000000E+00 0.  1.
     999902    2    1    2    0    0 -0.47925559793E-03 -0.22548526626E-01  0.76682168075E-02  0.10201084281E+01  0.10198302495E+01 0.  0.
     999903    2    3    3    0    0 -0.77036561108E-01 -0.55978605089E-01 -0.87787997715E-01  0.13101311259E+00  0.19734922128E-01 0.  0.
         14    1    1    2    0    0  0.47925559793E-03  0.22548526626E-01 -0.76682168075E-02  0.23821571904E-01  0.00000000000E+00 0. -1.
     999901    1    3    3    0    0  0.76557305510E-01  0.33430078462E-01  0.95456214523E-01  0.88909531551E+00  0.88000000000E+00 0. -1.
        -11    1    4    4    0    0 -0.23480714505E-01 -0.12611611761E-01 -0.36064266273E-01  0.44847398226E-01  0.51100000000E-03 0. -1.
         11    1    4    4    0    0 -0.53555846604E-01 -0.43366993327E-01 -0.51723731442E-01  0.86165714359E-01  0.51100000000E-03 0.  1.
</event>
<event>
 8    1  0.1150307E+005  0.1043930E+01  0.7957747E-01            NaN
         13   -1    0    0    0    0  0.00000000000E+00  0.00000000000E+00  0.74505805969E-08  0.10566000000E+00  0.10566000000E+00 0. -1.
     999900   -1    0    0    0    0 -0.00000000000E+00 -0.00000000000E+00 -0.74505805969E-08  0.93827000000E+00  0.93827000000E+00 0. -1.
     999902    2    1    2    0    0 -0.40866837649E-02 -0.15655574311E-01 -0.17236655669E-01  0.10202889279E+01  0.10200149980E+01 0.  0.
     999903    2    3    3    0    0 -0.30285871059E-01 -0.41563226165E-01  0.11710610287E+00  0.12933125180E+00  0.19183263695E-01 0.  0.
         14    1    1    2    0    0  0.40866837649E-02  0.15655574311E-01  0.17236655669E-01  0.23641072097E-01  0.00000000000E+00 0. -1.
     999901    1    3    3    0    0  0.26199187294E-01  0.25907651853E-01 -0.13434275854E+00  0.89095767611E+00  0.88000000000E+00 0. -1.
        -11    1    4    4    0    0 -0.47523269810E-02 -0.18462677139E-01  0.56411339552E-01  0.59547925320E-01  0.51100000000E-03 0. -1.
         11    1    4    4    0    0 -0.25533544078E-01 -0.23100549026E-01  0.60694763323E-01  0.69783326477E-01  0.51100000000E-03 0.  1.
</event>
<event>
 8    1  0.1150307E+005  0.1043930E+01  0.7957747E-01            NaN
         13   -1    0    0    0    0  0.00000000000E+00  0.00000000000E+00  0.74505805969E-08  0.10566000000E+00  0.10566000000E+00 0.  1.
     999900   -1    0    0    0    0 -0.00000000000E+00 -0.00000000000E+00 -0.74505805969E-08  0.93827000000E+00  0.93827000000E+00 0.  1.
     999902    2    1    2    0    0  0.20333482151E-01  0.10252059786E-01  0.70023486569E-02  0.10201058922E+01  0.10198276537E+01 0.  0.
     999903    2    3    3    0    0  0.99921045682E-01 -0.20622362475E-01  0.82683810783E-01  0.13274176517E+00  0.19345967268E-01 0.  0.
         14    1    1    2    0    0 -0.20333482151E-01 -0.10252059786E-01 -0.70023486569E-02  0.23824107811E-01  0.00000000000E+00 0. -1.
     999901    1    3    3    0    0 -0.79587563531E-01  0.30874422261E-01 -0.75681462126E-01  0.88736412702E+00  0.88000000000E+00 0.  1.
        -11    1    4    4    0    0  0.47261623120E-01 -0.16482618822E-01  0.31227979846E-01  0.58998182933E-01  0.51100000000E-03 0. -1.
         11    1    4    4    0    0  0.52659422562E-01 -0.41397436525E-02  0.51455830937E-01  0.73743582233E-01  0.51100000000E-03 0.  1.
</event>
<event>
 8    1  0.1150307E+005  0.1043930E+01  0.7957747E-01            NaN
         13   -1    0    0    0    0  0.00000000000E+00  0.00000000000E+00  0.74505805969E-08  0.10566000000E+00  0.10566000000E+00 0.  1.
     999900   -1    0    0    0    0 -0.00000000000E+00 -0.00000000000E+00 -0.74505805969E-08  0.93827000000E+00  0.93827000000E+00 0.  1.
     999902    2    1    2    0    0  0.62460557091E-03  0.23516182081E-01  0.22390213035E-02  0.10202992114E+01  0.10200255226E+01 0.  0.
     999903    2    3    3    0    0  0.57442165234E-02 -0.85663439289E-01  0.93714917827E-01  0.12883174720E+00  0.21069228985E-01 0.  0.
         14    1    1    2    0    0 -0.62460557091E-03 -0.23516182081E-01 -0.22390213035E-02  0.23630788564E-01  0.00000000000E+00 0.  1.
     999901    1    3    3    0    0 -0.51196109525E-02  0.10917962137E+00 -0.91475896524E-01  0.89146746423E+00  0.88000000000E+00 0. -1.
        -11    1    4    4    0    0  0.33095721836E-02 -0.69762765662E-01  0.86547289797E-01  0.11121371873E+00  0.51100000000E-03 0.  1.
         11    1    4    4    0    0  0.24346443397E-02 -0.15900673626E-01  0.71676280303E-02  0.17618028477E-01  0.51100000000E-03 0. -1.
</event>
<event>
 8    1  0.1150307E+005  0.1043930E+01  0.7957747E-01            NaN
         13   -1    0    0    0    0  0.00000000000E+00  0.00000000000E+00  0.74505805969E-08  0.10566000000E+00  0.10566000000E+00 0.  1.
     999900   -1    0    0    0    0 -0.00000000000E+00 -0.00000000000E+00 -0.74505805969E-08  0.93827000000E+00  0.93827000000E+00 0. -1.
     999902    2    1    2    0    0  0.14973936707E-01 -0.67299860353E-02 -0.16701619548E-01  0.10205108713E+01  0.10202421197E+01 0.  0.
     999903    2    3    3    0    0 -0.63793694571E-02  0.76169715200E-01 -0.10576533578E+00  0.13188233830E+00  0.19082008129E-01 0.  0.
         14    1    1    2    0    0 -0.14973936707E-01  0.67299860353E-02  0.16701619548E-01  0.23419128678E-01  0.00000000000E+00 0.  1.
     999901    1    3    3    0    0  0.21353306164E-01 -0.82899701236E-01  0.89063716235E-01  0.88862853302E+00  0.88000000000E+00 0.  1.
        -11    1    4    4    0    0 -0.11132145399E-01  0.47465651766E-01 -0.75687153872E-01  0.90031767398E-01  0.51100000000E-03 0.  1.
         11    1    4    4    0    0  0.47527759417E-02  0.28704063435E-01 -0.30078181911E-01  0.41850570903E-01  0.51100000000E-03 0. -1.
</event>
<event>
 8    1  0.1150307E+005  0.1043930E+01  0.7957747E-01            NaN
         13   -1    0    0    0    0  0.00000000000E+00  0.00000000000E+00  0.74505805969E-08  0.10566000000E+00  0.10566000000E+00 0. -1.
     999900   -1    0    0    0    0 -0.00000000000E+00 -0.00000000000E+00 -0.74505805969E-08  0.93827000000E+00  0.93827000000E+00 0.  1.
     999902    2    1    2    0    0  0.20912116557E-01  0.92393045449E-02  0.12248617080E-02  0.10210349863E+01  0.10207782627E+01 0.  0.
     999903    2    3    3    0    0 -0.45676493107E-01  0.22506846443E-01  0.11850658522E+00  0.13066142800E+00  0.20873376960E-01 0.  0.
         14    1    1    2    0    0 -0.20912116557E-01 -0.92393045449E-02 -0.12248617080E-02  0.22895013727E-01  0.00000000000E+00 0. -1.
     999901    1    3    3    0    0  0.66588609664E-01 -0.13267541898E-01 -0.11728172352E+00  0.89037355828E+00  0.88000000000E+00 0.  1.
        -11    1    4    4    0    0 -0.42944419589E-02  0.51059384242E-02  0.37076663171E-01  0.37675627557E-01  0.51100000000E-03 0. -1.
         11    1    4    4    0    0 -0.41382051149E-01  0.17400908019E-01  0.81429922053E-01  0.92985800441E-01  0.51100000000E-03 0.  1.
</event>
<event>
 8    1  0.1150307E+005  0.1043930E+01  0.7957747E-01            NaN
         13   -1    0    0    0    0  0.00000000000E+00  0.00000000000E+00  0.74505805969E-08  0.10566000000E+00  0.10566000000E+00 0. -1.
     999900   -1    0    0    0    0 -0.00000000000E+00 -0.00000000000E+00 -0.74505805969E-08  0.93827000000E+00  0.93827000000E+00 0. -1.
     999902    2    1    2    0    0 -0.14442133479E-01  0.15887477120E-01  0.97659248552E-02  0.10203427060E+01  0.10200700355E+01 0.  0.
     999903    2    3    3    0    0 -0.94680771415E-02 -0.52689211404E-01 -0.11549965162E+00  0.12881650445E+00  0.19690729110E-01 0.  0.
         14    1    1    2    0    0  0.14442133479E-01 -0.15887477120E-01 -0.97659248552E-02  0.23587293972E-01  0.00000000000E+00 0.  1.
     999901    1    3    3    0    0 -0.49740563378E-02  0.68576688523E-01  0.12526557647E+00  0.89152620157E+00  0.88000000000E+00 0.  1.
        -11    1    4    4    0    0 -0.73345230403E-02 -0.13712040728E-01 -0.51986348542E-01  0.54264692434E-01  0.51100000000E-03 0.  1.
         11    1    4    4    0    0 -0.21335541013E-02 -0.38977170676E-01 -0.63513303074E-01  0.74551812019E-01  0.51100000000E-03 0. -1.
</event>
<event>
 8    1  0.1150307E+005  0.1043930E+01  0.7957747E-01            NaN
         13   -1    0    0    0    0  0.00000000000E+00  0.00000000000E+00  0.74505805969E-08  0.10566000000E+00  0.10566000000E+00 0.  1.
     999900   -1    0    0    0    0 -0.00000000000E+00 -0.00000000000E+00 -0.74505805969E-08  0.93827000000E+00  0.93827000000E+00 0.  1.
     999902    2    1    2    0    0  0.22138460459E-01  0.28536884231E-02  0.79418575177E-02  0.10202376369E+01  0.10199625031E+01 0.  0.
     999903    2    3    3    0    0 -0.20327322569E-01 -0.12047248883E+00 -0.38287302365E-01  0.12942350142E+00  0.18913079854E-01 0.  0.
         14    1    1    2    0    0 -0.22138460459E-01 -0.28536884231E-02 -0.79418575177E-02  0.23692363114E-01  0.00000000000E+00 0.  1.
     999901    1    3    3    0    0  0.42465783028E-01  0.12332617725E+00  0.46229159882E-01  0.89081413547E+00  0.88000000000E+00 0. -1.
        -11    1    4    4    0    0 -0.11283617289E-01 -0.26991571718E-01 -0.44548543063E-02  0.29596820958E-01  0.51100000000E-03 0.  1.
         11    1    4    4    0    0 -0.90437052802E-02 -0.93480917112E-01 -0.33832448058E-01  0.99826680461E-01  0.51100000000E-03 0. -1.
</event>
<event>
 8    1  0.1150307E+005  0.1043930E+01  0.7957747E-01            NaN
         13   -1    0    0    0    0  0.00000000000E+00  0.00000000000E+00  0.74505805969E-08  0.10566000000E+00  0.10566000000E+00 0. -1.
     999900   -1    0    0    0    0 -0.00000000000E+00 -0.00000000000E+00 -0.74505805969E-08  0.93827000000E+00  0.93827000000E+00 0. -1.
     999902    2    1    2    0    0  0.62108602571E-02 -0.83744358424E-02  0.22542998589E-01  0.10190926743E+01  0.10187899617E+01 0.  0.
     999903    2    3    3    0    0  0.67654923252E-01 -0.43079052142E-01 -0.97326680949E-01  0.12816701900E+00  0.22832182548E-01 0.  0.
         14    1    1    2    0    0 -0.62108602571E-02  0.83744358424E-02 -0.22542998589E-01  0.24837325665E-01  0.00000000000E+00 0.  1.
     999901    1    3    3    0    0 -0.61444062995E-01  0.34704616300E-01  0.11986967954E+00  0.89092565534E+00  0.88000000000E+00 0.  1.
        -11    1    4    4    0    0  0.48468705058E-01 -0.22447202365E-01 -0.50462712314E-01  0.73483594898E-01  0.51100000000E-03 0. -1.
         11    1    4    4    0    0  0.19186218194E-01 -0.20631849777E-01 -0.46863968635E-01  0.54683424098E-01  0.51100000000E-03 0.  1.
</event>
<event>
 8    1  0.1150307E+005  0.1043930E+01  0.7957747E-01            NaN
         13   -1    0    0    0    0  0.00000000000E+00  0.00000000000E+00  0.74505805969E-08  0.10566000000E+00  0.10566000000E+00 0. -1.
     999900   -1    0    0    0    0 -0.00000000000E+00 -0.00000000000E+00 -0.74505805969E-08  0.93827000000E+00  0.93827000000E+00 0.  1.
     999902    2    1    2    0    0 -0.25726968868E-02  0.55075908107E-02 -0.23278388668E-01  0.10198709953E+01  0.10195871770E+01 0.  0.
     999903    2    3    3    0    0  0.14294493292E-02  0.12379465350E+00  0.34570079586E-01  0.13006523472E+00  0.19867443699E-01 0.  0.
         14    1    1    2    0    0  0.25726968868E-02 -0.55075908107E-02  0.23278388668E-01  0.24059004651E-01  0.00000000000E+00 0. -1.
     999901    1    3    3    0    0 -0.40021462161E-02 -0.11828706269E+00 -0.57848468254E-01  0.88980576063E+00  0.88000000000E+00 0.  1.
        -11    1    4    4    0    0  0.91758139519E-02  0.77888610424E-01  0.16643565485E-01  0.80175436317E-01  0.51100000000E-03 0. -1.
         11    1    4    4    0    0 -0.77463646227E-02  0.45906043075E-01  0.17926514101E-01  0.49889798401E-01  0.51100000000E-03 0.  1.
</event>
<event>
 8    1  0.1150307E+005  0.1043930E+01  0.7957747E-01            NaN
         13   -1    0    0    0    0  0.00000000000E+00  0.00000000000E+00  0.74505805969E-08  0.10566000000E+00  0.10566000000E+00 0.  1.
     999900   -1    0    0    0    0 -0.00000000000E+00 -0.00000000000E+00 -0.74505805969E-08  0.93827000000E+00  0.93827000000E+00 0.  1.
     999902    2    1    2    0    0 -0.13796836202E-01 -0.52129506486E-02 -0.18194659846E-01  0.10205083606E+01  0.10202395508E+01 0.  0.
     999903    2    3    3    0    0 -0.89703554872E-01  0.91102263835E-01 -0.26004303970E-01  0.13197054995E+00  0.19840665209E-01 0.  0.
         14    1    1    2    0    0  0.13796836202E-01  0.52129506486E-02  0.18194659846E-01  0.23421639365E-01  0.00000000000E+00 0.  1.
     999901    1    3    3    0    0  0.75906718670E-01 -0.96315214483E-01  0.78096441237E-02  0.88853781069E+00  0.88000000000E+00 0. -1.
        -11    1    4    4    0    0 -0.70657738622E-01  0.81310360153E-01 -0.24645429276E-01  0.11050587767E+00  0.51100000000E-03 0.  1.
         11    1    4    4    0    0 -0.19045816250E-01  0.97919036815E-02 -0.13588746933E-02  0.21464672273E-01  0.51100000000E-03 0. -1.
</event>
<event>
 8    1  0.1150307E+005  0.1043930E+01  0.7957747E-01            NaN
         13   -1    0    0    0    0  0.00000000000E+00  0.00000000000E+00  0.74505805969E-08  0.10566000000E+00  0.10566000000E+00 0. -1.
     999900   -1    0    0    0    0 -0.00000000000E+00 -0.00000000000E+00 -0.74505805969E-08  0.93827000000E+00  0.93827000000E+00 0. -1.
     999902    2    1    2    0    0  0.81478294727E-02 -0.11728692877E-01  0.13646901004E-01  0.10241768416E+01  0.10239863356E+01 0.  0.
     999903    2    3    3    0    0  0.98954489748E-01 -0.32152949108E-01 -0.84022182740E-01  0.13389472350E+00  0.65012777476E-02 0.  0.
         14    1    1    2    0    0 -0.81478294727E-02  0.11728692877E-01 -0.13646901004E-01  0.19753158449E-01  0.00000000000E+00 0.  1.
     999901    1    3    3    0    0 -0.90806660275E-01  0.20424256231E-01  0.97669083744E-01  0.89028211805E+00  0.88000000000E+00 0. -1.
        -11    1    4    4    0    0  0.50295031575E-01 -0.19012826214E-01 -0.45884543008E-01  0.70687553146E-01  0.51100000000E-03 0. -1.
         11    1    4    4    0    0  0.48659458173E-01 -0.13140122894E-01 -0.38137639732E-01  0.63207170359E-01  0.51100000000E-03 0.  1.
</event>
<event>
 8    1  0.1150307E+005  0.1043930E+01  0.7957747E-01            NaN
         13   -1    0    0    0    0  0.00000000000E+00  0.00000000000E+00  0.74505805969E-08  0.10566000000E+00  0.10566000000E+00 0.  1.
     999900   -1    0    0    0    0 -0.00000000000E+00 -0.00000000000E+00 -0.74505805969E-08  0.93827000000E+00  0.93827000000E+00 0.  1.
     999902    2    1    2    0    0 -0.12255416402E-01  0.19191424777E-01  0.70504810676E-02  0.10200927330E+01  0.10198141833E+01 0.  0.
     999903    2    3    3    0    0  0.12657591587E+00  0.15286349887E-01  0.67085382362E-02  0.12920019997E+00  0.19812930544E-01 0.  0.
         14    1    1    2    0    0  0.12255416402E-01 -0.19191424777E-01 -0.70504810676E-02  0.23837267030E-01  0.00000000000E+00 0.  1.
     999901    1    3    3    0    0 -0.13883133227E+00  0.39050748900E-02  0.34194283138E-03  0.89089253300E+00  0.88000000000E+00 0. -1.
        -11    1    4    4    0    0  0.48254028186E-01  0.15157424355E-01  0.53657606278E-02  0.50865029808E-01  0.51100000000E-03 0.  1.
         11    1    4    4    0    0  0.78321887681E-01  0.12892553200E-03  0.13427776084E-02  0.78335170162E-01  0.51100000000E-03 0. -1.
</event>
<event>
 8    1  0.1150307E+005  0.1043930E+01  0.7957747E-01            NaN
         13   -1    0    0    0    0  0.00000000000E+00  0.00000000000E+00  0.74505805969E-08  0.10566000000E+00  0.10566000000E+00 0.  1.
     999900   -1    0    0    0    0 -0.00000000000E+00 -0.00000000000E+00 -0.74505805969E-08  0.93827000000E+00  0.93827000000E+00 0. -1.
     999902    2    1    2    0    0 -0.18238850531E-01  0.91036811044E-02  0.12578125695E-01  0.10199770894E+01  0.10196957983E+01 0.  0.
     999903    2    3    3    0    0  0.11345113168E+00 -0.25739585530E-01 -0.47798669962E-01  0.12745164885E+00  0.20628242792E-01 0.  0.
         14    1    1    2    0    0  0.18238850531E-01 -0.91036811044E-02 -0.12578125695E-01  0.23952910561E-01  0.00000000000E+00 0.  1.
     999901    1    3    3    0    0 -0.13168998222E+00  0.34843266634E-01  0.60376795657E-01  0.89252544059E+00  0.88000000000E+00 0.  1.
        -11    1    4    4    0    0  0.91055241010E-01 -0.12233007629E-01 -0.34834043547E-01  0.98256679681E-01  0.51100000000E-03 0.  1.
         11    1    4    4    0    0  0.22395890674E-01 -0.13506577901E-01 -0.12964626415E-01  0.29194969168E-01  0.51100000000E-03 0. -1.
</event>
<event>
 8    1  0.1150307E+005  0.1043930E+01  0.7957747E-01            NaN
         13   -1    0    0    0    0  0.00000000000E+00  0.00000000000E+00  0.74505805969E-08  0.10566000000E+00  0.10566000000E+00 0.  1.
     999900   -1    0    0    0    0 -0.00000000000E+00 -0.00000000000E+00 -0.74505805969E-08  0.93827000000E+00  0.93827000000E+00 0. -1.
     999902    2    1    2    0    0  0.56637285989E-02 -0.23077169903E-02 -0.23515697975E-01  0.10196320283E+01  0.10193424751E+01 0.  0.
     999903    2    3    3    0    0  0.40599842416E-01 -0.11044397828E+00  0.49843345194E-01  0.12929752243E+00  0.19679194732E-01 0.  0.
         14    1    1    2    0    0 -0.56637285989E-02  0.23077169903E-02  0.23515697975E-01  0.24297971738E-01  0.00000000000E+00 0.  1.
     999901    1    3    3    0    0 -0.34936113818E-01  0.10813626129E+00 -0.73359043169E-01  0.89033450583E+00  0.88000000000E+00 0. -1.
        -11    1    4    4    0    0  0.10954367065E-01 -0.57409073379E-01  0.21835685236E-01  0.62392773097E-01  0.51100000000E-03 0. -1.
         11    1    4    4    0    0  0.29645475352E-01 -0.53034904898E-01  0.28007659958E-01  0.66904749336E-01  0.51100000000E-03 0.  1.
</event>
<event>
 8    1  0.1150307E+005  0.1043930E+01  0.7957747E-01            NaN
         13   -1    0    0    0    0  0.00000000000E+00  0.00000000000E+00  0.74505805969E-08  0.10566000000E+00  0.10566000000E+00 0.  1.
     999900   -1    0    0    0    0 -0.00000000000E+00 -0.00000000000E+00 -0.74505805969E-08  0.93827000000E+00  0.93827000000E+00 0.  1.
     999902    2    1    2    0    0  0.64681233356E-02 -0.23192892192E-01 -0.75658734706E-02  0.10186913529E+01  0.10183786541E+01 0.  0.
     999903    2    3    3    0    0  0.50600677401E-01  0.10630476844E+00 -0.44292642678E-01  0.12736302839E+00  0.19959219888E-01 0.  0.
         14    1    1    2    0    0 -0.64681233356E-02  0.23192892192E-01  0.75658734706E-02  0.25238647133E-01  0.00000000000E+00 0. -1.
     999901    1    3    3    0    0 -0.44132554066E-01 -0.12949766063E+00  0.36726769208E-01  0.89132832448E+00  0.88000000000E+00 0. -1.
        -11    1    4    4    0    0  0.48081855336E-01  0.85306765809E-01 -0.32703615466E-01  0.10324193281E+00  0.51100000000E-03 0.  1.
         11    1    4    4    0    0  0.25188220649E-02  0.20998002632E-01 -0.11589027212E-01  0.24121095578E-01  0.51100000000E-03 0. -1.
</event>
<event>
 8    1  0.1150307E+005  0.1043930E+01  0.7957747E-01            NaN
         13   -1    0    0    0    0  0.00000000000E+00  0.00000000000E+00  0.74505805969E-08  0.10566000000E+00  0.10566000000E+00 0.  1.
     999900   -1    0    0    0    0 -0.00000000000E+00 -0.00000000000E+00 -0.74505805969E-08  0.93827000000E+00  0.93827000000E+00 0.  1.
     999902    2    1    2    0    0 -0.52515535197E-02 -0.20206091282E-01 -0.12210735705E-01  0.10197439088E+01  0.10194570479E+01 0.  0.
     999903    2    3    3    0    0 -0.10241450570E+00  0.62220262587E-01 -0.46048780111E-01  0.12992383919E+00  0.19990542441E-01 0.  0.
         14    1    1    2    0    0  0.52515535197E-02  0.20206091282E-01  0.12210735705E-01  0.24186091163E-01  0.00000000000E+00 0.  1.
     999901    1    3    3    0    0  0.97162952181E-01 -0.82426353869E-01  0.33838044406E-01  0.88982006964E+00  0.88000000000E+00 0.  1.
        -11    1    4    4    0    0 -0.47664980346E-01  0.40018460865E-01 -0.27041139285E-01  0.67859501149E-01  0.51100000000E-03 0. -1.
         11    1    4    4    0    0 -0.54749525354E-01  0.22201801722E-01 -0.19007640827E-01  0.62064338046E-01  0.51100000000E-03 0.  1.
</event>
<event>
 8    1  0.1150307E+005  0.1043930E+01  0.7957747E-01            NaN
         13   -1    0    0    0    0  0.00000000000E+00  0.00000000000E+00  0.74505805969E-08  0.10566000000E+00  0.10566000000E+00 0. -1.
     999900   -1    0    0    0    0 -0.00000000000E+00 -0.00000000000E+00 -0.74505805969E-08  0.93827000000E+00  0.93827000000E+00 0.  1.
     999902    2    1    2    0    0  0.51228057735E-02  0.16339879945E-01  0.16110940817E-01  0.10204183597E+01  0.10201474558E+01 0.  0.
     999903    2    3    3    0    0 -0.89814154710E-01 -0.48506951823E-01 -0.75238183765E-01  0.12825088629E+00  0.19183294168E-01 0.  0.
         14    1    1    2    0    0 -0.51228057735E-02 -0.16339879945E-01 -0.16110940817E-01  0.23511640301E-01  0.00000000000E+00 0.  1.
     999901    1    3    3    0    0  0.94936960484E-01  0.64846831769E-01  0.91349124582E-01  0.89216747341E+00  0.88000000000E+00 0. -1.
        -11    1    4    4    0    0 -0.29581726541E-02 -0.69599206870E-02 -0.55807360401E-02  0.94125988531E-02  0.51100000000E-03 0.  1.
         11    1    4    4    0    0 -0.86855982056E-01 -0.41547031136E-01 -0.69657447725E-01  0.11883828743E+00  0.51100000000E-03 0. -1.
</event>
<event>
 7    1  0.1150307E+005  0.1043930E+01  0.7957747E-01            NaN
         13   -1    0    0    0    0  0.00000000000E+00  0.00000000000E+00  0.74505805969E-08  0.10566000000E+00  0.10566000000E+00 0. -1.
     999900   -1    0    0    0    0 -0.00000000000E+00 -0.00000000000E+00 -0.74505805969E-08  0.93827000000E+00  0.93827000000E+00 0.  1.
     999902    2    1    2    0    0 -0.19970514424E-01 -0.69778449897E-03  0.12777258972E-01  0.10202115115E+01  0.10199357634E+01 0.  0.
         14    1    1    2    0    0  0.19970514424E-01  0.69778449897E-03 -0.12777258972E-01  0.23718488494E-01  0.00000000000E+00 0.  1.
     999901    1    3    3    0    0 -0.29372734773E-01 -0.10719126410E+00 -0.48053421853E-01  0.88829153773E+00  0.88000000000E+00 0. -1.
        -11    1    3    3    0    0  0.26751448568E-01  0.56026636779E-01  0.43494385115E-01  0.75806640123E-01  0.51100000000E-03 0.  1.
         11    1    3    3    0    0 -0.17349228220E-01  0.50466842819E-01  0.17336295711E-01  0.56113333655E-01  0.51100000000E-03 0. -1.
</event>
<event>
 7    1  0.1150307E+005  0.1043930E+01  0.7957747E-01            NaN
         13   -1    0    0    0    0  0.00000000000E+00  0.00000000000E+00  0.74505805969E-08  0.10566000000E+00  0.10566000000E+00 0.  1.
     999900   -1    0    0    0    0 -0.00000000000E+00 -0.00000000000E+00 -0.74505805969E-08  0.93827000000E+00  0.93827000000E+00 0. -1.
     999902    2    1    2    0    0 -0.25424582619E-01 -0.37505725163E-02 -0.22165832173E-02  0.10181348563E+01  0.10178080351E+01 0.  0.
         14    1    1    2    0    0  0.25424582619E-01  0.37505725163E-02  0.22165832173E-02  0.25795143666E-01  0.00000000000E+00 0. -1.
     999901    1    3    3    0    0  0.10074142975E+00 -0.87804644752E-02  0.35021611256E-01  0.88648318962E+00  0.88000000000E+00 0.  1.
        -11    1    3    3    0    0 -0.78753108909E-01  0.32978378850E-02 -0.23773976703E-01  0.82330984367E-01  0.51100000000E-03 0.  1.
         11    1    3    3    0    0 -0.47412903462E-01  0.17320540739E-02 -0.13464217770E-01  0.49320682347E-01  0.51100000000E-03 0. -1.
</event>
<event>
 8    1  0.1150307E+005  0.1043930E+01  0.7957747E-01            NaN
         13   -1    0    0    0    0  0.00000000000E+00  0.00000000000E+00  0.74505805969E-08  0.10566000000E+00  0.10566000000E+00 0. -1.
     999900   -1    0    0    0    0 -0.00000000000E+00 -0.00000000000E+00 -0.74505805969E-08  0.93827000000E+00  0.93827000000E+00 0. -1.
     999902    2    1    2    0    0 -0.22081947298E-01  0.34270304773E-02 -0.69385662254E-02  0.10205312685E+01  0.10202629903E+01 0.  0.
     999903    2    3    3    0    0  0.11018114015E+00 -0.61237549149E-01 -0.12560619773E-01  0.12828318661E+00  0.20220923023E-01 0.  0.
         14    1    1    2    0    0  0.22081947298E-01 -0.34270304773E-02  0.69385662254E-02  0.23398731497E-01  0.00000000000E+00 0. -1.
     999901    1    3    3    0    0 -0.13226308744E+00  0.64664579626E-01  0.56220535478E-02  0.89224808189E+00  0.88000000000E+00 0.  1.
        -11    1    4    4    0    0  0.29002304203E-01 -0.14702164229E-01 -0.12133339690E-01  0.34709744095E-01  0.51100000000E-03 0.  1.
         11    1    4    4    0    0  0.81178835943E-01 -0.46535384920E-01 -0.42728008318E-03  0.93573442514E-01  0.51100000000E-03 0. -1.
</event>
<event>
 8    1  0.1150307E+005  0.1043930E+01  0.7957747E-01            NaN
         13   -1    0    0    0    0  0.00000000000E+00  0.00000000000E+00  0.74505805969E-08  0.10566000000E+00  0.10566000000E+00 0.  1.
     999900   -1    0    0    0    0 -0.00000000000E+00 -0.00000000000E+00 -0.74505805969E-08  0.93827000000E+00  0.93827000000E+00 0. -1.
     999902    2    1    2    0    0 -0.44131570068E-02  0.19023975575E-01 -0.13113313409E-01  0.10204066799E+01  0.10201355036E+01 0.  0.
     999903    2    3    3    0    0  0.12153438624E+00  0.40430782978E-01  0.16648881568E-01  0.13068378857E+00  0.19895026699E-01 0.  0.
         14    1    1    2    0    0  0.44131570068E-02 -0.19023975575E-01  0.13113313409E-01  0.23523320131E-01  0.00000000000E+00 0. -1.
     999901    1    3    3    0    0 -0.12594754324E+00 -0.21406807403E-01 -0.29762194977E-01  0.88972289130E+00  0.88000000000E+00 0. -1.
        -11    1    4    4    0    0  0.61630059312E-01  0.19301601239E-01 -0.15578066785E-02  0.64602661740E-01  0.51100000000E-03 0.  1.
         11    1    4    4    0    0  0.59904326924E-01  0.21129181738E-01  0.18206688246E-01  0.66081126830E-01  0.51100000000E-03 0. -1.
</event>
<event>
 8    1  0.1150307E+005  0.1043930E+01  0.7957747E-01            NaN
         13   -1    0    0    0    0  0.00000000000E+00  0.00000000000E+00  0.74505805969E-08  0.10566000000E+00  0.10566000000E+00 0. -1.
     999900   -1    0    0    0    0 -0.00000000000E+00 -0.00000000000E+00 -0.74505805969E-08  0.93827000000E+00  0.93827000000E+00 0.  1.
     999902    2    1    2    0    0 -0.74985190271E-02 -0.20482758740E-01 -0.13547366092E-02  0.10220757898E+01  0.10218421177E+01 0.  0.
     999903    2    3    3    0    0 -0.55451799179E-01 -0.12042833155E+00  0.10425176017E-01  0.13504286990E+00  0.23452235375E-01 0.  0.
         14    1    1    2    0    0  0.74985190271E-02  0.20482758740E-01  0.13547366092E-02  0.21854210223E-01  0.00000000000E+00 0. -1.
     999901    1    3    3    0    0  0.47953280152E-01  0.99945572811E-01 -0.11779912626E-01  0.88703291988E+00  0.88000000000E+00 0. -1.
        -11    1    4    4    0    0 -0.20504857834E-01 -0.67094522620E-01 -0.14807787973E-02  0.70175337457E-01  0.51100000000E-03 0.  1.
         11    1    4    4    0    0 -0.34946941345E-01 -0.53333808930E-01  0.11905954814E-01  0.64867532444E-01  0.51100000000E-03 0. -1.
</event>
<event>
 8    1  0.1150307E+005  0.1043930E+01  0.7957747E-01            NaN
         13   -1    0    0    0    0  0.00000000000E+00  0.00000000000E+00  0.74505805969E-08  0.10566000000E+00  0.10566000000E+00 0. -1.
     999900   -1    0    0    0    0 -0.00000000000E+00 -0.00000000000E+00 -0.74505805969E-08  0.93827000000E+00  0.93827000000E+00 0.  1.
     999902    2    1    2    0    0  0.14625032260E-02  0.11659326003E-01  0.19493920369E-01  0.10211683715E+01  0.10209146641E+01 0.  0.
     999903    2    3    3    0    0  0.56487189009E-01 -0.89706016850E-01 -0.71544210038E-01  0.12898532420E+00  0.16753145634E-01 0.  0.
         14    1    1    2    0    0 -0.14625032260E-02 -0.11659326003E-01 -0.19493920369E-01  0.22761628454E-01  0.00000000000E+00 0.  1.
     999901    1    3    3    0    0 -0.55024685783E-01  0.10136534285E+00  0.91038130407E-01  0.89218304734E+00  0.88000000000E+00 0.  1.
        -11    1    4    4    0    0  0.37988341447E-01 -0.50388436388E-01 -0.49826292043E-01  0.80405404714E-01  0.51100000000E-03 0.  1.
         11    1    4    4    0    0  0.18498847562E-01 -0.39317580462E-01 -0.21717917995E-01  0.48579919489E-01  0.51100000000E-03 0. -1.
</event>
<event>
 8    1  0.1150307E+005  0.1043930E+01  0.7957747E-01            NaN
         13   -1    0    0    0    0  0.00000000000E+00  0.00000000000E+00  0.74505805969E-08  0.10566000000E+00  0.10566000000E+00 0. -1.
     999900   -1    0    0    0    0 -0.00000000000E+00 -0.00000000000E+00 -0.74505805969E-08  0.93827000000E+00  0.93827000000E+00 0.  1.
     999902    2    1    2    0    0 -0.95611012734E-02  0.11584280163E-01 -0.10385759079E-03  0.10289093146E+01  0.10287996679E+01 0.  0.
     999903    2    3    3    0    0 -0.29456513222E-01 -0.66125687480E-01  0.11551729279E+00  0.13772868366E+00  0.19612563640E-01 0.  0.
         14    1    1    2    0    0  0.95611012734E-02 -0.11584280163E-01  0.10385759079E-03  0.15020685432E-01  0.00000000000E+00 0.  1.
     999901    1    3    3    0    0  0.19895411949E-01  0.77709967643E-01 -0.11562115038E+00  0.89118063091E+00  0.88000000000E+00 0.  1.
        -11    1    4    4    0    0 -0.22271887179E-01 -0.56141964565E-01  0.80709132974E-01  0.10080765055E+00  0.51100000000E-03 0. -1.
         11    1    4    4    0    0 -0.71846260432E-02 -0.99837229144E-02  0.34808159820E-01  0.36921033107E-01  0.51100000000E-03 0.  1.
</event>
<event>
 8    1  0.1150307E+005  0.1043930E+01  0.7957747E-01            NaN
         13   -1    0    0    0    0  0.00000000000E+00  0.00000000000E+00  0.74505805969E-08  0.10566000000E+00  0.10566000000E+00 0. -1.
     999900   -1    0    0    0    0 -0.00000000000E+00 -0.00000000000E+00 -0.74505805969E-08  0.93827000000E+00  0.93827000000E+00 0. -1.
     999902    2    1    2    0    0  0.93424398621E-02 -0.83781666379E-02 -0.19296363412E-01  0.10209120831E+01  0.10206525642E+01 0.  0.
     999903    2    3    3    0    0 -0.71042658832E-02  0.85006405348E-01 -0.99082137440E-01  0.13222938258E+00  0.19768159098E-01 0.  0.
         14    1    1    2    0    0 -0.93424398621E-02  0.83781666379E-02  0.19296363412E-01  0.23017916928E-01  0.00000000000E+00 0. -1.
     999901    1    3    3    0    0  0.16446705745E-01 -0.93384571986E-01  0.79785774028E-01  0.88868270049E+00  0.88000000000E+00 0.  1.
        -11    1    4    4    0    0 -0.32210947072E-02  0.14999920305E-01 -0.30520467329E-01  0.34163329862E-01  0.51100000000E-03 0.  1.
         11    1    4    4    0    0 -0.38831711760E-02  0.70006485044E-01 -0.68561670111E-01  0.98066052719E-01  0.51100000000E-03 0. -1.
</event>
<event>
 8    1  0.1150307E+005  0.1043930E+01  0.7957747E-01            NaN
         13   -1    0    0    0    0  0.00000000000E+00  0.00000000000E+00  0.74505805969E-08  0.10566000000E+00  0.10566000000E+00 0. -1.
     999900   -1    0    0    0    0 -0.00000000000E+00 -0.00000000000E+00 -0.74505805969E-08  0.93827000000E+00  0.93827000000E+00 0.  1.
     999902    2    1    2    0    0 -0.12864046874E-01  0.79801530076E-02  0.19228272186E-01  0.10194577096E+01  0.10191639362E+01 0.  0.
     999903    2    3    3    0    0 -0.55165952708E-01 -0.91637040665E-01  0.73345280021E-01  0.13117752465E+00  0.19682055600E-01 0.  0.
         14    1    1    2    0    0  0.12864046874E-01 -0.79801530076E-02 -0.19228272186E-01  0.24472290355E-01  0.00000000000E+00 0.  1.
     999901    1    3    3    0    0  0.42301905834E-01  0.99617193673E-01 -0.54117007835E-01  0.88828018499E+00  0.88000000000E+00 0.  1.
        -11    1    4    4    0    0 -0.28082177573E-01 -0.62132155654E-01  0.52283702213E-01  0.85923571280E-01  0.51100000000E-03 0. -1.
         11    1    4    4    0    0 -0.27083775135E-01 -0.29504885011E-01  0.21061577808E-01  0.45253953372E-01  0.51100000000E-03 0.  1.
</event>
<event>
 8    1  0.1150307E+005  0.1043930E+01  0.7957747E-01            NaN
         13   -1    0    0    0    0  0.00000000000E+00  0.00000000000E+00  0.74505805969E-08  0.10566000000E+00  0.10566000000E+00 0. -1.
     999900   -1    0    0    0    0 -0.00000000000E+00 -0.00000000000E+00 -0.74505805969E-08  0.93827000000E+00  0.93827000000E+00 0. -1.
     999902    2    1    2    0    0  0.16042403217E-02  0.21915777402E-01  0.73100922448E-02  0.10207715818E+01  0.10205088485E+01 0.  0.
     999903    2    3    3    0    0 -0.11141412915E+00 -0.60161060881E-01  0.19466780013E-01  0.12967251642E+00  0.20088418817E-01 0.  0.
         14    1    1    2    0    0 -0.16042403217E-02 -0.21915777402E-01 -0.73100922448E-02  0.23158418227E-01  0.00000000000E+00 0. -1.
     999901    1    3    3    0    0  0.11301836947E+00  0.82076838283E-01 -0.12156687768E-01  0.89109906536E+00  0.88000000000E+00 0. -1.
        -11    1    4    4    0    0 -0.61943202251E-01 -0.27636488140E-01  0.19084094963E-01  0.70464172339E-01  0.51100000000E-03 0. -1.
         11    1    4    4    0    0 -0.49470926895E-01 -0.32524572741E-01  0.38268504951E-03  0.59208344079E-01  0.51100000000E-03 0.  1.
</event>
<event>
 8    1  0.1150307E+005  0.1043930E+01  0.7957747E-01            NaN
         13   -1    0    0    0    0  0.00000000000E+00  0.00000000000E+00  0.74505805969E-08  0.10566000000E+00  0.10566000000E+00 0.  1.
     999900   -1    0    0    0    0 -0.00000000000E+00 -0.00000000000E+00 -0.74505805969E-08  0.93827000000E+00  0.93827000000E+00 0. -1.
     999902    2    1    2    0    0  0.94040010856E-02 -0.18720498172E-01 -0.80954720249E-02  0.10214705041E+01  0.10212235611E+01 0.  0.
     999903    2    3    3    0    0  0.38303816091E-01  0.69078675915E-01  0.10107882416E+00  0.12991965238E+00  0.20570405623E-01 0.  0.
         14    1    1    2    0    0 -0.94040010856E-02  0.18720498172E-01  0.80954720249E-02  0.22459495888E-01  0.00000000000E+00 0.  1.
     999901    1    3    3    0    0 -0.28899815006E-01 -0.87799174087E-01 -0.10917429618E+00  0.89155085173E+00  0.88000000000E+00 0. -1.
        -11    1    4    4    0    0  0.36292930081E-01  0.46963579369E-01  0.71398779421E-01  0.92848270770E-01  0.51100000000E-03 0. -1.
         11    1    4    4    0    0  0.20108860103E-02  0.22115096546E-01  0.29680044738E-01  0.37071381610E-01  0.51100000000E-03 0.  1.
</event>
<event>
 8    1  0.1150307E+005  0.1043930E+01  0.7957747E-01            NaN
         13   -1    0    0    0    0  0.00000000000E+00  0.00000000000E+00  0.74505805969E-08  0.10566000000E+00  0.10566000000E+00 0. -1.
     999900   -1    0    0    0    0 -0.00000000000E+00 -0.00000000000E+00 -0.74505805969E-08  0.93827000000E+00  0.93827000000E+00 0. -1.
     999902    2    1    2    0    0 -0.17047267044E-01 -0.32944877809E-02  0.16059975836E-01  0.10202786620E+01  0.10200044914E+01 0.  0.
     999903    2    3    3    0    0  0.11439100750E+00  0.49180482429E-01  0.26827158010E-01  0.12890580250E+00  0.19823901266E-01 0.  0.
         14    1    1    2    0    0  0.17047267044E-01  0.32944877809E-02 -0.16059975836E-01  0.23651337960E-01  0.00000000000E+00 0.  1.
     999901    1    3    3    0    0 -0.13143827455E+00 -0.52474970209E-01 -0.10767182174E-01  0.89137285954E+00  0.88000000000E+00 0. -1.
        -11    1    4    4    0    0  0.39312075935E-01  0.27276265121E-01  0.90167502109E-02  0.48692883039E-01  0.51100000000E-03 0. -1.
         11    1    4    4    0    0  0.75078931568E-01  0.21904217307E-01  0.17810407799E-01  0.80212919460E-01  0.51100000000E-03 0.  1.
</event>
<event>
 8    1  0.1150307E+005  0.1043930E+01  0.7957747E-01            NaN
         13   -1    0    0    0    0  0.00000000000E+00  0.00000000000E+00  0.74505805969E-08  0.10566000000E+00  0.10566000000E+00 0.  1.
     999900   -1    0    0    0    0 -0.00000000000E+00 -0.00000000000E+00 -0.74505805969E-08  0.93827000000E+00  0.93827000000E+00 0.  1.
     999902    2    1    2    0    0  0.21360152363E-01 -0.98457400487E-02 -0.27387623389E-02  0.10202509898E+01  0.10199761696E+01 0.  0.
     999903    2    3    3    0    0  0.59491001479E-01 -0.11719622649E+00  0.14010309711E-02  0.13289805746E+00  0.19641691078E-01 0.  0.
         14    1    1    2    0    0 -0.21360152363E-01  0.98457400487E-02  0.27387623389E-02  0.23679010225E-01  0.00000000000E+00 0. -1.
     999901    1    3    3    0    0 -0.38130849116E-01  0.10735048644E+00 -0.41397933100E-02  0.88735293231E+00  0.88000000000E+00 0.  1.
        -11    1    4    4    0    0  0.14193023198E-01 -0.22859169745E-01  0.78969872400E-02  0.28046516315E-01  0.51100000000E-03 0.  1.
         11    1    4    4    0    0  0.45297978281E-01 -0.94337056748E-01 -0.64959562689E-02  0.10485154115E+00  0.51100000000E-03 0. -1.
</event>
<event>
 8    1  0.1150307E+005  0.1043930E+01  0.7957747E-01            NaN
         13   -1    0    0    0    0  0.00000000000E+00  0.00000000000E+00  0.74505805969E-08  0.10566000000E+00  0.10566000000E+00 0.  1.
     999900   -1    0    0    0    0 -0.00000000000E+00 -0.00000000000E+00 -0.74505805969E-08  0.93827000000E+00  0.93827000000E+00 0. -1.
     999902    2    1    2    0    0 -0.73639428613E-02 -0.21876936432E-01 -0.55555372469E-02  0.10201878014E+01  0.10199114952E+01 0.  0.
     999903    2    3    3    0    0  0.80729617491E-02 -0.80425141038E-01 -0.10380799161E+00  0.13265203584E+00  0.16943655686E-01 0.  0.
         14    1    1    2    0    0  0.73639428613E-02  0.21876936432E-01  0.55555372469E-02  0.23742198639E-01  0.00000000000E+00 0. -1.
     999901    1    3    3    0    0 -0.15436904610E-01  0.58548204606E-01  0.98252454366E-01  0.88753576552E+00  0.88000000000E+00 0.  1.
        -11    1    4    4    0    0  0.10304886858E-01 -0.30462687956E-01 -0.47174101705E-01  0.57094860043E-01  0.51100000000E-03 0.  1.
         11    1    4    4    0    0 -0.22319251086E-02 -0.49962453082E-01 -0.56633889908E-01  0.75557175799E-01  0.51100000000E-03 0. -1.
</event>
<event>
 8    1  0.1150307E+005  0.1043930E+01  0.7957747E-01            NaN
         13   -1    0    0    0    0  0.00000000000E+00  0.00000000000E+00  0.74505805969E-08  0.10566000000E+00  0.10566000000E+00 0. -1.
     999900   -1    0    0    0    0 -0.00000000000E+00 -0.00000000000E+00 -0.74505805969E-08  0.93827000000E+00  0.93827000000E+00 0. -1.
     999902    2    1    2    0    0 -0.11752800504E-01  0.16193813957E-01  0.14213026370E-01  0.10193866089E+01  0.10190911050E+01 0.  0.
     999903    2    3    3    0    0 -0.12241725981E+00 -0.27491631203E-01 -0.25115320057E-01  0.13050992478E+00  0.25696028425E-01 0.  0.
         14    1    1    2    0    0  0.11752800504E-01 -0.16193813957E-01 -0.14213026370E-01  0.24543391142E-01  0.00000000000E+00 0.  1.
     999901    1    3    3    0    0  0.11066445931E+00  0.43685445160E-01  0.39328346427E-01  0.88887668408E+00  0.88000000000E+00 0.  1.
        -11    1    4    4    0    0 -0.36374595776E-01  0.36518333180E-02 -0.67952562559E-02  0.37187144729E-01  0.51100000000E-03 0.  1.
         11    1    4    4    0    0 -0.86042664037E-01 -0.31143464521E-01 -0.18320063801E-01  0.93322780047E-01  0.51100000000E-03 0. -1.
</event>
<event>
 8    1  0.1150307E+005  0.1043930E+01  0.7957747E-01            NaN
         13   -1    0    0    0    0  0.00000000000E+00  0.00000000000E+00  0.74505805969E-08  0.10566000000E+00  0.10566000000E+00 0. -1.
     999900   -1    0    0    0    0 -0.00000000000E+00 -0.00000000000E+00 -0.74505805969E-08  0.93827000000E+00  0.93827000000E+00 0. -1.
     999902    2    1    2    0    0  0.21376076471E-03 -0.84033994854E-02 -0.20922445641E-01  0.10213820168E+01  0.10211331023E+01 0.  0.
     999903    2    3    3    0    0  0.36442888226E-01  0.67865223555E-01  0.10141409276E+00  0.12891594953E+00  0.20018270701E-01 0.  0.
         14    1    1    2    0    0 -0.21376076471E-03  0.84033994854E-02  0.20922445641E-01  0.22547983239E-01  0.00000000000E+00 0. -1.
     999901    1    3    3    0    0 -0.36229127461E-01 -0.76268623040E-01 -0.12233653840E+00  0.89246606723E+00  0.88000000000E+00 0. -1.
        -11    1    4    4    0    0  0.29572866843E-01  0.47650060022E-01  0.58845974888E-01  0.81290790099E-01  0.51100000000E-03 0. -1.
         11    1    4    4    0    0  0.68700213835E-02  0.20215163533E-01  0.42568117870E-01  0.47625159427E-01  0.51100000000E-03 0.  1.
</event>
<event>
 8    1  0.1150307E+005  0.1043930E+01  0.7957747E-01            NaN
         13   -1    0    0    0    0  0.00000000000E+00  0.00000000000E+00  0.74505805969E-08  0.10566000000E+00  0.10566000000E+00 0.  1.
     999900   -1    0    0    0    0 -0.00000000000E+00 -0.00000000000E+00 -0.74505805969E-08  0.93827000000E+00  0.93827000000E+00 0.  1.
     999902    2    1    2    0    0 -0.61153669949E-02  0.14946113415E-01  0.17678499788E-01  0.10199860368E+01  0.10197049582E+01 0.  0.
     999903    2    3    3    0    0 -0.67587180280E-01  0.11148493635E+00  0.13299890200E-01  0.13256409634E+00  0.19985859721E-01 0.  0.
         14    1    1    2    0    0  0.61153669949E-02 -0.14946113415E-01 -0.17678499788E-01  0.23943963216E-01  0.00000000000E+00 0. -1.
     999901    1    3    3    0    0  0.61471813285E-01 -0.96538822930E-01  0.43786095884E-02  0.88742194045E+00  0.88000000000E+00 0. -1.
        -11    1    4    4    0    0 -0.28733903283E-01  0.65289375036E-01  0.35994520980E-02  0.71425183702E-01  0.51100000000E-03 0.  1.
         11    1    4    4    0    0 -0.38853276997E-01  0.46195561310E-01  0.97004381016E-02  0.61138912638E-01  0.51100000000E-03 0. -1.
</event>
<event>
 8    1  0.1150307E+005  0.1043930E+01  0.7957747E-01            NaN
         13   -1    0    0    0    0  0.00000000000E+00  0.00000000000E+00  0.74505805969E-08  0.10566000000E+00  0.10566000000E+00 0. -1.
     999900   -1    0    0    0    0 -0.00000000000E+00 -0.00000000000E+00 -0.74505805969E-08  0.93827000000E+00  0.93827000000E+00 0.  1.
     999902    2    1    2    0    0 -0.15704861065E-01  0.37258270467E-02 -0.17928392588E-01  0.10198063247E+01  0.10195209602E+01 0.  0.
     999903    2    3    3    0    0 -0.55826921281E-01  0.98268889647E-01  0.61710604207E-01  0.13026119365E+00  0.19656044539E-01 0.  0.
         14    1    1    2    0    0  0.15704861065E-01 -0.37258270467E-02  0.17928392588E-01  0.24123675281E-01  0.00000000000E+00 0. -1.
     999901    1    3    3    0    0  0.40122060216E-01 -0.94543062600E-01 -0.79638996795E-01  0.88954513107E+00  0.88000000000E+00 0. -1.
        -11    1    4    4    0    0 -0.38507886407E-01  0.57675480911E-01  0.28291252174E-01  0.74899762913E-01  0.51100000000E-03 0.  1.
         11    1    4    4    0    0 -0.17319034875E-01  0.40593408736E-01  0.33419352032E-01  0.55361430736E-01  0.51100000000E-03 0. -1.
</event>
<event>
 7    1  0.1221844E+005  0.1043930E+01  0.7957747E-01            NaN
         13   -1    0    0    0    0  0.00000000000E+00  0.00000000000E+00  0.74505805969E-08  0.10566000000E+00  0.10566000000E+00 0.  1.
     999900   -1    0    0    0    0 -0.00000000000E+00 -0.00000000000E+00 -0.74505805969E-08  0.93827000000E+00  0.93827000000E+00 0.  1.
     999903    2    1    2    0    0  0.16855214983E-01 -0.95287826354E-02 -0.84510866541E-01  0.88957083234E-01  0.19909297407E-01 0.  0.
         14    1    1    2    0    0 -0.27595361374E-01  0.59876199817E-01  0.28092296359E-01  0.71664777880E-01  0.00000000000E+00 0.  1.
     999901    1    1    2    0    0  0.10740146391E-01 -0.50347417181E-01  0.56418570182E-01  0.88330813889E+00  0.88000000000E+00 0. -1.
        -11    1    3    3    0    0  0.18399944432E-01 -0.44802848037E-02 -0.41489723579E-01  0.45610187356E-01  0.51100000000E-03 0. -1.
         11    1    3    3    0    0 -0.15447294489E-02 -0.50484978317E-02 -0.43021142962E-01  0.43346895877E-01  0.51100000000E-03 0.  1.
</event>
<event>
 8    1  0.1150307E+005  0.1043930E+01  0.7957747E-01            NaN
         13   -1    0    0    0    0  0.00000000000E+00  0.00000000000E+00  0.74505805969E-08  0.10566000000E+00  0.10566000000E+00 0. -1.
     999900   -1    0    0    0    0 -0.00000000000E+00 -0.00000000000E+00 -0.74505805969E-08  0.93827000000E+00  0.93827000000E+00 0.  1.
     999902    2    1    2    0    0  0.11712507745E-01  0.19195100710E-01 -0.45208518015E-02  0.10209937224E+01  0.10207360620E+01 0.  0.
     999903    2    3    3    0    0  0.18896646742E-01  0.12798708715E+00 -0.28305049197E-01  0.13394637518E+00  0.20066835274E-01 0.  0.
         14    1    1    2    0    0 -0.11712507745E-01 -0.19195100710E-01  0.45208518015E-02  0.22936277596E-01  0.00000000000E+00 0. -1.
     999901    1    3    3    0    0 -0.71841389968E-02 -0.10879198645E+00  0.23784197395E-01  0.88704734722E+00  0.88000000000E+00 0. -1.
        -11    1    4    4    0    0 -0.11004735452E-02  0.52039289772E-01 -0.15951797381E-01  0.54442811120E-01  0.51100000000E-03 0. -1.
         11    1    4    4    0    0  0.19997120287E-01  0.75947797383E-01 -0.12353251816E-01  0.79503564062E-01  0.51100000000E-03 0.  1.
</event>
<event>
 8    1  0.1150307E+005  0.1043930E+01  0.7957747E-01            NaN
         13   -1    0    0    0    0  0.00000000000E+00  0.00000000000E+00  0.74505805969E-08  0.10566000000E+00  0.10566000000E+00 0. -1.
     999900   -1    0    0    0    0 -0.00000000000E+00 -0.00000000000E+00 -0.74505805969E-08  0.93827000000E+00  0.93827000000E+00 0.  1.
     999902    2    1    2    0    0  0.49913335918E-02 -0.52468833695E-02  0.22023095414E-01  0.10207468180E+01  0.10204835160E+01 0.  0.
     999903    2    3    3    0    0 -0.37485758371E-01 -0.12437267583E+00  0.43171040251E-02  0.13152875706E+00  0.20184944211E-01 0.  0.
         14    1    1    2    0    0 -0.49913335918E-02  0.52468833695E-02 -0.22023095414E-01  0.23183182002E-01  0.00000000000E+00 0.  1.
     999901    1    3    3    0    0  0.42477091963E-01  0.11912579246E+00  0.17705991389E-01  0.88921806094E+00  0.88000000000E+00 0. -1.
        -11    1    4    4    0    0 -0.22752594108E-01 -0.99207091692E-01  0.81621254814E-02  0.10211076826E+00  0.51100000000E-03 0.  1.
         11    1    4    4    0    0 -0.14733164263E-01 -0.25165584137E-01 -0.38450214562E-02  0.29417988802E-01  0.51100000000E-03 0. -1.
</event>
<event>
 8    1  0.1150307E+005  0.1043930E+01  0.7957747E-01            NaN
         13   -1    0    0    0    0  0.00000000000E+00  0.00000000000E+00  0.74505805969E-08  0.10566000000E+00  0.10566000000E+00 0. -1.
     999900   -1    0    0    0    0 -0.00000000000E+00 -0.00000000000E+00 -0.74505805969E-08  0.93827000000E+00  0.93827000000E+00 0. -1.
     999902    2    1    2    0    0 -0.11360179996E-01 -0.42603278551E-03  0.20382269960E-01  0.10205917884E+01  0.10203249122E+01 0.  0.
     999903    2    3    3    0    0  0.11561136978E+00  0.31552020557E-01 -0.42615977569E-01  0.12867634981E+00  0.19492630228E-01 0.  0.
         14    1    1    2    0    0  0.11360179996E-01  0.42603278551E-03 -0.20382269960E-01  0.23338211632E-01  0.00000000000E+00 0.  1.
     999901    1    3    3    0    0 -0.12697154977E+00 -0.31978053342E-01  0.62998247528E-01  0.89191543856E+00  0.88000000000E+00 0.  1.
        -11    1    4    4    0    0  0.60740151787E-01  0.64996188920E-02 -0.20952210696E-01  0.64582252507E-01  0.51100000000E-03 0. -1.
         11    1    4    4    0    0  0.54871217990E-01  0.25052401665E-01 -0.21663766873E-01  0.64094097303E-01  0.51100000000E-03 0.  1.
</event>
<event>
 8    1  0.1150307E+005  0.1043930E+01  0.7957747E-01            NaN
         13   -1    0    0    0    0  0.00000000000E+00  0.00000000000E+00  0.74505805969E-08  0.10566000000E+00  0.10566000000E+00 0.  1.
     999900   -1    0    0    0    0 -0.00000000000E+00 -0.00000000000E+00 -0.74505805969E-08  0.93827000000E+00  0.93827000000E+00 0. -1.
     999902    2    1    2    0    0 -0.96926991237E-02  0.13666067306E-01  0.16530663356E-01  0.10203933766E+01  0.10201218899E+01 0.  0.
     999903    2    3    3    0    0  0.11499423323E+00  0.51811714842E-01 -0.23077780850E-01  0.12990432532E+00  0.20842799676E-01 0.  0.
         14    1    1    2    0    0  0.96926991237E-02 -0.13666067306E-01 -0.16530663356E-01  0.23536623439E-01  0.00000000000E+00 0.  1.
     999901    1    3    3    0    0 -0.12468693235E+00 -0.38145647536E-01  0.39608444207E-01  0.89048905124E+00  0.88000000000E+00 0.  1.
        -11    1    4    4    0    0  0.85964736837E-01  0.35437147843E-01 -0.80235339870E-02  0.93329339681E-01  0.51100000000E-03 0.  1.
         11    1    4    4    0    0  0.29029496389E-01  0.16374566999E-01 -0.15054246863E-01  0.36574985641E-01  0.51100000000E-03 0. -1.
</event>
<event>
 8    1  0.1150307E+005  0.1043930E+01  0.7957747E-01            NaN
         13   -1    0    0    0    0  0.00000000000E+00  0.00000000000E+00  0.74505805969E-08  0.10566000000E+00  0.10566000000E+00 0.  1.
     999900   -1    0    0    0    0 -0.00000000000E+00 -0.00000000000E+00 -0.74505805969E-08  0.93827000000E+00  0.93827000000E+00 0. -1.
     999902    2    1    2    0    0 -0.39588618969E-02  0.14597573217E-01 -0.16882882807E-01  0.10212629873E+01  0.10210114083E+01 0.  0.
     999903    2    3    3    0    0 -0.58798528031E-01  0.69061258941E-01 -0.96948515281E-01  0.13425442619E+00  0.19962764093E-01 0.  0.
         14    1    1    2    0    0  0.39588618969E-02 -0.14597573217E-01  0.16882882807E-01  0.22667012667E-01  0.00000000000E+00 0. -1.
     999901    1    3    3    0    0  0.54839666135E-01 -0.54463685724E-01  0.80065632474E-01  0.88700856115E+00  0.88000000000E+00 0.  1.
        -11    1    4    4    0    0 -0.27878461380E-01  0.30304647960E-01 -0.30021336818E-01  0.50961967017E-01  0.51100000000E-03 0. -1.
         11    1    4    4    0    0 -0.30920066652E-01  0.38756610981E-01 -0.66927178463E-01  0.83292459170E-01  0.51100000000E-03 0.  1.
</event>
<event>
 8    1  0.1150307E+005  0.1043930E+01  0.7957747E-01            NaN
         13   -1    0    0    0    0  0.00000000000E+00  0.00000000000E+00  0.74505805969E-08  0.10566000000E+00  0.10566000000E+00 0. -1.
     999900   -1    0    0    0    0 -0.00000000000E+00 -0.00000000000E+00 -0.74505805969E-08  0.93827000000E+00  0.93827000000E+00 0.  1.
     999902    2    1    2    0    0 -0.23674397380E-01  0.12243961605E-02 -0.23573421694E-02  0.10201070426E+01  0.10198288313E+01 0.  0.
     999903    2    3    3    0    0 -0.58111123930E-02 -0.10612356701E+00  0.72645244053E-01  0.13023734984E+00  0.19709269577E-01 0.  0.
         14    1    1    2    0    0  0.23674397380E-01 -0.12243961605E-02  0.23573421694E-02  0.23822957402E-01  0.00000000000E+00 0. -1.
     999901    1    3    3    0    0 -0.17863284987E-01  0.10734796317E+00 -0.75002586222E-01  0.88986969276E+00  0.88000000000E+00 0.  1.
        -11    1    4    4    0    0  0.71670879181E-02 -0.42603163985E-01  0.31094037165E-01  0.53230602091E-01  0.51100000000E-03 0. -1.
         11    1    4    4    0    0 -0.12978200311E-01 -0.63520403028E-01  0.41551206888E-01  0.77006747750E-01  0.51100000000E-03 0.  1.
</event>
<event>
 8    1  0.1150307E+005  0.1043930E+01  0.7957747E-01            NaN
         13   -1    0    0    0    0  0.00000000000E+00  0.00000000000E+00  0.74505805969E-08  0.10566000000E+00  0.10566000000E+00 0.  1.
     999900   -1    0    0    0    0 -0.00000000000E+00 -0.00000000000E+00 -0.74505805969E-08  0.93827000000E+00  0.93827000000E+00 0.  1.
     999902    2    1    2    0    0 -0.12001090266E-01 -0.12686626199E-02  0.21826920147E-01  0.10189890675E+01  0.10186837927E+01 0.  0.
     999903    2    3    3    0    0 -0.25013824065E-01  0.11885532678E+00 -0.37712676257E-01  0.12873962624E+00  0.19984126570E-01 0.  0.
         14    1    1    2    0    0  0.12001090266E-01  0.12686626199E-02 -0.21826920147E-01  0.24940932531E-01  0.00000000000E+00 0. -1.
     999901    1    3    3    0    0  0.13012733799E-01 -0.12012398940E+00  0.59539596404E-01  0.89024944123E+00  0.88000000000E+00 0. -1.
        -11    1    4    4    0    0 -0.16757574443E-01  0.69475780007E-01 -0.12051504933E-01  0.72478963851E-01  0.51100000000E-03 0.  1.
         11    1    4    4    0    0 -0.82562496220E-02  0.49379546775E-01 -0.25661171325E-01  0.56260662388E-01  0.51100000000E-03 0. -1.
</event>
<event>
 8    1  0.1150307E+005  0.1043930E+01  0.7957747E-01            NaN
         13   -1    0    0    0    0  0.00000000000E+00  0.00000000000E+00  0.74505805969E-08  0.10566000000E+00  0.10566000000E+00 0.  1.
     999900   -1    0    0    0    0 -0.00000000000E+00 -0.00000000000E+00 -0.74505805969E-08  0.93827000000E+00  0.93827000000E+00 0. -1.
     999902    2    1    2    0    0  0.14557123440E-01 -0.18671618231E-01  0.12592438712E-02  0.10202208274E+01  0.10199452984E+01 0.  0.
     999903    2    3    3    0    0  0.24954982950E-01 -0.12569530655E+00 -0.29949930599E-01  0.13312658330E+00  0.20090484727E-01 0.  0.
         14    1    1    2    0    0 -0.14557123440E-01  0.18671618231E-01 -0.12592438712E-02  0.23709172599E-01  0.00000000000E+00 0.  1.
     999901    1    3    3    0    0 -0.10397859511E-01  0.10702368832E+00  0.31209174471E-01  0.88709424410E+00  0.88000000000E+00 0.  1.
        -11    1    4    4    0    0  0.15846969752E-01 -0.64495542243E-01 -0.56698211185E-02  0.66657403280E-01  0.51100000000E-03 0.  1.
         11    1    4    4    0    0  0.91080131983E-02 -0.61199764304E-01 -0.24280109481E-01  0.66469180022E-01  0.51100000000E-03 0. -1.
</event>
<event>
 8    1  0.1150307E+005  0.1043930E+01  0.7957747E-01            NaN
         13   -1    0    0    0    0  0.00000000000E+00  0.00000000000E+00  0.74505805969E-08  0.10566000000E+00  0.10566000000E+00 0.  1.
     999900   -1    0    0    0    0 -0.00000000000E+00 -0.00000000000E+00 -0.74505805969E-08  0.93827000000E+00  0.93827000000E+00 0.  1.
     999902    2    1    2    0    0 -0.18740060536E-01 -0.95852695194E-02  0.11477051614E-01  0.10199552221E+01  0.10196734110E+01 0.  0.
     999903    2    3    3    0    0 -0.84548666879E-01  0.25042800669E-01 -0.93963416618E-01  0.13054667243E+00  0.20921067962E-01 0.  0.
         14    1    1    2    0    0  0.18740060536E-01  0.95852695194E-02 -0.11477051614E-01  0.23974777880E-01  0.00000000000E+00 0. -1.
     999901    1    3    3    0    0  0.65808606343E-01 -0.34628070188E-01  0.10544046823E+00  0.88940854969E+00  0.88000000000E+00 0. -1.
        -11    1    4    4    0    0 -0.68903874370E-01  0.11449350841E-01 -0.74163472498E-01  0.10187891495E+00  0.51100000000E-03 0.  1.
         11    1    4    4    0    0 -0.15644792509E-01  0.13593449828E-01 -0.19799944119E-01  0.28667757481E-01  0.51100000000E-03 0. -1.
</event>
<event>
 8    1  0.1150307E+005  0.1043930E+01  0.7957747E-01            NaN
         13   -1    0    0    0    0  0.00000000000E+00  0.00000000000E+00  0.74505805969E-08  0.10566000000E+00  0.10566000000E+00 0.  1.
     999900   -1    0    0    0    0 -0.00000000000E+00 -0.00000000000E+00 -0.74505805969E-08  0.93827000000E+00  0.93827000000E+00 0.  1.
     999902    2    1    2    0    0  0.10423630016E-02 -0.12262827025E-01  0.20195557461E-01  0.10202799685E+01  0.10200058285E+01 0.  0.
     999903    2    3    3    0    0 -0.10076729481E+00 -0.44582706907E-01  0.70735132843E-01  0.13238130892E+00  0.19485545261E-01 0.  0.
         14    1    1    2    0    0 -0.10423630016E-02  0.12262827025E-01 -0.20195557461E-01  0.23650031468E-01  0.00000000000E+00 0. -1.
     999901    1    3    3    0    0  0.10180965781E+00  0.32319879881E-01 -0.50539575382E-01  0.88789865961E+00  0.88000000000E+00 0.  1.
        -11    1    4    4    0    0 -0.35081882849E-01 -0.77357689431E-02  0.16300835832E-01  0.39453250756E-01  0.51100000000E-03 0. -1.
         11    1    4    4    0    0 -0.65685411964E-01 -0.36846937963E-01  0.54434297012E-01  0.92928058165E-01  0.51100000000E-03 0.  1.
</event>
<event>
 8    1  0.1150307E+005  0.1043930E+01  0.7957747E-01            NaN
         13   -1    0    0    0    0  0.00000000000E+00  0.00000000000E+00  0.74505805969E-08  0.10566000000E+00  0.10566000000E+00 0. -1.
     999900   -1    0    0    0    0 -0.00000000000E+00 -0.00000000000E+00 -0.74505805969E-08  0.93827000000E+00  0.93827000000E+00 0. -1.
     999902    2    1    2    0    0 -0.23972624655E-01 -0.66882776720E-02 -0.21784836179E-01  0.10108543461E+01  0.10103130754E+01 0.  0.
     999903    2    3    3    0    0 -0.10776994226E-01 -0.12072617618E+00 -0.63347222701E-02  0.12326352094E+00  0.21513104599E-01 0.  0.
         14    1    1    2    0    0  0.23972624655E-01  0.66882776720E-02  0.21784836179E-01  0.33075653863E-01  0.00000000000E+00 0.  1.
     999901    1    3    3    0    0 -0.13195630429E-01  0.11403789850E+00 -0.15450113909E-01  0.88759082520E+00  0.88000000000E+00 0. -1.
        -11    1    4    4    0    0 -0.14269562764E-02 -0.50008661538E-01 -0.12780208478E-01  0.51638137871E-01  0.51100000000E-03 0.  1.
         11    1    4    4    0    0 -0.93500379496E-02 -0.70717514638E-01  0.64454862078E-02  0.71625383068E-01  0.51100000000E-03 0. -1.
</event>
<event>
 8    1  0.1150307E+005  0.1043930E+01  0.7957747E-01            NaN
         13   -1    0    0    0    0  0.00000000000E+00  0.00000000000E+00  0.74505805969E-08  0.10566000000E+00  0.10566000000E+00 0. -1.
     999900   -1    0    0    0    0 -0.00000000000E+00 -0.00000000000E+00 -0.74505805969E-08  0.93827000000E+00  0.93827000000E+00 0. -1.
     999902    2    1    2    0    0 -0.96495062009E-02 -0.11882119873E-01 -0.19585065494E-01  0.10190729581E+01  0.10187697588E+01 0.  0.
     999903    2    3    3    0    0  0.20034248445E-01 -0.11811767195E+00  0.44134788947E-01  0.12990068137E+00  0.23940590791E-01 0.  0.
         14    1    1    2    0    0  0.96495062009E-02  0.11882119873E-01  0.19585065494E-01  0.24857041920E-01  0.00000000000E+00 0. -1.
     999901    1    3    3    0    0 -0.29683754646E-01  0.10623555208E+00 -0.63719854442E-01  0.88917227671E+00  0.88000000000E+00 0. -1.
        -11    1    4    4    0    0  0.76964231973E-02 -0.67716896485E-01  0.12994207266E-01  0.69382444055E-01  0.51100000000E-03 0.  1.
         11    1    4    4    0    0  0.12337825248E-01 -0.50400775467E-01  0.31140581681E-01  0.60518237317E-01  0.51100000000E-03 0. -1.
</event>
<event>
 8    1  0.1150307E+005  0.1043930E+01  0.7957747E-01            NaN
         13   -1    0    0    0    0  0.00000000000E+00  0.00000000000E+00  0.74505805969E-08  0.10566000000E+00  0.10566000000E+00 0. -1.
     999900   -1    0    0    0    0 -0.00000000000E+00 -0.00000000000E+00 -0.74505805969E-08  0.93827000000E+00  0.93827000000E+00 0.  1.
     999902    2    1    2    0    0  0.58916082508E-02  0.22593289841E-01  0.40211176648E-02  0.10202374446E+01  0.10199623063E+01 0.  0.
     999903    2    3    3    0    0  0.72160178093E-01  0.85902298453E-02  0.10791318494E+00  0.13154111251E+00  0.19414567886E-01 0.  0.
         14    1    1    2    0    0 -0.58916082508E-02 -0.22593289841E-01 -0.40211176648E-02  0.23692555390E-01  0.00000000000E+00 0. -1.
     999901    1    3    3    0    0 -0.66268569842E-01  0.14003059996E-01 -0.10389206728E+00  0.88869633210E+00  0.88000000000E+00 0.  1.
        -11    1    4    4    0    0  0.37940363592E-01 -0.47681485113E-02  0.49806431464E-01  0.62794491526E-01  0.51100000000E-03 0. -1.
         11    1    4    4    0    0  0.34219814501E-01  0.13358378357E-01  0.58106753476E-01  0.68746620988E-01  0.51100000000E-03 0.  1.
</event>
<event>
 8    1  0.1150307E+005  0.1043930E+01  0.7957747E-01            NaN
         13   -1    0    0    0    0  0.00000000000E+00  0.00000000000E+00  0.74505805969E-08  0.10566000000E+00  0.10566000000E+00 0. -1.
     999900   -1    0    0    0    0 -0.00000000000E+00 -0.00000000000E+00 -0.74505805969E-08  0.93827000000E+00  0.93827000000E+00 0. -1.
     999902    2    1    2    0    0 -0.20107257997E-01  0.84401658419E-02  0.55667430461E-02  0.10214238486E+01  0.10211758671E+01 0.  0.
     999903    2    3    3    0    0  0.10173627135E+00 -0.70073802626E-01  0.31932358626E-01  0.12917644199E+00  0.20156163190E-01 0.  0.
         14    1    1    2    0    0  0.20107257997E-01 -0.84401658419E-02 -0.55667430461E-02  0.22506151420E-01  0.00000000000E+00 0.  1.
     999901    1    3    3    0    0 -0.12184352935E+00  0.78513968468E-01 -0.26365615580E-01  0.89224740659E+00  0.88000000000E+00 0. -1.
        -11    1    4    4    0    0  0.97118739240E-02 -0.46278507358E-03  0.34001362633E-02  0.10312939094E-01  0.51100000000E-03 0.  1.
         11    1    4    4    0    0  0.92024397424E-01 -0.69611017552E-01  0.28532222363E-01  0.11886350289E+00  0.51100000000E-03 0. -1.
</event>
<event>
 8    1  0.1150307E+005  0.1043930E+01  0.7957747E-01            NaN
         13   -1    0    0    0    0  0.00000000000E+00  0.00000000000E+00  0.74505805969E-08  0.10566000000E+00  0.10566000000E+00 0. -1.
     999900   -1    0    0    0    0 -0.00000000000E+00 -0.00000000000E+00 -0.74505805969E-08  0.93827000000E+00  0.93827000000E+00 0.  1.
     999902    2    1    2    0    0 -0.11952952624E-01 -0.16088157204E-01 -0.12777659446E-01  0.10201608927E+01  0.10198839525E+01 0.  0.
     999903    2    3    3    0    0  0.10327819844E+00 -0.34765314877E-03 -0.76811104482E-01  0.13020231858E+00  0.19651739283E-01 0.  0.
         14    1    1    2    0    0  0.11952952624E-01  0.16088157204E-01  0.12777659446E-01  0.23769107253E-01  0.00000000000E+00 0. -1.
     999901    1    3    3    0    0 -0.11523115107E+00 -0.15740504056E-01  0.64033445035E-01  0.88995857416E+00  0.88000000000E+00 0.  1.
        -11    1    4    4    0    0  0.44450069887E-01 -0.84264915651E-02 -0.26952035314E-01  0.52663913656E-01  0.51100000000E-03 0. -1.
         11    1    4    4    0    0  0.58828128554E-01  0.80788384163E-02 -0.49859069168E-01  0.77538404927E-01  0.51100000000E-03 0.  1.
</event>
<event>
 8    1  0.1150307E+005  0.1043930E+01  0.7957747E-01            NaN
         13   -1    0    0    0    0  0.00000000000E+00  0.00000000000E+00  0.74505805969E-08  0.10566000000E+00  0.10566000000E+00 0. -1.
     999900   -1    0    0    0    0 -0.00000000000E+00 -0.00000000000E+00 -0.74505805969E-08  0.93827000000E+00  0.93827000000E+00 0.  1.
     999902    2    1    2    0    0  0.22923713294E-01 -0.11939203344E-02 -0.59938584504E-02  0.10202055734E+01  0.10199296856E+01 0.  0.
     999903    2    3    3    0    0  0.11155116214E+00  0.46204531012E-01  0.51151858477E-01  0.13264314135E+00  0.19979235726E-01 0.  0.
         14    1    1    2    0    0 -0.22923713294E-01  0.11939203344E-02  0.59938584504E-02  0.23724426570E-01  0.00000000000E+00 0. -1.
     999901    1    3    3    0    0 -0.88627448847E-01 -0.47398451346E-01 -0.57145716928E-01  0.88756243208E+00  0.88000000000E+00 0.  1.
        -11    1    4    4    0    0  0.22213972593E-01  0.14412928240E-01  0.41537416062E-02  0.26808725616E-01  0.51100000000E-03 0. -1.
         11    1    4    4    0    0  0.89337189547E-01  0.31791602772E-01  0.46998116871E-01  0.10583441573E+00  0.51100000000E-03 0.  1.
</event>
<event>
 7    1  0.1150307E+005  0.1043930E+01  0.7957747E-01            NaN
         13   -1    0    0    0    0  0.00000000000E+00  0.00000000000E+00  0.74505805969E-08  0.10566000000E+00  0.10566000000E+00 0.  1.
     999900   -1    0    0    0    0 -0.00000000000E+00 -0.00000000000E+00 -0.74505805969E-08  0.93827000000E+00  0.93827000000E+00 0.  1.
     999903    2    1    2    0    0  0.11166021769E+00 -0.38245397843E-01 -0.36542790044E-02  0.12032239817E+00  0.23095693895E-01 0.  0.
         14    1    1    2    0    0 -0.38184109303E-01  0.10484845967E-01 -0.60435786386E-02  0.40055998813E-01  0.00000000000E+00 0. -1.
     999901    1    1    2    0    0 -0.73476108387E-01  0.27760551876E-01  0.96978576430E-02  0.88355160301E+00  0.88000000000E+00 0. -1.
        -11    1    3    3    0    0  0.22260910020E-02 -0.43336045121E-02  0.26695425964E-02  0.55788159937E-02  0.51100000000E-03 0.  1.
         11    1    3    3    0    0  0.10943412669E+00 -0.33911793331E-01 -0.63238216008E-02  0.11474358218E+00  0.51100000000E-03 0. -1.
</event>
<event>
 8    1  0.1150307E+005  0.1043930E+01  0.7957747E-01            NaN
         13   -1    0    0    0    0  0.00000000000E+00  0.00000000000E+00  0.74505805969E-08  0.10566000000E+00  0.10566000000E+00 0.  1.
     999900   -1    0    0    0    0 -0.00000000000E+00 -0.00000000000E+00 -0.74505805969E-08  0.93827000000E+00  0.93827000000E+00 0. -1.
     999902    2    1    2    0    0 -0.92746990103E-02 -0.74592187722E-02  0.20724770998E-01  0.10200307088E+01  0.10197506905E+01 0.  0.
     999903    2    3    3    0    0 -0.48146165180E-01  0.11770862685E+00 -0.14571213587E-01  0.12962417975E+00  0.20414055325E-01 0.  0.
         14    1    1    2    0    0  0.92746990103E-02  0.74592187722E-02 -0.20724770998E-01  0.23899291189E-01  0.00000000000E+00 0. -1.
     999901    1    3    3    0    0  0.38871466169E-01 -0.12516784562E+00  0.35295984585E-01  0.89040652906E+00  0.88000000000E+00 0. -1.
        -11    1    4    4    0    0 -0.23476404474E-01  0.65704209172E-01 -0.17678351694E-01  0.71978954630E-01  0.51100000000E-03 0.  1.
         11    1    4    4    0    0 -0.24669760706E-01  0.52004417679E-01  0.31071381076E-02  0.57645225124E-01  0.51100000000E-03 0. -1.
</event>
<event>
 8    1  0.1150307E+005  0.1043930E+01  0.7957747E-01            NaN
         13   -1    0    0    0    0  0.00000000000E+00  0.00000000000E+00  0.74505805969E-08  0.10566000000E+00  0.10566000000E+00 0.  1.
     999900   -1    0    0    0    0 -0.00000000000E+00 -0.00000000000E+00 -0.74505805969E-08  0.93827000000E+00  0.93827000000E+00 0. -1.
     999902    2    1    2    0    0  0.97319641017E-02  0.27402664791E-02  0.21906800039E-01  0.10198026696E+01  0.10195172175E+01 0.  0.
     999903    2    3    3    0    0 -0.28288530931E-01 -0.10990100227E+00  0.61905887584E-01  0.13090810863E+00  0.20642739765E-01 0.  0.
         14    1    1    2    0    0 -0.97319641017E-02 -0.27402664791E-02 -0.21906800039E-01  0.24127330429E-01  0.00000000000E+00 0. -1.
     999901    1    3    3    0    0  0.38020495033E-01  0.11264126875E+00 -0.39999087544E-01  0.88889456094E+00  0.88000000000E+00 0. -1.
        -11    1    4    4    0    0 -0.17924077009E-01 -0.90250079135E-01  0.56709910677E-01  0.10808618973E+00  0.51100000000E-03 0. -1.
         11    1    4    4    0    0 -0.10364453922E-01 -0.19650923136E-01  0.51959769063E-02  0.22821918898E-01  0.51100000000E-03 0.  1.
</event>
<event>
 8    1  0.1150307E+005  0.1043930E+01  0.7957747E-01            NaN
         13   -1    0    0    0    0  0.00000000000E+00  0.00000000000E+00  0.74505805969E-08  0.10566000000E+00  0.10566000000E+00 0.  1.
     999900   -1    0    0    0    0 -0.00000000000E+00 -0.00000000000E+00 -0.74505805969E-08  0.93827000000E+00  0.93827000000E+00 0. -1.
     999902    2    1    2    0    0 -0.14665755188E-01 -0.17392323284E-01 -0.38120558627E-02  0.10208625109E+01  0.10206018602E+01 0.  0.
     999903    2    3    3    0    0  0.84205900847E-01 -0.97186823114E-01  0.18508363527E-01  0.13145767185E+00  0.20066081903E-01 0.  0.
         14    1    1    2    0    0  0.14665755188E-01  0.17392323284E-01  0.38120558627E-02  0.23067489121E-01  0.00000000000E+00 0.  1.
     999901    1    3    3    0    0 -0.98871656034E-01  0.79794499830E-01 -0.22320419390E-01  0.88940483903E+00  0.88000000000E+00 0.  1.
        -11    1    4    4    0    0  0.35955022261E-01 -0.41708562417E-01 -0.20599042209E-02  0.55107822776E-01  0.51100000000E-03 0. -1.
         11    1    4    4    0    0  0.48250878586E-01 -0.55478260696E-01  0.20568267748E-01  0.76349849073E-01  0.51100000000E-03 0.  1.
</event>
<event>
 7    1  0.1150307E+005  0.1043930E+01  0.7957747E-01            NaN
         13   -1    0    0    0    0  0.00000000000E+00  0.00000000000E+00  0.74505805969E-08  0.10566000000E+00  0.10566000000E+00 0.  1.
     999900   -1    0    0    0    0 -0.00000000000E+00 -0.00000000000E+00 -0.74505805969E-08  0.93827000000E+00  0.93827000000E+00 0.  1.
     999903    2    1    2    0    0 -0.60073670047E-01 -0.70430268400E-01  0.68590926966E-01  0.11708955305E+00  0.20880125267E-01 0.  0.
         14    1    1    2    0    0  0.14558990681E-01  0.17933063307E-01  0.30827048013E-01  0.38520979458E-01  0.00000000000E+00 0.  1.
     999901    1    1    2    0    0  0.45514679366E-01  0.52497205092E-01 -0.99417974978E-01  0.88831946749E+00  0.88000000000E+00 0.  1.
        -11    1    3    3    0    0 -0.38756745759E-01 -0.29447017071E-01  0.36400778799E-01  0.60782316297E-01  0.51100000000E-03 0. -1.
         11    1    3    3    0    0 -0.21316924288E-01 -0.40983251329E-01  0.32190148166E-01  0.56307236751E-01  0.51100000000E-03 0.  1.
</event>
<event>
 8    1  0.1150307E+005  0.1043930E+01  0.7957747E-01            NaN
         13   -1    0    0    0    0  0.00000000000E+00  0.00000000000E+00  0.74505805969E-08  0.10566000000E+00  0.10566000000E+00 0.  1.
     999900   -1    0    0    0    0 -0.00000000000E+00 -0.00000000000E+00 -0.74505805969E-08  0.93827000000E+00  0.93827000000E+00 0. -1.
     999902    2    1    2    0    0 -0.29420212302E-03  0.17352381470E-01  0.16583386541E-01  0.10199258252E+01  0.10196433144E+01 0.  0.
     999903    2    3    3    0    0 -0.95195831835E-01 -0.84369540010E-01  0.41016224453E-02  0.12890985283E+00  0.20505149808E-01 0.  0.
         14    1    1    2    0    0  0.29420212302E-03 -0.17352381470E-01 -0.16583386541E-01  0.24004174777E-01  0.00000000000E+00 0. -1.
     999901    1    3    3    0    0  0.94901629712E-01  0.10172192148E+00  0.12481764096E-01  0.89101597240E+00  0.88000000000E+00 0.  1.
        -11    1    4    4    0    0 -0.62715562224E-01 -0.67129345622E-01  0.61731704093E-02  0.92075837995E-01  0.51100000000E-03 0. -1.
         11    1    4    4    0    0 -0.32480269611E-01 -0.17240194388E-01 -0.20715479640E-02  0.36834014830E-01  0.51100000000E-03 0.  1.
</event>
<event>
 8    1  0.1150307E+005  0.1043930E+01  0.7957747E-01            NaN
         13   -1    0    0    0    0  0.00000000000E+00  0.00000000000E+00  0.74505805969E-08  0.10566000000E+00  0.10566000000E+00 0.  1.
     999900   -1    0    0    0    0 -0.00000000000E+00 -0.00000000000E+00 -0.74505805969E-08  0.93827000000E+00  0.93827000000E+00 0.  1.
     999902    2    1    2    0    0  0.85355531936E-02 -0.23178371350E-01  0.38291115169E-02  0.10189349072E+01  0.10186282887E+01 0.  0.
     999903    2    3    3    0    0  0.63998017878E-01  0.80590673777E-01 -0.72994764500E-01  0.12778620605E+00  0.20260202867E-01 0.  0.
         14    1    1    2    0    0 -0.85355531936E-02  0.23178371350E-01 -0.38291115169E-02  0.24995092754E-01  0.00000000000E+00 0. -1.
     999901    1    3    3    0    0 -0.55462464685E-01 -0.10376904513E+00  0.76823876017E-01  0.89114870120E+00  0.88000000000E+00 0. -1.
        -11    1    4    4    0    0  0.19906104586E-01  0.14013147872E-01 -0.11139499556E-01  0.26776312002E-01  0.51100000000E-03 0.  1.
         11    1    4    4    0    0  0.44091913292E-01  0.66577525905E-01 -0.61855264944E-01  0.10100989405E+00  0.51100000000E-03 0. -1.
</event>
<event>
 8    1  0.1150307E+005  0.1043930E+01  0.7957747E-01            NaN
         13   -1    0    0    0    0  0.00000000000E+00  0.00000000000E+00  0.74505805969E-08  0.10566000000E+00  0.10566000000E+00 0.  1.
     999900   -1    0    0    0    0 -0.00000000000E+00 -0.00000000000E+00 -0.74505805969E-08  0.93827000000E+00  0.93827000000E+00 0. -1.
     999902    2    1    2    0    0 -0.58957955547E-02  0.18584369579E-02  0.21831284155E-01  0.10212403733E+01  0.10209882863E+01 0.  0.
     999903    2    3    3    0    0 -0.17565410905E-01 -0.84325475198E-01  0.99990353708E-01  0.13350579200E+00  0.20159271689E-01 0.  0.
         14    1    1    2    0    0  0.58957955547E-02 -0.18584369579E-02 -0.21831284155E-01  0.22689626726E-01  0.00000000000E+00 0. -1.
     999901    1    3    3    0    0  0.11669615350E-01  0.86183912156E-01 -0.78159069553E-01  0.88773458127E+00  0.88000000000E+00 0. -1.
        -11    1    4    4    0    0 -0.15435740170E-01 -0.29982916902E-01  0.44130414202E-01  0.55542703924E-01  0.51100000000E-03 0. -1.
         11    1    4    4    0    0 -0.21296707347E-02 -0.54342558296E-01  0.55859939506E-01  0.77963088075E-01  0.51100000000E-03 0.  1.
</event>
<event>
 8    1  0.1150307E+005  0.1043930E+01  0.7957747E-01            NaN
         13   -1    0    0    0    0  0.00000000000E+00  0.00000000000E+00  0.74505805969E-08  0.10566000000E+00  0.10566000000E+00 0. -1.
     999900   -1    0    0    0    0 -0.00000000000E+00 -0.00000000000E+00 -0.74505805969E-08  0.93827000000E+00  0.93827000000E+00 0.  1.
     999902    2    1    2    0    0 -0.11240652387E-01  0.15355556336E-01 -0.13913071031E-01  0.10203563087E+01  0.10200839562E+01 0.  0.
     999903    2    3    3    0    0  0.11589850979E+00 -0.44851892031E-01  0.25338004834E-01  0.12831934177E+00  0.19485435405E-01 0.  0.
         14    1    1    2    0    0  0.11240652387E-01 -0.15355556336E-01  0.13913071031E-01  0.23573691310E-01  0.00000000000E+00 0. -1.
     999901    1    3    3    0    0 -0.12713916218E+00  0.60207448367E-01 -0.39251075865E-01  0.89203696692E+00  0.88000000000E+00 0.  1.
        -11    1    4    4    0    0  0.81279244750E-01 -0.21722367178E-01  0.15836624875E-01  0.85610961164E-01  0.51100000000E-03 0. -1.
         11    1    4    4    0    0  0.34619265038E-01 -0.23129524853E-01  0.95013799589E-02  0.42708380604E-01  0.51100000000E-03 0.  1.
</event>
<event>
 8    1  0.1150307E+005  0.1043930E+01  0.7957747E-01            NaN
         13   -1    0    0    0    0  0.00000000000E+00  0.00000000000E+00  0.74505805969E-08  0.10566000000E+00  0.10566000000E+00 0. -1.
     999900   -1    0    0    0    0 -0.00000000000E+00 -0.00000000000E+00 -0.74505805969E-08  0.93827000000E+00  0.93827000000E+00 0.  1.
     999902    2    1    2    0    0  0.55369550957E-02 -0.69439988557E-02 -0.22171826344E-01  0.10200455516E+01  0.10197658851E+01 0.  0.
     999903    2    3    3    0    0  0.35155501435E-02 -0.12959370241E+00  0.15243564406E-02  0.13122130298E+00  0.20244008905E-01 0.  0.
         14    1    1    2    0    0 -0.55369550957E-02  0.69439988557E-02  0.22171826344E-01  0.23884448398E-01  0.00000000000E+00 0. -1.
     999901    1    3    3    0    0  0.20214049522E-02  0.12264970355E+00 -0.23696182785E-01  0.88882424862E+00  0.88000000000E+00 0. -1.
        -11    1    4    4    0    0 -0.29723921982E-02 -0.70384543606E-01  0.96385287840E-02  0.71105424913E-01  0.51100000000E-03 0.  1.
         11    1    4    4    0    0  0.64879423417E-02 -0.59209158803E-01 -0.81141723434E-02  0.60115878067E-01  0.51100000000E-03 0. -1.
</event>
<event>
 8    1  0.1150307E+005  0.1043930E+01  0.7957747E-01            NaN
         13   -1    0    0    0    0  0.00000000000E+00  0.00000000000E+00  0.74505805969E-08  0.10566000000E+00  0.10566000000E+00 0. -1.
     999900   -1    0    0    0    0 -0.00000000000E+00 -0.00000000000E+00 -0.74505805969E-08  0.93827000000E+00  0.93827000000E+00 0. -1.
     999902    2    1    2    0    0 -0.19717122809E-01 -0.55164952201E-02 -0.12292345927E-01  0.10200490783E+01  0.10197694954E+01 0.  0.
     999903    2    3    3    0    0  0.56161360076E-01 -0.13223158619E-01 -0.11541630270E+00  0.13075076658E+00  0.21116101465E-01 0.  0.
         14    1    1    2    0    0  0.19717122809E-01  0.55164952201E-02  0.12292345927E-01  0.23880921669E-01  0.00000000000E+00 0.  1.
     999901    1    3    3    0    0 -0.75878482885E-01  0.77066633986E-02  0.10312395678E+00  0.88929831175E+00  0.88000000000E+00 0. -1.
        -11    1    4    4    0    0  0.17163101127E-01 -0.14415749614E-01 -0.42230228533E-01  0.47812542289E-01  0.51100000000E-03 0.  1.
         11    1    4    4    0    0  0.38998258949E-01  0.11925909955E-02 -0.73186074172E-01  0.82938224288E-01  0.51100000000E-03 0. -1.
</event>
<event>
 8    1  0.1150307E+005  0.1043930E+01  0.7957747E-01            NaN
         13   -1    0    0    0    0  0.00000000000E+00  0.00000000000E+00  0.74505805969E-08  0.10566000000E+00  0.10566000000E+00 0. -1.
     999900   -1    0    0    0    0 -0.00000000000E+00 -0.00000000000E+00 -0.74505805969E-08  0.93827000000E+00  0.93827000000E+00 0.  1.
     999902    2    1    2    0    0  0.10005628303E-01 -0.20139188640E-01  0.80392898721E-02  0.10200484235E+01  0.10197688250E+01 0.  0.
     999903    2    3    3    0    0  0.10285340940E+00 -0.58007383579E-01  0.58086483929E-01  0.13294108368E+00  0.18857670573E-01 0.  0.
         14    1    1    2    0    0 -0.10005628303E-01  0.20139188640E-01 -0.80392898721E-02  0.23881576549E-01  0.00000000000E+00 0.  1.
     999901    1    3    3    0    0 -0.92847781098E-01  0.37868194939E-01 -0.50047194057E-01  0.88710733977E+00  0.88000000000E+00 0. -1.
        -11    1    4    4    0    0  0.71990155740E-01 -0.50052104731E-01  0.43720935797E-01  0.97977431378E-01  0.51100000000E-03 0.  1.
         11    1    4    4    0    0  0.30863253661E-01 -0.79552788480E-02  0.14365548133E-01  0.34963652302E-01  0.51100000000E-03 0. -1.
</event>
<event>
 8    1  0.1150307E+005  0.1043930E+01  0.7957747E-01            NaN
         13   -1    0    0    0    0  0.00000000000E+00  0.00000000000E+00  0.74505805969E-08  0.10566000000E+00  0.10566000000E+00 0. -1.
     999900   -1    0    0    0    0 -0.00000000000E+00 -0.00000000000E+00 -0.74505805969E-08  0.93827000000E+00  0.93827000000E+00 0.  1.
     999902    2    1    2    0    0 -0.15237512917E-02 -0.20931328459E-01  0.11103296282E-01  0.10201870954E+01  0.10199107726E+01 0.  0.
     999903    2    3    3    0    0 -0.82199954062E-01  0.50752258044E-01  0.85163148372E-01  0.13050622683E+00  0.21130292371E-01 0.  0.
         14    1    1    2    0    0  0.15237512917E-02  0.20931328459E-01 -0.11103296282E-01  0.23742904570E-01  0.00000000000E+00 0. -1.
     999901    1    3    3    0    0  0.80676202770E-01 -0.71683586503E-01 -0.74059852090E-01  0.88968086860E+00  0.88000000000E+00 0.  1.
        -11    1    4    4    0    0 -0.40965236613E-01  0.36233226693E-01  0.53651247445E-01  0.76614063988E-01  0.51100000000E-03 0.  1.
         11    1    4    4    0    0 -0.41234717448E-01  0.14519031350E-01  0.31511900927E-01  0.53892162839E-01  0.51100000000E-03 0. -1.
</event>
<event>
 8    1  0.1150307E+005  0.1043930E+01  0.7957747E-01            NaN
         13   -1    0    0    0    0  0.00000000000E+00  0.00000000000E+00  0.74505805969E-08  0.10566000000E+00  0.10566000000E+00 0. -1.
     999900   -1    0    0    0    0 -0.00000000000E+00 -0.00000000000E+00 -0.74505805969E-08  0.93827000000E+00  0.93827000000E+00 0. -1.
     999902    2    1    2    0    0 -0.20467059855E-01 -0.41266007259E-02  0.70024413092E-02  0.10219081119E+01  0.10216708010E+01 0.  0.
     999903    2    3    3    0    0 -0.35532330965E-01 -0.37152721637E-02 -0.12511813933E+00  0.13191767405E+00  0.21711152571E-01 0.  0.
         14    1    1    2    0    0  0.20467059855E-01  0.41266007259E-02 -0.70024413092E-02  0.22021888134E-01  0.00000000000E+00 0.  1.
     999901    1    3    3    0    0  0.15065271110E-01 -0.41132856211E-03  0.13212058064E+00  0.88999043782E+00  0.88000000000E+00 0.  1.
        -11    1    4    4    0    0 -0.86229774539E-04 -0.41806579488E-02 -0.32048666553E-01  0.32324348180E-01  0.51100000000E-03 0.  1.
         11    1    4    4    0    0 -0.35446101190E-01  0.46538578502E-03 -0.93069472774E-01  0.99593325866E-01  0.51100000000E-03 0. -1.
</event>
<event>
 8    1  0.1150307E+005  0.1043930E+01  0.7957747E-01            NaN
         13   -1    0    0    0    0  0.00000000000E+00  0.00000000000E+00  0.74505805969E-08  0.10566000000E+00  0.10566000000E+00 0. -1.
     999900   -1    0    0    0    0 -0.00000000000E+00 -0.00000000000E+00 -0.74505805969E-08  0.93827000000E+00  0.93827000000E+00 0.  1.
     999902    2    1    2    0    0 -0.26712573906E-01  0.48092697709E-02  0.70708393830E-02  0.10158820509E+01  0.10154947828E+01 0.  0.
     999903    2    3    3    0    0 -0.40223482039E-01  0.27880739150E-01  0.11724577867E+00  0.12860906324E+00  0.19961322847E-01 0.  0.
         14    1    1    2    0    0  0.26712573906E-01 -0.48092697709E-02 -0.70708393830E-02  0.28047949123E-01  0.00000000000E+00 0.  1.
     999901    1    3    3    0    0  0.13510908133E-01 -0.23071469379E-01 -0.11017493929E+00  0.88727298763E+00  0.88000000000E+00 0.  1.
        -11    1    4    4    0    0 -0.38166595291E-01  0.17449728170E-01  0.98157301393E-01  0.10675344935E+00  0.51100000000E-03 0. -1.
         11    1    4    4    0    0 -0.20568867475E-02  0.10431010980E-01  0.19088477276E-01  0.21855613898E-01  0.51100000000E-03 0.  1.
</event>
<event>
 8    1  0.1150307E+005  0.1043930E+01  0.7957747E-01            NaN
         13   -1    0    0    0    0  0.00000000000E+00  0.00000000000E+00  0.74505805969E-08  0.10566000000E+00  0.10566000000E+00 0.  1.
     999900   -1    0    0    0    0 -0.00000000000E+00 -0.00000000000E+00 -0.74505805969E-08  0.93827000000E+00  0.93827000000E+00 0.  1.
     999902    2    1    2    0    0 -0.77204138128E-02  0.18187027511E-01 -0.11586936212E-01  0.10210252003E+01  0.10207682547E+01 0.  0.
     999903    2    3    3    0    0 -0.23285159369E-01 -0.53701266372E-01  0.11345738353E+00  0.12914725460E+00  0.19504123573E-01 0.  0.
         14    1    1    2    0    0  0.77204138128E-02 -0.18187027511E-01  0.11586936212E-01  0.22904799713E-01  0.00000000000E+00 0.  1.
     999901    1    3    3    0    0  0.15564745557E-01  0.71888293883E-01 -0.12504431974E+00  0.89187794569E+00  0.88000000000E+00 0.  1.
        -11    1    4    4    0    0 -0.17425724610E-01 -0.29659779826E-01  0.47120175690E-01  0.58343212935E-01  0.51100000000E-03 0. -1.
         11    1    4    4    0    0 -0.58594347594E-02 -0.24041486546E-01  0.66337207841E-01  0.70804041666E-01  0.51100000000E-03 0.  1.
</event>
<event>
 8    1  0.1150307E+005  0.1043930E+01  0.7957747E-01            NaN
         13   -1    0    0    0    0  0.00000000000E+00  0.00000000000E+00  0.74505805969E-08  0.10566000000E+00  0.10566000000E+00 0.  1.
     999900   -1    0    0    0    0 -0.00000000000E+00 -0.00000000000E+00 -0.74505805969E-08  0.93827000000E+00  0.93827000000E+00 0. -1.
     999902    2    1    2    0    0  0.71939499765E-02  0.10866435710E-01  0.16644162553E-01  0.10227909251E+01  0.10225724502E+01 0.  0.
     999903    2    3    3    0    0 -0.66495241183E-01  0.62699420757E-01 -0.90861790548E-01  0.13168246637E+00  0.27047597026E-01 0.  0.
         14    1    1    2    0    0 -0.71939499765E-02 -0.10866435710E-01 -0.16644162553E-01  0.21139074918E-01  0.00000000000E+00 0. -1.
     999901    1    3    3    0    0  0.73689191159E-01 -0.51832985047E-01  0.10750595310E+00  0.89110845871E+00  0.88000000000E+00 0.  1.
        -11    1    4    4    0    0 -0.16934686025E-01  0.33947982082E-01 -0.33697563097E-01  0.50744812128E-01  0.51100000000E-03 0.  1.
         11    1    4    4    0    0 -0.49560555158E-01  0.28751438676E-01 -0.57164227450E-01  0.80937654244E-01  0.51100000000E-03 0. -1.
</event>
<event>
 8    1  0.1150307E+005  0.1043930E+01  0.7957747E-01            NaN
         13   -1    0    0    0    0  0.00000000000E+00  0.00000000000E+00  0.74505805969E-08  0.10566000000E+00  0.10566000000E+00 0. -1.
     999900   -1    0    0    0    0 -0.00000000000E+00 -0.00000000000E+00 -0.74505805969E-08  0.93827000000E+00  0.93827000000E+00 0. -1.
     999902    2    1    2    0    0  0.24823641044E-01 -0.53017963113E-03 -0.38229122035E-02  0.10188081190E+01  0.10184983429E+01 0.  0.
     999903    2    3    3    0    0  0.10891411181E+00  0.26661365812E-01 -0.67168313912E-01  0.13211582330E+00  0.19232685532E-01 0.  0.
         14    1    1    2    0    0 -0.24823641044E-01  0.53017963113E-03  0.38229122035E-02  0.25121880958E-01  0.00000000000E+00 0. -1.
     999901    1    3    3    0    0 -0.84090470768E-01 -0.27191545443E-01  0.63345401708E-01  0.88669229575E+00  0.88000000000E+00 0.  1.
        -11    1    4    4    0    0  0.31746277280E-01  0.33824738393E-02 -0.28138049157E-01  0.42559113968E-01  0.51100000000E-03 0. -1.
         11    1    4    4    0    0  0.77167834532E-01  0.23278891973E-01 -0.39030264755E-01  0.89556709328E-01  0.51100000000E-03 0.  1.
</event>
<event>
 8    1  0.1150307E+005  0.1043930E+01  0.7957747E-01            NaN
         13   -1    0    0    0    0  0.00000000000E+00  0.00000000000E+00  0.74505805969E-08  0.10566000000E+00  0.10566000000E+00 0. -1.
     999900   -1    0    0    0    0 -0.00000000000E+00 -0.00000000000E+00 -0.74505805969E-08  0.93827000000E+00  0.93827000000E+00 0. -1.
     999902    2    1    2    0    0  0.14338600194E-01  0.13245608463E-01  0.12647420257E-01  0.10206706183E+01  0.10204055626E+01 0.  0.
     999903    2    3    3    0    0 -0.39562202715E-01 -0.11791753931E+00 -0.25966891868E-01  0.12848222282E+00  0.19070609517E-01 0.  0.
         14    1    1    2    0    0 -0.14338600194E-01 -0.13245608463E-01 -0.12647420257E-01  0.23259381726E-01  0.00000000000E+00 0.  1.
     999901    1    3    3    0    0  0.53900802909E-01  0.13116314777E+00  0.38614312125E-01  0.89218839546E+00  0.88000000000E+00 0. -1.
        -11    1    4    4    0    0 -0.31172138964E-01 -0.70562131790E-01 -0.99070640804E-02  0.77776138564E-01  0.51100000000E-03 0. -1.
         11    1    4    4    0    0 -0.83900637511E-02 -0.47355407516E-01 -0.16059827787E-01  0.50706084253E-01  0.51100000000E-03 0.  1.
</event>
<event>
 8    1  0.1150307E+005  0.1043930E+01  0.7957747E-01            NaN
         13   -1    0    0    0    0  0.00000000000E+00  0.00000000000E+00  0.74505805969E-08  0.10566000000E+00  0.10566000000E+00 0.  1.
     999900   -1    0    0    0    0 -0.00000000000E+00 -0.00000000000E+00 -0.74505805969E-08  0.93827000000E+00  0.93827000000E+00 0. -1.
     999902    2    1    2    0    0  0.35453077659E-02  0.11613895652E-01  0.19914919921E-01  0.10206049959E+01  0.10203384252E+01 0.  0.
     999903    2    3    3    0    0  0.94627295543E-01  0.10231794511E-01 -0.85671826057E-01  0.12962441274E+00  0.20095071958E-01 0.  0.
         14    1    1    2    0    0 -0.35453077659E-02 -0.11613895652E-01 -0.19914919921E-01  0.23325004069E-01  0.00000000000E+00 0. -1.
     999901    1    3    3    0    0 -0.91081987777E-01  0.13821011406E-02  0.10558674598E+00  0.89098058319E+00  0.88000000000E+00 0. -1.
        -11    1    4    4    0    0  0.30682455244E-01  0.89369729300E-02 -0.39123637965E-01  0.50519330098E-01  0.51100000000E-03 0.  1.
         11    1    4    4    0    0  0.63944840299E-01  0.12948215812E-02 -0.46548188092E-01  0.79105082640E-01  0.51100000000E-03 0. -1.
</event>
<event>
 8    1  0.1150307E+005  0.1043930E+01  0.7957747E-01            NaN
         13   -1    0    0    0    0  0.00000000000E+00  0.00000000000E+00  0.74505805969E-08  0.10566000000E+00  0.10566000000E+00 0. -1.
     999900   -1    0    0    0    0 -0.00000000000E+00 -0.00000000000E+00 -0.74505805969E-08  0.93827000000E+00  0.93827000000E+00 0. -1.
     999902    2    1    2    0    0  0.68220632399E-02 -0.19393671992E-01 -0.31675717353E-02  0.10231288325E+01  0.10229173570E+01 0.  0.
     999903    2    3    3    0    0 -0.40092069115E-01 -0.95567229077E-01 -0.83993499540E-01  0.13490803941E+00  0.20119688169E-01 0.  0.
         14    1    1    2    0    0 -0.68220632399E-02  0.19393671992E-01  0.31675717353E-02  0.20801167537E-01  0.00000000000E+00 0. -1.
     999901    1    3    3    0    0  0.46914132355E-01  0.76173557085E-01  0.80825927805E-01  0.88822079306E+00  0.88000000000E+00 0.  1.
        -11    1    4    4    0    0 -0.19936572354E-01 -0.40153518871E-01 -0.48658111182E-01  0.66163773319E-01  0.51100000000E-03 0.  1.
         11    1    4    4    0    0 -0.20155496761E-01 -0.55413710206E-01 -0.35335388358E-01  0.68744266088E-01  0.51100000000E-03 0. -1.
</event>
<event>
 8    1  0.1150307E+005  0.1043930E+01  0.7957747E-01            NaN
         13   -1    0    0    0    0  0.00000000000E+00  0.00000000000E+00  0.74505805969E-08  0.10566000000E+00  0.10566000000E+00 0.  1.
     999900   -1    0    0    0    0 -0.00000000000E+00 -0.00000000000E+00 -0.74505805969E-08  0.93827000000E+00  0.93827000000E+00 0. -1.
     999902    2    1    2    0    0  0.78568051634E-02  0.17794939007E-01 -0.83280216623E-02  0.10227700098E+01  0.10225510978E+01 0.  0.
     999903    2    3    3    0    0 -0.75500582514E-01 -0.10085479168E+00  0.27268298959E-01  0.13019322836E+00  0.18294524293E-01 0.  0.
         14    1    1    2    0    0 -0.78568051634E-02 -0.17794939007E-01  0.83280216623E-02  0.21159990228E-01  0.00000000000E+00 0. -1.
     999901    1    3    3    0    0  0.83357387677E-01  0.11864973068E+00 -0.35596320621E-01  0.89257678141E+00  0.88000000000E+00 0. -1.
        -11    1    4    4    0    0 -0.35500366843E-01 -0.62362464644E-01  0.16765572846E-01  0.73693273752E-01  0.51100000000E-03 0.  1.
         11    1    4    4    0    0 -0.40000215671E-01 -0.38492327033E-01  0.10502726113E-01  0.56499954610E-01  0.51100000000E-03 0. -1.
</event>
<event>
 8    1  0.1150307E+005  0.1043930E+01  0.7957747E-01            NaN
         13   -1    0    0    0    0  0.00000000000E+00  0.00000000000E+00  0.74505805969E-08  0.10566000000E+00  0.10566000000E+00 0.  1.
     999900   -1    0    0    0    0 -0.00000000000E+00 -0.00000000000E+00 -0.74505805969E-08  0.93827000000E+00  0.93827000000E+00 0. -1.
     999902    2    1    2    0    0 -0.35187821119E-02 -0.90441220246E-03  0.23300495438E-01  0.10203479544E+01  0.10200754066E+01 0.  0.
     999903    2    3    3    0    0  0.63490960927E-01  0.11181902745E+00  0.82949813583E-02  0.13050412258E+00  0.20686282284E-01 0.  0.
         14    1    1    2    0    0  0.35187821119E-02  0.90441220246E-03 -0.23300495438E-01  0.23582045641E-01  0.00000000000E+00 0. -1.
     999901    1    3    3    0    0 -0.67009743039E-01 -0.11272343965E+00  0.15005514079E-01  0.88984383178E+00  0.88000000000E+00 0.  1.
        -11    1    4    4    0    0  0.54882552602E-01  0.92470995736E-01 -0.58808959119E-03  0.10753411832E+00  0.51100000000E-03 0. -1.
         11    1    4    4    0    0  0.86084083249E-02  0.19348031712E-01  0.88830709495E-02  0.22970004256E-01  0.51100000000E-03 0.  1.
</event>
<event>
 8    1  0.1150307E+005  0.1043930E+01  0.7957747E-01            NaN
         13   -1    0    0    0    0  0.00000000000E+00  0.00000000000E+00  0.74505805969E-08  0.10566000000E+00  0.10566000000E+00 0. -1.
     999900   -1    0    0    0    0 -0.00000000000E+00 -0.00000000000E+00 -0.74505805969E-08  0.93827000000E+00  0.93827000000E+00 0. -1.
     999902    2    1    2    0    0  0.17467715805E-02 -0.23133270685E-01  0.34253838521E-02  0.10204793566E+01  0.10202098728E+01 0.  0.
     999903    2    3    3    0    0 -0.39319758903E-01  0.11047246915E+00 -0.48016917458E-01  0.12796422278E+00  0.17860797034E-01 0.  0.
         14    1    1    2    0    0 -0.17467715805E-02  0.23133270685E-01 -0.34253838521E-02  0.23450643446E-01  0.00000000000E+00 0. -1.
     999901    1    3    3    0    0  0.41066530484E-01 -0.13360573983E+00  0.51442301310E-01  0.89251513377E+00  0.88000000000E+00 0. -1.
        -11    1    4    4    0    0 -0.95047026801E-02  0.10492286579E-01 -0.76054600387E-02  0.16078917690E-01  0.51100000000E-03 0.  1.
         11    1    4    4    0    0 -0.29815056223E-01  0.99980182570E-01 -0.40411457419E-01  0.11188530509E+00  0.51100000000E-03 0. -1.
</event>
<event>
 8    1  0.1150307E+005  0.1043930E+01  0.7957747E-01            NaN
         13   -1    0    0    0    0  0.00000000000E+00  0.00000000000E+00  0.74505805969E-08  0.10566000000E+00  0.10566000000E+00 0. -1.
     999900   -1    0    0    0    0 -0.00000000000E+00 -0.00000000000E+00 -0.74505805969E-08  0.93827000000E+00  0.93827000000E+00 0.  1.
     999902    2    1    2    0    0 -0.13937784681E-01  0.21253079927E-02  0.21470526672E-01  0.10182441617E+01  0.10179201395E+01 0.  0.
     999903    2    3    3    0    0  0.11287564258E+00  0.55240928104E-01 -0.34299433860E-02  0.12722062221E+00  0.19515413910E-01 0.  0.
         14    1    1    2    0    0  0.13937784681E-01 -0.21253079927E-02 -0.21470526672E-01  0.25685838344E-01  0.00000000000E+00 0.  1.
     999901    1    3    3    0    0 -0.12681342726E+00 -0.53115620111E-01  0.24900470058E-01  0.89102353944E+00  0.88000000000E+00 0.  1.
        -11    1    4    4    0    0  0.28677799478E-01  0.23418141105E-01  0.16508297491E-02  0.37064968307E-01  0.51100000000E-03 0. -1.
         11    1    4    4    0    0  0.84197843097E-01  0.31822786998E-01 -0.50807731351E-02  0.90155653906E-01  0.51100000000E-03 0.  1.
</event>
<event>
 8    1  0.1150307E+005  0.1043930E+01  0.7957747E-01            NaN
         13   -1    0    0    0    0  0.00000000000E+00  0.00000000000E+00  0.74505805969E-08  0.10566000000E+00  0.10566000000E+00 0.  1.
     999900   -1    0    0    0    0 -0.00000000000E+00 -0.00000000000E+00 -0.74505805969E-08  0.93827000000E+00  0.93827000000E+00 0.  1.
     999902    2    1    2    0    0 -0.91269344672E-02  0.26223793749E-02 -0.20372082186E-01  0.10214533557E+01  0.10212060313E+01 0.  0.
     999903    2    3    3    0    0  0.15169094310E-01  0.11265051221E+00 -0.66507651950E-01  0.13307000499E+00  0.19081905983E-01 0.  0.
         14    1    1    2    0    0  0.91269344672E-02 -0.26223793749E-02  0.20372082186E-01  0.22476644299E-01  0.00000000000E+00 0.  1.
     999901    1    3    3    0    0 -0.24296028778E-01 -0.11002813283E+00  0.46135569764E-01  0.88838335071E+00  0.88000000000E+00 0. -1.
        -11    1    4    4    0    0  0.18833420138E-02  0.49313866003E-01 -0.38310750471E-01  0.62477028418E-01  0.51100000000E-03 0.  1.
         11    1    4    4    0    0  0.13285752297E-01  0.63336646206E-01 -0.28196901479E-01  0.70592976568E-01  0.51100000000E-03 0. -1.
</event>
<event>
 8    1  0.1150307E+005  0.1043930E+01  0.7957747E-01            NaN
         13   -1    0    0    0    0  0.00000000000E+00  0.00000000000E+00  0.74505805969E-08  0.10566000000E+00  0.10566000000E+00 0. -1.
     999900   -1    0    0    0    0 -0.00000000000E+00 -0.00000000000E+00 -0.74505805969E-08  0.93827000000E+00  0.93827000000E+00 0. -1.
     999902    2    1    2    0    0  0.12241200101E-01  0.15093926998E-02  0.20819023917E-01  0.10197317149E+01  0.10194445612E+01 0.  0.
     999903    2    3    3    0    0 -0.12131580745E+00 -0.37358680902E-01  0.76361298491E-02  0.12870871287E+00  0.19860163977E-01 0.  0.
         14    1    1    2    0    0 -0.12241200101E-01 -0.15093926998E-02 -0.20819023917E-01  0.24198285127E-01  0.00000000000E+00 0.  1.
     999901    1    3    3    0    0  0.13355700755E+00  0.38868073602E-01  0.13182894068E-01  0.89102300201E+00  0.88000000000E+00 0. -1.
        -11    1    4    4    0    0 -0.27358194174E-01 -0.12337554007E-02 -0.26579354237E-02  0.27519423732E-01  0.51100000000E-03 0. -1.
         11    1    4    4    0    0 -0.93957613273E-01 -0.36124925501E-01  0.10294065273E-01  0.10118928913E+00  0.51100000000E-03 0.  1.
</event>
<event>
 8    1  0.1150307E+005  0.1043930E+01  0.7957747E-01            NaN
         13   -1    0    0    0    0  0.00000000000E+00  0.00000000000E+00  0.74505805969E-08  0.10566000000E+00  0.10566000000E+00 0. -1.
     999900   -1    0    0    0    0 -0.00000000000E+00 -0.00000000000E+00 -0.74505805969E-08  0.93827000000E+00  0.93827000000E+00 0.  1.
     999902    2    1    2    0    0 -0.12985641692E-01  0.17913894647E-01  0.13773133567E-01  0.10178678873E+01  0.10175341774E+01 0.  0.
     999903    2    3    3    0    0  0.10188413535E+00 -0.69685353488E-01  0.16443688722E-01  0.12608550024E+00  0.19766966008E-01 0.  0.
         14    1    1    2    0    0  0.12985641692E-01 -0.17913894647E-01 -0.13773133567E-01  0.26062112727E-01  0.00000000000E+00 0.  1.
     999901    1    3    3    0    0 -0.11486977705E+00  0.87599248135E-01 -0.26705551547E-02  0.89178238703E+00  0.88000000000E+00 0.  1.
        -11    1    4    4    0    0  0.81439486928E-01 -0.50528087162E-01  0.54929045724E-02  0.95999535129E-01  0.51100000000E-03 0. -1.
         11    1    4    4    0    0  0.20444648425E-01 -0.19157266326E-01  0.10950784149E-01  0.30085965113E-01  0.51100000000E-03 0.  1.
</event>
<event>
 8    1  0.1150307E+005  0.1043930E+01  0.7957747E-01            NaN
         13   -1    0    0    0    0  0.00000000000E+00  0.00000000000E+00  0.74505805969E-08  0.10566000000E+00  0.10566000000E+00 0.  1.
     999900   -1    0    0    0    0 -0.00000000000E+00 -0.00000000000E+00 -0.74505805969E-08  0.93827000000E+00  0.93827000000E+00 0. -1.
     999902    2    1    2    0    0 -0.19629102653E-01 -0.12318172825E-01  0.51389764054E-02  0.10201929376E+01  0.10199167524E+01 0.  0.
     999903    2    3    3    0    0 -0.13101845106E+00 -0.80513706123E-02  0.10097682948E-01  0.13314706432E+00  0.19887645619E-01 0.  0.
         14    1    1    2    0    0  0.19629102653E-01  0.12318172825E-01 -0.51389764054E-02  0.23737062396E-01  0.00000000000E+00 0.  1.
     999901    1    3    3    0    0  0.11138934841E+00 -0.42668022130E-02 -0.49587065430E-02  0.88704587328E+00  0.88000000000E+00 0. -1.
        -11    1    4    4    0    0 -0.88288213206E-01  0.77517244739E-03 -0.28476228980E-03  0.88293554091E-01  0.51100000000E-03 0. -1.
         11    1    4    4    0    0 -0.42730237857E-01 -0.88265430597E-02  0.10382445238E-01  0.44853510229E-01  0.51100000000E-03 0.  1.
</event>
<event>
 8    1  0.1150307E+005  0.1043930E+01  0.7957747E-01            NaN
         13   -1    0    0    0    0  0.00000000000E+00  0.00000000000E+00  0.74505805969E-08  0.10566000000E+00  0.10566000000E+00 0.  1.
     999900   -1    0    0    0    0 -0.00000000000E+00 -0.00000000000E+00 -0.74505805969E-08  0.93827000000E+00  0.93827000000E+00 0. -1.
     999902    2    1    2    0    0 -0.18945302910E-01  0.10656805238E-01  0.77281957941E-02  0.10208601710E+01  0.10205994668E+01 0.  0.
     999903    2    3    3    0    0  0.55571218384E-01  0.97484571054E-01 -0.63529062550E-01  0.13059651919E+00  0.20690749832E-01 0.  0.
         14    1    1    2    0    0  0.18945302910E-01 -0.10656805238E-01 -0.77281957941E-02  0.23069829008E-01  0.00000000000E+00 0. -1.
     999901    1    3    3    0    0 -0.74516521293E-01 -0.86827765816E-01  0.71257258344E-01  0.89026365181E+00  0.88000000000E+00 0.  1.
        -11    1    4    4    0    0  0.62885346577E-02  0.25621208292E-01 -0.93884057405E-02  0.28007057429E-01  0.51100000000E-03 0.  1.
         11    1    4    4    0    0  0.49282683726E-01  0.71863362762E-01 -0.54140656809E-01  0.10258946176E+00  0.51100000000E-03 0. -1.
</event>
<event>
 8    1  0.1150307E+005  0.1043930E+01  0.7957747E-01            NaN
         13   -1    0    0    0    0  0.00000000000E+00  0.00000000000E+00  0.74505805969E-08  0.10566000000E+00  0.10566000000E+00 0.  1.
     999900   -1    0    0    0    0 -0.00000000000E+00 -0.00000000000E+00 -0.74505805969E-08  0.93827000000E+00  0.93827000000E+00 0.  1.
     999902    2    1    2    0    0  0.23636836951E-01  0.56704343917E-02  0.79633483946E-03  0.10196094729E+01  0.10193193755E+01 0.  0.
     999903    2    3    3    0    0 -0.61614858087E-01 -0.19444798609E-01 -0.10912079606E+00  0.12832926891E+00  0.19661185003E-01 0.  0.
         14    1    1    2    0    0 -0.23636836951E-01 -0.56704343917E-02 -0.79633483946E-03  0.24320527059E-01  0.00000000000E+00 0. -1.
     999901    1    3    3    0    0  0.85251695038E-01  0.25115233001E-01  0.10991713090E+00  0.89128020403E+00  0.88000000000E+00 0.  1.
        -11    1    4    4    0    0 -0.40844956083E-01 -0.18959662040E-01 -0.60225076766E-01  0.75200400362E-01  0.51100000000E-03 0. -1.
         11    1    4    4    0    0 -0.20769902003E-01 -0.48513656982E-03 -0.48895719295E-01  0.53128868547E-01  0.51100000000E-03 0.  1.
</event>
<event>
 8    1  0.1150307E+005  0.1043930E+01  0.7957747E-01            NaN
         13   -1    0    0    0    0  0.00000000000E+00  0.00000000000E+00  0.74505805969E-08  0.10566000000E+00  0.10566000000E+00 0.  1.
     999900   -1    0    0    0    0 -0.00000000000E+00 -0.00000000000E+00 -0.74505805969E-08  0.93827000000E+00  0.93827000000E+00 0. -1.
     999902    2    1    2    0    0 -0.13171381484E-01 -0.41029778595E-02 -0.18902764660E-01  0.10205284140E+01  0.10202600695E+01 0.  0.
     999903    2    3    3    0    0  0.39659684015E-01 -0.47736082159E-01  0.11060218785E+00  0.12841491109E+00  0.20147490127E-01 0.  0.
         14    1    1    2    0    0  0.13171381484E-01  0.41029778595E-02  0.18902764660E-01  0.23401586042E-01  0.00000000000E+00 0.  1.
     999901    1    3    3    0    0 -0.52831065498E-01  0.43633104299E-01 -0.12950495251E+00  0.89211350287E+00  0.88000000000E+00 0. -1.
        -11    1    4    4    0    0  0.17391842039E-01 -0.87322520695E-02  0.43623190559E-01  0.47769993419E-01  0.51100000000E-03 0. -1.
         11    1    4    4    0    0  0.22267841975E-01 -0.39003830089E-01  0.66978997287E-01  0.80644917673E-01  0.51100000000E-03 0.  1.
</event>
<event>
 8    1  0.1150307E+005  0.1043930E+01  0.7957747E-01            NaN
         13   -1    0    0    0    0  0.00000000000E+00  0.00000000000E+00  0.74505805969E-08  0.10566000000E+00  0.10566000000E+00 0. -1.
     999900   -1    0    0    0    0 -0.00000000000E+00 -0.00000000000E+00 -0.74505805969E-08  0.93827000000E+00  0.93827000000E+00 0. -1.
     999902    2    1    2    0    0 -0.10266408669E-01  0.17806144812E-01  0.11418377818E-01  0.10204175077E+01  0.10201465840E+01 0.  0.
     999903    2    3    3    0    0  0.65581368209E-01 -0.42460179706E-01 -0.99574212504E-01  0.12817075363E+00  0.20222155493E-01 0.  0.
         14    1    1    2    0    0  0.10266408669E-01 -0.17806144812E-01 -0.11418377818E-01  0.23512492255E-01  0.00000000000E+00 0.  1.
     999901    1    3    3    0    0 -0.75847776878E-01  0.60266324518E-01  0.11099259032E+00  0.89224675412E+00  0.88000000000E+00 0.  1.
        -11    1    4    4    0    0  0.29464095155E-01 -0.83883564130E-02 -0.44364826774E-01  0.53916568903E-01  0.51100000000E-03 0. -1.
         11    1    4    4    0    0  0.36117273054E-01 -0.34071823293E-01 -0.55209385730E-01  0.74254184724E-01  0.51100000000E-03 0.  1.
</event>
<event>
 8    1  0.1150307E+005  0.1043930E+01  0.7957747E-01            NaN
         13   -1    0    0    0    0  0.00000000000E+00  0.00000000000E+00  0.74505805969E-08  0.10566000000E+00  0.10566000000E+00 0.  1.
     999900   -1    0    0    0    0 -0.00000000000E+00 -0.00000000000E+00 -0.74505805969E-08  0.93827000000E+00  0.93827000000E+00 0. -1.
     999902    2    1    2    0    0 -0.11496075647E-01 -0.11368568297E-01  0.16533271384E-01  0.10208052694E+01  0.10205433087E+01 0.  0.
     999903    2    3    3    0    0  0.11798014916E+00 -0.50011133518E-01  0.16101820878E-01  0.13049210725E+00  0.18667949718E-01 0.  0.
         14    1    1    2    0    0  0.11496075647E-01  0.11368568297E-01 -0.16533271384E-01  0.23124730551E-01  0.00000000000E+00 0. -1.
     999901    1    3    3    0    0 -0.12947622481E+00  0.38642565221E-01  0.43145050545E-03  0.89031316220E+00  0.88000000000E+00 0. -1.
        -11    1    4    4    0    0  0.88365508630E-01 -0.32024235987E-01  0.18354391376E-01  0.95766171531E-01  0.51100000000E-03 0. -1.
         11    1    4    4    0    0  0.29614640532E-01 -0.17986897531E-01 -0.22525704974E-02  0.34725935718E-01  0.51100000000E-03 0.  1.
</event>
<event>
 8    1  0.1150307E+005  0.1043930E+01  0.7957747E-01            NaN
         13   -1    0    0    0    0  0.00000000000E+00  0.00000000000E+00  0.74505805969E-08  0.10566000000E+00  0.10566000000E+00 0.  1.
     999900   -1    0    0    0    0 -0.00000000000E+00 -0.00000000000E+00 -0.74505805969E-08  0.93827000000E+00  0.93827000000E+00 0. -1.
     999902    2    1    2    0    0  0.49186273023E-02  0.12417088633E-01  0.19150643098E-01  0.10205821068E+01  0.10203150066E+01 0.  0.
     999903    2    3    3    0    0 -0.54288007104E-01 -0.73974238233E-01  0.91920151951E-01  0.13138905223E+00  0.19859332177E-01 0.  0.
         14    1    1    2    0    0 -0.49186273023E-02 -0.12417088633E-01 -0.19150643098E-01  0.23347893175E-01  0.00000000000E+00 0.  1.
     999901    1    3    3    0    0  0.59206634406E-01  0.86391326866E-01 -0.72769508853E-01  0.88919305459E+00  0.88000000000E+00 0. -1.
        -11    1    4    4    0    0 -0.89981960811E-02 -0.12603510879E-01  0.27436961257E-01  0.31509744258E-01  0.51100000000E-03 0. -1.
         11    1    4    4    0    0 -0.45289811023E-01 -0.61370727354E-01  0.64483190694E-01  0.99879307975E-01  0.51100000000E-03 0.  1.
</event>
<event>
 8    1  0.1150307E+005  0.1043930E+01  0.7957747E-01            NaN
         13   -1    0    0    0    0  0.00000000000E+00  0.00000000000E+00  0.74505805969E-08  0.10566000000E+00  0.10566000000E+00 0. -1.
     999900   -1    0    0    0    0 -0.00000000000E+00 -0.00000000000E+00 -0.74505805969E-08  0.93827000000E+00  0.93827000000E+00 0.  1.
     999902    2    1    2    0    0  0.78670603689E-02  0.20897251853E-01 -0.87474555418E-02  0.10199486791E+01  0.10196667123E+01 0.  0.
     999903    2    3    3    0    0 -0.43672824254E-01  0.14622131530E-01 -0.12130765275E+00  0.13126114411E+00  0.19819662712E-01 0.  0.
         14    1    1    2    0    0 -0.78670603689E-02 -0.20897251853E-01  0.87474555418E-02  0.23981320904E-01  0.00000000000E+00 0. -1.
     999901    1    3    3    0    0  0.51539884623E-01  0.62751203229E-02  0.11256019720E+00  0.88868753498E+00  0.88000000000E+00 0. -1.
        -11    1    4    4    0    0 -0.16728634166E-01  0.42338204969E-02 -0.72687819961E-01  0.74709790047E-01  0.51100000000E-03 0.  1.
         11    1    4    4    0    0 -0.26944190088E-01  0.10388311033E-01 -0.48619832784E-01  0.56551354065E-01  0.51100000000E-03 0. -1.
</event>
<event>
 8    1  0.1150307E+005  0.1043930E+01  0.7957747E-01            NaN
         13   -1    0    0    0    0  0.00000000000E+00  0.00000000000E+00  0.74505805969E-08  0.10566000000E+00  0.10566000000E+00 0.  1.
     999900   -1    0    0    0    0 -0.00000000000E+00 -0.00000000000E+00 -0.74505805969E-08  0.93827000000E+00  0.93827000000E+00 0. -1.
     999902    2    1    2    0    0  0.91195450965E-02 -0.19564695567E-01  0.99214406270E-02  0.10201733504E+01  0.10198967038E+01 0.  0.
     999903    2    3    3    0    0  0.75411967973E-01  0.10250258349E+00 -0.80595524390E-02  0.12909623700E+00  0.20177648177E-01 0.  0.
         14    1    1    2    0    0 -0.91195450965E-02  0.19564695567E-01 -0.99214406270E-02  0.23756649585E-01  0.00000000000E+00 0. -1.
     999901    1    3    3    0    0 -0.66292422877E-01 -0.12206727905E+00  0.17980993066E-01  0.89107711342E+00  0.88000000000E+00 0.  1.
        -11    1    4    4    0    0  0.42748564609E-01  0.70377193464E-01  0.11974527278E-02  0.82353410070E-01  0.51100000000E-03 0.  1.
         11    1    4    4    0    0  0.32663403364E-01  0.32125390023E-01 -0.92570051668E-02  0.46742826927E-01  0.51100000000E-03 0. -1.
</event>
<event>
 8    1  0.1150307E+005  0.1043930E+01  0.7957747E-01            NaN
         13   -1    0    0    0    0  0.00000000000E+00  0.00000000000E+00  0.74505805969E-08  0.10566000000E+00  0.10566000000E+00 0. -1.
     999900   -1    0    0    0    0 -0.00000000000E+00 -0.00000000000E+00 -0.74505805969E-08  0.93827000000E+00  0.93827000000E+00 0.  1.
     999902    2    1    2    0    0 -0.45763608229E-02 -0.19943632662E-01 -0.12400241228E-01  0.10200039150E+01  0.10197232610E+01 0.  0.
     999903    2    3    3    0    0 -0.78944773337E-01  0.96479275015E-01  0.24255437246E-01  0.12847231544E+00  0.19397985793E-01 0.  0.
         14    1    1    2    0    0  0.45763608229E-02  0.19943632662E-01  0.12400241228E-01  0.23926085025E-01  0.00000000000E+00 0. -1.
     999901    1    3    3    0    0  0.74368412514E-01 -0.11642290768E+00 -0.36655678474E-01  0.89153159954E+00  0.88000000000E+00 0.  1.
        -11    1    4    4    0    0 -0.63950906675E-01  0.87017301951E-01  0.24493568800E-01  0.11073357818E+00  0.51100000000E-03 0. -1.
         11    1    4    4    0    0 -0.14993866662E-01  0.94619730643E-02 -0.23813155379E-03  0.17738737254E-01  0.51100000000E-03 0.  1.
</event>
<event>
 8    1  0.1150307E+005  0.1043930E+01  0.7957747E-01            NaN
         13   -1    0    0    0    0  0.00000000000E+00  0.00000000000E+00  0.74505805969E-08  0.10566000000E+00  0.10566000000E+00 0. -1.
     999900   -1    0    0    0    0 -0.00000000000E+00 -0.00000000000E+00 -0.74505805969E-08  0.93827000000E+00  0.93827000000E+00 0.  1.
     999902    2    1    2    0    0  0.86405957859E-02  0.24456392422E-03 -0.22749309436E-01  0.10195937968E+01  0.10193033207E+01 0.  0.
     999903    2    3    3    0    0  0.25228200153E-01  0.12602151516E+00 -0.11644522227E-01  0.13042659857E+00  0.18910799859E-01 0.  0.
         14    1    1    2    0    0 -0.86405957859E-02 -0.24456392422E-03  0.22749309436E-01  0.24336203214E-01  0.00000000000E+00 0. -1.
     999901    1    3    3    0    0 -0.16587604367E-01 -0.12577695123E+00 -0.11104787209E-01  0.88916719821E+00  0.88000000000E+00 0. -1.
        -11    1    4    4    0    0  0.12732257661E-01  0.98722759667E-01 -0.12894451605E-01  0.10037341114E+00  0.51100000000E-03 0. -1.
         11    1    4    4    0    0  0.12495942492E-01  0.27298755492E-01  0.12499293780E-02  0.30053187429E-01  0.51100000000E-03 0.  1.
</event>
<event>
 8    1  0.1150307E+005  0.1043930E+01  0.7957747E-01            NaN
         13   -1    0    0    0    0  0.00000000000E+00  0.00000000000E+00  0.74505805969E-08  0.10566000000E+00  0.10566000000E+00 0.  1.
     999900   -1    0    0    0    0 -0.00000000000E+00 -0.00000000000E+00 -0.74505805969E-08  0.93827000000E+00  0.93827000000E+00 0. -1.
     999902    2    1    2    0    0 -0.40665644345E-02 -0.17331058310E-01 -0.13656600186E-01  0.10214933056E+01  0.10212468693E+01 0.  0.
     999903    2    3    3    0    0 -0.88146504220E-02 -0.87797019425E-01  0.96239682421E-01  0.13185001248E+00  0.18339428499E-01 0.  0.
         14    1    1    2    0    0  0.40665644345E-02  0.17331058310E-01  0.13656600186E-01  0.22436694433E-01  0.00000000000E+00 0.  1.
     999901    1    3    3    0    0  0.47480859875E-02  0.70465961115E-01 -0.10989628261E+00  0.88964329308E+00  0.88000000000E+00 0. -1.
        -11    1    4    4    0    0 -0.13938825320E-01 -0.49782980255E-01  0.57669616496E-01  0.77451157267E-01  0.51100000000E-03 0.  1.
         11    1    4    4    0    0  0.51241748975E-02 -0.38014039171E-01  0.38570065925E-01  0.54398855217E-01  0.51100000000E-03 0. -1.
</event>
<event>
 8    1  0.1150307E+005  0.1043930E+01  0.7957747E-01            NaN
         13   -1    0    0    0    0  0.00000000000E+00  0.00000000000E+00  0.74505805969E-08  0.10566000000E+00  0.10566000000E+00 0. -1.
     999900   -1    0    0    0    0 -0.00000000000E+00 -0.00000000000E+00 -0.74505805969E-08  0.93827000000E+00  0.93827000000E+00 0. -1.
     999902    2    1    2    0    0  0.19143840041E-01 -0.10451433885E-01 -0.90057071543E-02  0.10203329272E+01  0.10200600279E+01 0.  0.
     999903    2    3    3    0    0 -0.89116114521E-01  0.48564401899E-01 -0.77237800272E-01  0.12912099668E+00  0.20158645617E-01 0.  0.
         14    1    1    2    0    0 -0.19143840041E-01  0.10451433885E-01  0.90057071543E-02  0.23597072765E-01  0.00000000000E+00 0. -1.
     999901    1    3    3    0    0  0.10825995456E+00 -0.59015835784E-01  0.68232093118E-01  0.89121193056E+00  0.88000000000E+00 0.  1.
        -11    1    4    4    0    0 -0.25664645704E-01  0.24849492269E-01 -0.26068074770E-01  0.44226428166E-01  0.51100000000E-03 0.  1.
         11    1    4    4    0    0 -0.63451468817E-01  0.23714909630E-01 -0.51169725502E-01  0.84894568512E-01  0.51100000000E-03 0. -1.
</event>
<event>
 8    1  0.1150307E+005  0.1043930E+01  0.7957747E-01            NaN
         13   -1    0    0    0    0  0.00000000000E+00  0.00000000000E+00  0.74505805969E-08  0.10566000000E+00  0.10566000000E+00 0. -1.
     999900   -1    0    0    0    0 -0.00000000000E+00 -0.00000000000E+00 -0.74505805969E-08  0.93827000000E+00  0.93827000000E+00 0.  1.
     999902    2    1    2    0    0 -0.12320120998E-01  0.13658502324E-02  0.20543367180E-01  0.10199366496E+01  0.10196543965E+01 0.  0.
     999903    2    3    3    0    0 -0.69612721903E-01 -0.14430125922E-01  0.11074042265E+00  0.13333219225E+00  0.21444642586E-01 0.  0.
         14    1    1    2    0    0  0.12320120998E-01 -0.13658502324E-02 -0.20543367180E-01  0.23993350399E-01  0.00000000000E+00 0.  1.
     999901    1    3    3    0    0  0.57292600905E-01  0.15795976154E-01 -0.90197055473E-01  0.88660445735E+00  0.88000000000E+00 0.  1.
        -11    1    4    4    0    0 -0.67164173046E-01 -0.91245199120E-02  0.10586063467E+00  0.12570210061E+00  0.51100000000E-03 0.  1.
         11    1    4    4    0    0 -0.24485488568E-02 -0.53056060096E-02  0.48797879865E-02  0.76300916395E-02  0.51100000000E-03 0. -1.
</event>
<event>
 8    1  0.1150307E+005  0.1043930E+01  0.7957747E-01            NaN
         13   -1    0    0    0    0  0.00000000000E+00  0.00000000000E+00  0.74505805969E-08  0.10566000000E+00  0.10566000000E+00 0.  1.
     999900   -1    0    0    0    0 -0.00000000000E+00 -0.00000000000E+00 -0.74505805969E-08  0.93827000000E+00  0.93827000000E+00 0. -1.
     999902    2    1    2    0    0  0.26220354162E-02 -0.19457592733E-01 -0.13361560689E-01  0.10201812255E+01  0.10199047645E+01 0.  0.
     999903    2    3    3    0    0 -0.35787552831E-01 -0.12590503474E+00 -0.12250373781E-01  0.13293402823E+00  0.19711861763E-01 0.  0.
         14    1    1    2    0    0 -0.26220354162E-02  0.19457592733E-01  0.13361560689E-01  0.23748774468E-01  0.00000000000E+00 0. -1.
     999901    1    3    3    0    0  0.38409588247E-01  0.10644744201E+00 -0.11111869081E-02  0.88724719730E+00  0.88000000000E+00 0. -1.
        -11    1    4    4    0    0 -0.18564121706E-01 -0.48769676728E-01 -0.13439086956E-01  0.53888571721E-01  0.51100000000E-03 0.  1.
         11    1    4    4    0    0 -0.17223431125E-01 -0.77135358011E-01  0.11887131748E-02  0.79045456512E-01  0.51100000000E-03 0. -1.
</event>
<event>
 8    1  0.1150307E+005  0.1043930E+01  0.7957747E-01            NaN
         13   -1    0    0    0    0  0.00000000000E+00  0.00000000000E+00  0.74505805969E-08  0.10566000000E+00  0.10566000000E+00 0. -1.
     999900   -1    0    0    0    0 -0.00000000000E+00 -0.00000000000E+00 -0.74505805969E-08  0.93827000000E+00  0.93827000000E+00 0. -1.
     999902    2    1    2    0    0  0.92502481620E-03  0.15427746100E-01 -0.16812485144E-01  0.10210929538E+01  0.10208375432E+01 0.  0.
     999903    2    3    3    0    0  0.89018603756E-01  0.25099171161E-01 -0.93826550618E-01  0.13329501433E+00  0.20244975600E-01 0.  0.
         14    1    1    2    0    0 -0.92502481620E-03 -0.15427746100E-01  0.16812485144E-01  0.22837046161E-01  0.00000000000E+00 0. -1.
     999901    1    3    3    0    0 -0.88093578940E-01 -0.96714250612E-02  0.77014065474E-01  0.88779793951E+00  0.88000000000E+00 0. -1.
        -11    1    4    4    0    0  0.19389251174E-01  0.96817321207E-02 -0.33408771012E-01  0.39825696472E-01  0.51100000000E-03 0.  1.
         11    1    4    4    0    0  0.69629352582E-01  0.15417439040E-01 -0.60417779606E-01  0.93469317860E-01  0.51100000000E-03 0. -1.
</event>
<event>
 8    1  0.1150307E+005  0.1043930E+01  0.7957747E-01            NaN
         13   -1    0    0    0    0  0.00000000000E+00  0.00000000000E+00  0.74505805969E-08  0.10566000000E+00  0.10566000000E+00 0.  1.
     999900   -1    0    0    0    0 -0.00000000000E+00 -0.00000000000E+00 -0.74505805969E-08  0.93827000000E+00  0.93827000000E+00 0.  1.
     999902    2    1    2    0    0 -0.76614353625E-02 -0.16814378742E-01  0.12055582318E-01  0.10218674075E+01  0.10216292089E+01 0.  0.
     999903    2    3    3    0    0  0.76403021080E-01  0.64461145372E-01 -0.79765766460E-01  0.12939684563E+00  0.19705462859E-01 0.  0.
         14    1    1    2    0    0  0.76614353625E-02  0.16814378742E-01 -0.12055582318E-01  0.22062592534E-01  0.00000000000E+00 0. -1.
     999901    1    3    3    0    0 -0.84064456443E-01 -0.81275524114E-01  0.91821348778E-01  0.89247056184E+00  0.88000000000E+00 0. -1.
        -11    1    4    4    0    0  0.43844017866E-01  0.43284363477E-01 -0.38137604663E-01  0.72460831038E-01  0.51100000000E-03 0. -1.
         11    1    4    4    0    0  0.32559003215E-01  0.21176781894E-01 -0.41628161797E-01  0.56936014589E-01  0.51100000000E-03 0.  1.
</event>
<event>
 8    1  0.1150307E+005  0.1043930E+01  0.7957747E-01            NaN
         13   -1    0    0    0    0  0.00000000000E+00  0.00000000000E+00  0.74505805969E-08  0.10566000000E+00  0.10566000000E+00 0.  1.
     999900   -1    0    0    0    0 -0.00000000000E+00 -0.00000000000E+00 -0.74505805969E-08  0.93827000000E+00  0.93827000000E+00 0.  1.
     999902    2    1    2    0    0 -0.59578465855E-02  0.23238336230E-01  0.19399635700E-02  0.10198617706E+01  0.10195777320E+01 0.  0.
     999903    2    3    3    0    0  0.26287487966E-01 -0.94542610535E-02 -0.12515291954E+00  0.12954656326E+00  0.18402274542E-01 0.  0.
         14    1    1    2    0    0  0.59578465855E-02 -0.23238336230E-01 -0.19399635700E-02  0.24068229377E-01  0.00000000000E+00 0. -1.
     999901    1    3    3    0    0 -0.32245334551E-01  0.32692597284E-01  0.12709288311E+00  0.89031520736E+00  0.88000000000E+00 0. -1.
        -11    1    4    4    0    0  0.10993544531E-02 -0.41828231195E-02 -0.48344158847E-01  0.48539915586E-01  0.51100000000E-03 0. -1.
         11    1    4    4    0    0  0.25188133513E-01 -0.52714379341E-02 -0.76808760694E-01  0.81006647678E-01  0.51100000000E-03 0.  1.
</event>
<event>
 8    1  0.1150307E+005  0.1043930E+01  0.7957747E-01            NaN
         13   -1    0    0    0    0  0.00000000000E+00  0.00000000000E+00  0.74505805969E-08  0.10566000000E+00  0.10566000000E+00 0. -1.
     999900   -1    0    0    0    0 -0.00000000000E+00 -0.00000000000E+00 -0.74505805969E-08  0.93827000000E+00  0.93827000000E+00 0. -1.
     999902    2    1    2    0    0 -0.15575653239E-02  0.22538338088E-01 -0.60442863234E-02  0.10205433352E+01  0.10202753368E+01 0.  0.
     999903    2    3    3    0    0 -0.68959400282E-01 -0.42695026562E-01 -0.10021299261E+00  0.13056235536E+00  0.20630573680E-01 0.  0.
         14    1    1    2    0    0  0.15575653239E-02 -0.22538338088E-01  0.60442863234E-02  0.23386664804E-01  0.00000000000E+00 0.  1.
     999901    1    3    3    0    0  0.67401834958E-01  0.65233364650E-01  0.94168706285E-01  0.88998097983E+00  0.88000000000E+00 0.  1.
        -11    1    4    4    0    0 -0.40211520334E-01 -0.27624720371E-01 -0.74937839242E-01  0.89420536872E-01  0.51100000000E-03 0. -1.
         11    1    4    4    0    0 -0.28747879947E-01 -0.15070306191E-01 -0.25275153366E-01  0.41141818492E-01  0.51100000000E-03 0.  1.
</event>
<event>
 8    1  0.1150307E+005  0.1043930E+01  0.7957747E-01            NaN
         13   -1    0    0    0    0  0.00000000000E+00  0.00000000000E+00  0.74505805969E-08  0.10566000000E+00  0.10566000000E+00 0.  1.
     999900   -1    0    0    0    0 -0.00000000000E+00 -0.00000000000E+00 -0.74505805969E-08  0.93827000000E+00  0.93827000000E+00 0.  1.
     999902    2    1    2    0    0  0.65752777271E-02  0.80217530879E-02 -0.23159781693E-01  0.10185536668E+01  0.10182375036E+01 0.  0.
     999903    2    3    3    0    0  0.72468304020E-01 -0.65377401389E-02  0.10206095020E+00  0.12713115110E+00  0.21248409159E-01 0.  0.
         14    1    1    2    0    0 -0.65752777271E-02 -0.80217530879E-02  0.23159781693E-01  0.25376333224E-01  0.00000000000E+00 0.  1.
     999901    1    3    3    0    0 -0.65893026293E-01  0.14559493227E-01 -0.12522073189E+00  0.89142251567E+00  0.88000000000E+00 0.  1.
        -11    1    4    4    0    0  0.28281015450E-01  0.38476868403E-02  0.53616397172E-01  0.60742075167E-01  0.51100000000E-03 0.  1.
         11    1    4    4    0    0  0.44187288570E-01 -0.10385426979E-01  0.48444553024E-01  0.66389075934E-01  0.51100000000E-03 0. -1.
</event>
<event>
 8    1  0.1150307E+005  0.1043930E+01  0.7957747E-01            NaN
         13   -1    0    0    0    0  0.00000000000E+00  0.00000000000E+00  0.74505805969E-08  0.10566000000E+00  0.10566000000E+00 0. -1.
     999900   -1    0    0    0    0 -0.00000000000E+00 -0.00000000000E+00 -0.74505805969E-08  0.93827000000E+00  0.93827000000E+00 0.  1.
     999902    2    1    2    0    0 -0.22494210228E-01  0.54024786099E-02  0.33454031619E-02  0.10205554841E+01  0.10202877674E+01 0.  0.
     999903    2    3    3    0    0 -0.85738272390E-01 -0.95958067287E-01  0.26050956677E-01  0.13219220608E+00  0.15398862768E-01 0.  0.
         14    1    1    2    0    0  0.22494210228E-01 -0.54024786099E-02 -0.33454031619E-02  0.23374515850E-01  0.00000000000E+00 0.  1.
     999901    1    3    3    0    0  0.63244062162E-01  0.10136054590E+00 -0.22705553515E-01  0.88836327807E+00  0.88000000000E+00 0. -1.
        -11    1    4    4    0    0 -0.58357835765E-01 -0.55339565432E-01  0.19613388062E-01  0.82783154142E-01  0.51100000000E-03 0.  1.
         11    1    4    4    0    0 -0.27380436624E-01 -0.40618501855E-01  0.64375686145E-02  0.49409051938E-01  0.51100000000E-03 0. -1.
</event>
<event>
 8    1  0.1150307E+005  0.1043930E+01  0.7957747E-01            NaN
         13   -1    0    0    0    0  0.00000000000E+00  0.00000000000E+00  0.74505805969E-08  0.10566000000E+00  0.10566000000E+00 0. -1.
     999900   -1    0    0    0    0 -0.00000000000E+00 -0.00000000000E+00 -0.74505805969E-08  0.93827000000E+00  0.93827000000E+00 0.  1.
     999902    2    1    2    0    0  0.17315432586E-01 -0.13024849383E-01  0.93418834404E-02  0.10203346256E+01  0.10200617660E+01 0.  0.
     999903    2    3    3    0    0  0.10342566439E+00 -0.44298902611E-01 -0.66639159376E-01  0.13232214973E+00  0.20226539998E-01 0.  0.
         14    1    1    2    0    0 -0.17315432586E-01  0.13024849383E-01 -0.93418834404E-02  0.23595374405E-01  0.00000000000E+00 0. -1.
     999901    1    3    3    0    0 -0.86110231800E-01  0.31274053228E-01  0.75981042817E-01  0.88801247587E+00  0.88000000000E+00 0. -1.
        -11    1    4    4    0    0  0.55491374507E-01 -0.12780115419E-01 -0.33215355638E-01  0.65925298376E-01  0.51100000000E-03 0. -1.
         11    1    4    4    0    0  0.47934289879E-01 -0.31518787192E-01 -0.33423803738E-01  0.66396851353E-01  0.51100000000E-03 0.  1.
</event>
<event>
 8    1  0.1150307E+005  0.1043930E+01  0.7957747E-01            NaN
         13   -1    0    0    0    0  0.00000000000E+00  0.00000000000E+00  0.74505805969E-08  0.10566000000E+00  0.10566000000E+00 0.  1.
     999900   -1    0    0    0    0 -0.00000000000E+00 -0.00000000000E+00 -0.74505805969E-08  0.93827000000E+00  0.93827000000E+00 0. -1.
     999902    2    1    2    0    0  0.56300284075E-03 -0.21244457239E-01  0.14683264277E-01  0.10180989686E+01  0.10177712256E+01 0.  0.
     999903    2    3    3    0    0 -0.76014409948E-01  0.32596231703E-01  0.97221360782E-01  0.12929333327E+00  0.20592916161E-01 0.  0.
         14    1    1    2    0    0 -0.56300284075E-03  0.21244457239E-01 -0.14683264277E-01  0.25831031443E-01  0.00000000000E+00 0. -1.
     999901    1    3    3    0    0  0.76577412789E-01 -0.53840688942E-01 -0.82538096505E-01  0.88880563528E+00  0.88000000000E+00 0. -1.
        -11    1    4    4    0    0 -0.17004485360E-01  0.16978852263E-01  0.31048552118E-01  0.39264585267E-01  0.51100000000E-03 0.  1.
         11    1    4    4    0    0 -0.59009924588E-01  0.15617379440E-01  0.66172808664E-01  0.90028748008E-01  0.51100000000E-03 0. -1.
</event>
<event>
 8    1  0.1150307E+005  0.1043930E+01  0.7957747E-01            NaN
         13   -1    0    0    0    0  0.00000000000E+00  0.00000000000E+00  0.74505805969E-08  0.10566000000E+00  0.10566000000E+00 0.  1.
     999900   -1    0    0    0    0 -0.00000000000E+00 -0.00000000000E+00 -0.74505805969E-08  0.93827000000E+00  0.93827000000E+00 0. -1.
     999902    2    1    2    0    0  0.15415086936E-01 -0.17560045884E-01  0.17950188280E-03  0.10205630931E+01  0.10202955526E+01 0.  0.
     999903    2    3    3    0    0  0.64029228626E-01 -0.58566263378E-01  0.98297428275E-01  0.13282891436E+00  0.21245864526E-01 0.  0.
         14    1    1    2    0    0 -0.15415086936E-01  0.17560045884E-01 -0.17950188280E-03  0.23366906890E-01  0.00000000000E+00 0. -1.
     999901    1    3    3    0    0 -0.48614141690E-01  0.41006217495E-01 -0.98117926392E-01  0.88773417875E+00  0.88000000000E+00 0. -1.
        -11    1    4    4    0    0  0.42303178479E-01 -0.36272081517E-01  0.77232846833E-01  0.95238629546E-01  0.51100000000E-03 0.  1.
         11    1    4    4    0    0  0.21726050148E-01 -0.22294181861E-01  0.21064581442E-01  0.37590284811E-01  0.51100000000E-03 0. -1.
</event>
<event>
 8    1  0.1150307E+005  0.1043930E+01  0.7957747E-01            NaN
         13   -1    0    0    0    0  0.00000000000E+00  0.00000000000E+00  0.74505805969E-08  0.10566000000E+00  0.10566000000E+00 0.  1.
     999900   -1    0    0    0    0 -0.00000000000E+00 -0.00000000000E+00 -0.74505805969E-08  0.93827000000E+00  0.93827000000E+00 0. -1.
     999902    2    1    2    0    0  0.15959391900E-01 -0.15670302756E-01  0.16517419121E-02  0.10215025875E+01  0.10212563574E+01 0.  0.
     999903    2    3    3    0    0  0.53459320443E-01 -0.12125809369E+00  0.69412111332E-02  0.13438196174E+00  0.21187425561E-01 0.  0.
         14    1    1    2    0    0 -0.15959391900E-01  0.15670302756E-01 -0.16517419121E-02  0.22427412459E-01  0.00000000000E+00 0. -1.
     999901    1    3    3    0    0 -0.37499928543E-01  0.10558779093E+00 -0.52894692211E-02  0.88712062580E+00  0.88000000000E+00 0. -1.
        -11    1    4    4    0    0  0.49029537410E-01 -0.91848854780E-01  0.93683861815E-02  0.10453772259E+00  0.51100000000E-03 0.  1.
         11    1    4    4    0    0  0.44297830328E-02 -0.29409238909E-01 -0.24271750483E-02  0.29844239154E-01  0.51100000000E-03 0. -1.
</event>
<event>
 8    1  0.1150307E+005  0.1043930E+01  0.7957747E-01            NaN
         13   -1    0    0    0    0  0.00000000000E+00  0.00000000000E+00  0.74505805969E-08  0.10566000000E+00  0.10566000000E+00 0. -1.
     999900   -1    0    0    0    0 -0.00000000000E+00 -0.00000000000E+00 -0.74505805969E-08  0.93827000000E+00  0.93827000000E+00 0.  1.
     999902    2    1    2    0    0 -0.11883923493E-01 -0.17604152166E-01  0.11109595967E-01  0.10199600827E+01  0.10196783873E+01 0.  0.
     999903    2    3    3    0    0 -0.12729743966E-01  0.20485978330E-01 -0.12471603423E+00  0.12872488635E+00  0.20839517367E-01 0.  0.
         14    1    1    2    0    0  0.11883923493E-01  0.17604152166E-01 -0.11109595967E-01  0.23969917263E-01  0.00000000000E+00 0.  1.
     999901    1    3    3    0    0  0.84582047216E-03 -0.38090130495E-01  0.13582563019E+00  0.89123519638E+00  0.88000000000E+00 0. -1.
        -11    1    4    4    0    0 -0.25024516108E-02 -0.16941829303E-02 -0.50468999256E-01  0.50561977085E-01  0.51100000000E-03 0.  1.
         11    1    4    4    0    0 -0.10227292355E-01  0.22180161260E-01 -0.74247034971E-01  0.78162909270E-01  0.51100000000E-03 0. -1.
</event>
<event>
 8    1  0.1150307E+005  0.1043930E+01  0.7957747E-01            NaN
         13   -1    0    0    0    0  0.00000000000E+00  0.00000000000E+00  0.74505805969E-08  0.10566000000E+00  0.10566000000E+00 0. -1.
     999900   -1    0    0    0    0 -0.00000000000E+00 -0.00000000000E+00 -0.74505805969E-08  0.93827000000E+00  0.93827000000E+00 0.  1.
     999902    2    1    2    0    0 -0.16158090210E-01 -0.12169393126E-01  0.11763817281E-01  0.10205298845E+01  0.10202615742E+01 0.  0.
     999903    2    3    3    0    0  0.70829749472E-01  0.63673211998E-01  0.85862492321E-01  0.12990673263E+00  0.20790869611E-01 0.  0.
         14    1    1    2    0    0  0.16158090210E-01  0.12169393126E-01 -0.11763817281E-01  0.23400115498E-01  0.00000000000E+00 0.  1.
     999901    1    3    3    0    0 -0.86987839681E-01 -0.75842605124E-01 -0.74098675039E-01  0.89062315187E+00  0.88000000000E+00 0.  1.
        -11    1    4    4    0    0  0.52734206424E-01  0.43874594653E-01  0.48947739198E-01  0.84273476710E-01  0.51100000000E-03 0. -1.
         11    1    4    4    0    0  0.18095543048E-01  0.19798617346E-01  0.36914753122E-01  0.45633255922E-01  0.51100000000E-03 0.  1.
</event>
<event>
 7    1  0.1150307E+005  0.1043930E+01  0.7957747E-01            NaN
         13   -1    0    0    0    0  0.00000000000E+00  0.00000000000E+00  0.74505805969E-08  0.10566000000E+00  0.10566000000E+00 0. -1.
     999900   -1    0    0    0    0 -0.00000000000E+00 -0.00000000000E+00 -0.74505805969E-08  0.93827000000E+00  0.93827000000E+00 0. -1.
     999903    2    1    2    0    0  0.19840742943E-01  0.66029848302E-01 -0.87100428671E-01  0.11269538236E+00  0.18978108021E-01 0.  0.
         14    1    1    2    0    0  0.39811374216E-01 -0.88411875770E-02 -0.10160350219E-01  0.42027905388E-01  0.00000000000E+00 0.  1.
     999901    1    1    2    0    0 -0.59652117159E-01 -0.57188660725E-01  0.97260778890E-01  0.88920671225E+00  0.88000000000E+00 0.  1.
        -11    1    3    3    0    0  0.11172925016E-01  0.18427360696E-01 -0.38440522571E-01  0.44071949947E-01  0.51100000000E-03 0.  1.
         11    1    3    3    0    0  0.86678179273E-02  0.47602487606E-01 -0.48659906100E-01  0.68623432416E-01  0.51100000000E-03 0. -1.
</event>
<event>
 8    1  0.1150307E+005  0.1043930E+01  0.7957747E-01            NaN
         13   -1    0    0    0    0  0.00000000000E+00  0.00000000000E+00  0.74505805969E-08  0.10566000000E+00  0.10566000000E+00 0. -1.
     999900   -1    0    0    0    0 -0.00000000000E+00 -0.00000000000E+00 -0.74505805969E-08  0.93827000000E+00  0.93827000000E+00 0.  1.
     999902    2    1    2    0    0 -0.13062140170E-01 -0.12335826201E-01  0.16050158845E-01  0.10198385137E+01  0.10195539193E+01 0.  0.
     999903    2    3    3    0    0  0.45623479884E-01  0.87155697580E-01  0.82481341964E-01  0.12980724042E+00  0.19212765423E-01 0.  0.
         14    1    1    2    0    0  0.13062140170E-01  0.12335826201E-01 -0.16050158845E-01  0.24091486314E-01  0.00000000000E+00 0. -1.
     999901    1    3    3    0    0 -0.58685620053E-01 -0.99491523781E-01 -0.66431183119E-01  0.89003127327E+00  0.88000000000E+00 0.  1.
        -11    1    4    4    0    0  0.44922536614E-01  0.71802332535E-01  0.67095727154E-01  0.10805418537E+00  0.51100000000E-03 0. -1.
         11    1    4    4    0    0  0.70094326969E-03  0.15353365045E-01  0.15385614810E-01  0.21753055045E-01  0.51100000000E-03 0.  1.
</event>
<event>
 8    1  0.1150307E+005  0.1043930E+01  0.7957747E-01            NaN
         13   -1    0    0    0    0  0.00000000000E+00  0.00000000000E+00  0.74505805969E-08  0.10566000000E+00  0.10566000000E+00 0. -1.
     999900   -1    0    0    0    0 -0.00000000000E+00 -0.00000000000E+00 -0.74505805969E-08  0.93827000000E+00  0.93827000000E+00 0. -1.
     999902    2    1    2    0    0 -0.20609127888E-01 -0.11752692581E-01  0.87119624447E-03  0.10201892983E+01  0.10199130274E+01 0.  0.
     999903    2    3    3    0    0 -0.36612737967E-02 -0.10178754487E+00 -0.81231719378E-01  0.13163181948E+00  0.18821117126E-01 0.  0.
         14    1    1    2    0    0  0.20609127888E-01  0.11752692581E-01 -0.87119624447E-03  0.23740701719E-01  0.00000000000E+00 0.  1.
     999901    1    3    3    0    0 -0.16947854091E-01  0.90034852286E-01  0.82102915623E-01  0.88855747880E+00  0.88000000000E+00 0. -1.
        -11    1    4    4    0    0  0.48547367751E-02 -0.71587546740E-01 -0.50785686415E-01  0.87907863033E-01  0.51100000000E-03 0. -1.
         11    1    4    4    0    0 -0.85160105718E-02 -0.30199998127E-01 -0.30446032963E-01  0.43723956444E-01  0.51100000000E-03 0.  1.
</event>
<event>
 8    1  0.1150307E+005  0.1043930E+01  0.7957747E-01            NaN
         13   -1    0    0    0    0  0.00000000000E+00  0.00000000000E+00  0.74505805969E-08  0.10566000000E+00  0.10566000000E+00 0. -1.
     999900   -1    0    0    0    0 -0.00000000000E+00 -0.00000000000E+00 -0.74505805969E-08  0.93827000000E+00  0.93827000000E+00 0. -1.
     999902    2    1    2    0    0  0.18224376802E-01 -0.74397524597E-02  0.12780546121E-01  0.10204604413E+01  0.10201905175E+01 0.  0.
     999903    2    3    3    0    0  0.34921842858E-01 -0.47776988784E-01 -0.11426704327E+00  0.13026552558E+00  0.20247819870E-01 0.  0.
         14    1    1    2    0    0 -0.18224376802E-01  0.74397524597E-02 -0.12780546121E-01  0.23469558702E-01  0.00000000000E+00 0.  1.
     999901    1    3    3    0    0 -0.16697466056E-01  0.40337236325E-01  0.12704758939E+00  0.89019491572E+00  0.88000000000E+00 0.  1.
        -11    1    4    4    0    0  0.15625539361E-01 -0.34265246232E-01 -0.82718047274E-01  0.90888948973E-01  0.51100000000E-03 0. -1.
         11    1    4    4    0    0  0.19296303497E-01 -0.13511742552E-01 -0.31548995999E-01  0.39376576603E-01  0.51100000000E-03 0.  1.
</event>
<event>
 8    1  0.1150307E+005  0.1043930E+01  0.7957747E-01            NaN
         13   -1    0    0    0    0  0.00000000000E+00  0.00000000000E+00  0.74505805969E-08  0.10566000000E+00  0.10566000000E+00 0.  1.
     999900   -1    0    0    0    0 -0.00000000000E+00 -0.00000000000E+00 -0.74505805969E-08  0.93827000000E+00  0.93827000000E+00 0.  1.
     999902    2    1    2    0    0 -0.88843663303E-02 -0.17811631262E-01  0.13107046359E-01  0.10200976514E+01  0.10198192181E+01 0.  0.
     999903    2    3    3    0    0 -0.20946328753E-01  0.12168576077E+00  0.30920484073E-01  0.12885002487E+00  0.20001987639E-01 0.  0.
         14    1    1    2    0    0  0.88843663303E-02  0.17811631262E-01 -0.13107046359E-01  0.23832348553E-01  0.00000000000E+00 0. -1.
     999901    1    3    3    0    0  0.12061962423E-01 -0.13949739204E+00 -0.17813437714E-01  0.89124762658E+00  0.88000000000E+00 0. -1.
        -11    1    4    4    0    0 -0.42570098472E-02  0.49190759715E-01  0.21528817769E-01  0.53866539612E-01  0.51100000000E-03 0. -1.
         11    1    4    4    0    0 -0.16689318906E-01  0.72495001059E-01  0.93916663035E-02  0.74983485255E-01  0.51100000000E-03 0.  1.
</event>
<event>
 8    1  0.1150307E+005  0.1043930E+01  0.7957747E-01            NaN
         13   -1    0    0    0    0  0.00000000000E+00  0.00000000000E+00  0.74505805969E-08  0.10566000000E+00  0.10566000000E+00 0. -1.
     999900   -1    0    0    0    0 -0.00000000000E+00 -0.00000000000E+00 -0.74505805969E-08  0.93827000000E+00  0.93827000000E+00 0. -1.
     999902    2    1    2    0    0  0.19018632068E-02  0.12044949782E-01  0.20691140346E-01  0.10199128980E+01  0.10196300792E+01 0.  0.
     999903    2    3    3    0    0 -0.63865235921E-01  0.78235696268E-01  0.83452479836E-01  0.13275704250E+00  0.21459809219E-01 0.  0.
         14    1    1    2    0    0 -0.19018632068E-02 -0.12044949782E-01 -0.20691140346E-01  0.24017101985E-01  0.00000000000E+00 0.  1.
     999901    1    3    3    0    0  0.65767099128E-01 -0.66190746485E-01 -0.62761339490E-01  0.88715585552E+00  0.88000000000E+00 0. -1.
        -11    1    4    4    0    0 -0.47442648582E-01  0.70758079167E-01  0.68461710758E-01  0.10929216638E+00  0.51100000000E-03 0. -1.
         11    1    4    4    0    0 -0.16422587339E-01  0.74776171007E-02  0.14990769078E-01  0.23464876112E-01  0.51100000000E-03 0.  1.
</event>
<event>
 8    1  0.1150307E+005  0.1043930E+01  0.7957747E-01            NaN
         13   -1    0    0    0    0  0.00000000000E+00  0.00000000000E+00  0.74505805969E-08  0.10566000000E+00  0.10566000000E+00 0.  1.
     999900   -1    0    0    0    0 -0.00000000000E+00 -0.00000000000E+00 -0.74505805969E-08  0.93827000000E+00  0.93827000000E+00 0.  1.
     999902    2    1    2    0    0 -0.10976810120E-01  0.44003999962E-02 -0.20505439730E-01  0.10202587740E+01  0.10199841367E+01 0.  0.
     999903    2    3    3    0    0 -0.68181511251E-01  0.77337132087E-02  0.10702597303E+00  0.12922131687E+00  0.23131386352E-01 0.  0.
         14    1    1    2    0    0  0.10976810120E-01 -0.44003999962E-02  0.20505439730E-01  0.23671225973E-01  0.00000000000E+00 0.  1.
     999901    1    3    3    0    0  0.57204701131E-01 -0.33333132125E-02 -0.12753141276E+00  0.89103745715E+00  0.88000000000E+00 0.  1.
        -11    1    4    4    0    0 -0.29104858720E-01 -0.72997305068E-02  0.37113269890E-01  0.47728762707E-01  0.51100000000E-03 0.  1.
         11    1    4    4    0    0 -0.39076652531E-01  0.15033443716E-01  0.69912703143E-01  0.81492554168E-01  0.51100000000E-03 0. -1.
</event>
<event>
 8    1  0.1150307E+005  0.1043930E+01  0.7957747E-01            NaN
         13   -1    0    0    0    0  0.00000000000E+00  0.00000000000E+00  0.74505805969E-08  0.10566000000E+00  0.10566000000E+00 0. -1.
     999900   -1    0    0    0    0 -0.00000000000E+00 -0.00000000000E+00 -0.74505805969E-08  0.93827000000E+00  0.93827000000E+00 0.  1.
     999902    2    1    2    0    0  0.23644302935E-01 -0.19708244228E-02  0.11022604989E-02  0.10201781119E+01  0.10199015775E+01 0.  0.
     999903    2    3    3    0    0  0.80110900629E-01  0.45591211986E-01 -0.92548730467E-01  0.13213468274E+00  0.19949733374E-01 0.  0.
         14    1    1    2    0    0 -0.23644302935E-01  0.19708244228E-02 -0.11022604989E-02  0.23751888102E-01  0.00000000000E+00 0. -1.
     999901    1    3    3    0    0 -0.56466597694E-01 -0.47562036409E-01  0.93650990966E-01  0.88804342916E+00  0.88000000000E+00 0. -1.
        -11    1    4    4    0    0  0.31122881084E-01  0.19252209960E-01 -0.50687324023E-01  0.62519974831E-01  0.51100000000E-03 0.  1.
         11    1    4    4    0    0  0.48988019545E-01  0.26339002025E-01 -0.41861406444E-01  0.69614707908E-01  0.51100000000E-03 0. -1.
</event>
<event>
 8    1  0.1150307E+005  0.1043930E+01  0.7957747E-01            NaN
         13   -1    0    0    0    0  0.00000000000E+00  0.00000000000E+00  0.74505805969E-08  0.10566000000E+00  0.10566000000E+00 0.  1.
     999900   -1    0    0    0    0 -0.00000000000E+00 -0.00000000000E+00 -0.74505805969E-08  0.93827000000E+00  0.93827000000E+00 0. -1.
     999902    2    1    2    0    0  0.16234294044E-01  0.13632892454E-01 -0.13077891659E-01  0.10190213808E+01  0.10187169063E+01 0.  0.
     999903    2    3    3    0    0 -0.20331194311E-01  0.84485050597E-01  0.93280169934E-01  0.12903874024E+00  0.19968103140E-01 0.  0.
         14    1    1    2    0    0 -0.16234294044E-01 -0.13632892454E-01  0.13077891659E-01  0.24908619191E-01  0.00000000000E+00 0. -1.
     999901    1    3    3    0    0  0.36565488354E-01 -0.70852158143E-01 -0.10635806159E+00  0.88998264057E+00  0.88000000000E+00 0. -1.
        -11    1    4    4    0    0 -0.61575323805E-03  0.13374134932E-01  0.25662291060E-01  0.28949282213E-01  0.51100000000E-03 0. -1.
         11    1    4    4    0    0 -0.19715441073E-01  0.71110915664E-01  0.67617878874E-01  0.10008945802E+00  0.51100000000E-03 0.  1.
</event>
<event>
 8    1  0.1150307E+005  0.1043930E+01  0.7957747E-01            NaN
         13   -1    0    0    0    0  0.00000000000E+00  0.00000000000E+00  0.74505805969E-08  0.10566000000E+00  0.10566000000E+00 0. -1.
     999900   -1    0    0    0    0 -0.00000000000E+00 -0.00000000000E+00 -0.74505805969E-08  0.93827000000E+00  0.93827000000E+00 0. -1.
     999902    2    1    2    0    0  0.11414379032E-01  0.18866333699E-01 -0.98718873781E-02  0.10197705142E+01  0.10194842916E+01 0.  0.
     999903    2    3    3    0    0 -0.10502618931E+00 -0.53428728364E-01 -0.47163020422E-01  0.12838080670E+00  0.19291230589E-01 0.  0.
         14    1    1    2    0    0 -0.11414379032E-01 -0.18866333699E-01  0.98718873781E-02  0.24159485846E-01  0.00000000000E+00 0. -1.
     999901    1    3    3    0    0  0.11644056834E+00  0.72295062064E-01  0.37291133044E-01  0.89138970746E+00  0.88000000000E+00 0.  1.
        -11    1    4    4    0    0 -0.44858685448E-01 -0.28532563328E-01 -0.12514180633E-01  0.54619361659E-01  0.51100000000E-03 0.  1.
         11    1    4    4    0    0 -0.60167503861E-01 -0.24896165036E-01 -0.34648839790E-01  0.73761445039E-01  0.51100000000E-03 0. -1.
</event>
<event>
 8    1  0.1150307E+005  0.1043930E+01  0.7957747E-01            NaN
         13   -1    0    0    0    0  0.00000000000E+00  0.00000000000E+00  0.74505805969E-08  0.10566000000E+00  0.10566000000E+00 0.  1.
     999900   -1    0    0    0    0 -0.00000000000E+00 -0.00000000000E+00 -0.74505805969E-08  0.93827000000E+00  0.93827000000E+00 0.  1.
     999902    2    1    2    0    0 -0.13755673684E-01  0.17601834646E-01  0.73104148039E-02  0.10204249940E+01  0.10201542448E+01 0.  0.
     999903    2    3    3    0    0 -0.24038676191E-01  0.18755925710E-01 -0.12516136893E+00  0.13044980024E+00  0.20546031403E-01 0.  0.
         14    1    1    2    0    0  0.13755673684E-01 -0.17601834646E-01 -0.73104148039E-02  0.23505005978E-01  0.00000000000E+00 0.  1.
     999901    1    3    3    0    0  0.10283002507E-01 -0.11540910643E-02  0.13247178374E+00  0.88997519379E+00  0.88000000000E+00 0. -1.
        -11    1    4    4    0    0 -0.19476016720E-01  0.43028162222E-02 -0.51210267314E-01  0.54959822180E-01  0.51100000000E-03 0.  1.
         11    1    4    4    0    0 -0.45626594708E-02  0.14453109488E-01 -0.73951101619E-01  0.75489978056E-01  0.51100000000E-03 0. -1.
</event>
<event>
 8    1  0.1150307E+005  0.1043930E+01  0.7957747E-01            NaN
         13   -1    0    0    0    0  0.00000000000E+00  0.00000000000E+00  0.74505805969E-08  0.10566000000E+00  0.10566000000E+00 0.  1.
     999900   -1    0    0    0    0 -0.00000000000E+00 -0.00000000000E+00 -0.74505805969E-08  0.93827000000E+00  0.93827000000E+00 0. -1.
     999902    2    1    2    0    0  0.24938165303E-02  0.18011042504E-01  0.16702277047E-01  0.10192402687E+01  0.10189411870E+01 0.  0.
     999903    2    3    3    0    0  0.81095511475E-01 -0.63808722863E-01  0.76501981780E-01  0.12994352119E+00  0.19614545315E-01 0.  0.
         14    1    1    2    0    0 -0.24938165303E-02 -0.18011042504E-01 -0.16702277047E-01  0.24689731297E-01  0.00000000000E+00 0. -1.
     999901    1    3    3    0    0 -0.78601694945E-01  0.81819765367E-01 -0.59799704734E-01  0.88929674751E+00  0.88000000000E+00 0. -1.
        -11    1    4    4    0    0  0.33726760895E-01 -0.26013845906E-01  0.19883509214E-01  0.47008825117E-01  0.51100000000E-03 0.  1.
         11    1    4    4    0    0  0.47368750580E-01 -0.37794876957E-01  0.56618472567E-01  0.82934696072E-01  0.51100000000E-03 0. -1.
</event>
<event>
 8    1  0.1150307E+005  0.1043930E+01  0.7957747E-01            NaN
         13   -1    0    0    0    0  0.00000000000E+00  0.00000000000E+00  0.74505805969E-08  0.10566000000E+00  0.10566000000E+00 0.  1.
     999900   -1    0    0    0    0 -0.00000000000E+00 -0.00000000000E+00 -0.74505805969E-08  0.93827000000E+00  0.93827000000E+00 0.  1.
     999902    2    1    2    0    0 -0.17831299696E-01 -0.59495032485E-02  0.14107936241E-01  0.10204271129E+01  0.10201564130E+01 0.  0.
     999903    2    3    3    0    0  0.85111569514E-01  0.46207419348E-01  0.84495594224E-01  0.13010582184E+00  0.20221636059E-01 0.  0.
         14    1    1    2    0    0  0.17831299696E-01  0.59495032485E-02 -0.14107936241E-01  0.23502887115E-01  0.00000000000E+00 0. -1.
     999901    1    3    3    0    0 -0.10294286921E+00 -0.52156922597E-01 -0.70387657984E-01  0.89032129105E+00  0.88000000000E+00 0.  1.
        -11    1    4    4    0    0  0.55904582701E-01  0.26824925206E-01  0.41433821460E-01  0.74578292157E-01  0.51100000000E-03 0. -1.
         11    1    4    4    0    0  0.29206986812E-01  0.19382494142E-01  0.43061772764E-01  0.55527529681E-01  0.51100000000E-03 0.  1.
</event>
<event>
 8    1  0.1150307E+005  0.1043930E+01  0.7957747E-01            NaN
         13   -1    0    0    0    0  0.00000000000E+00  0.00000000000E+00  0.74505805969E-08  0.10566000000E+00  0.10566000000E+00 0. -1.
     999900   -1    0    0    0    0 -0.00000000000E+00 -0.00000000000E+00 -0.74505805969E-08  0.93827000000E+00  0.93827000000E+00 0. -1.
     999902    2    1    2    0    0 -0.19508934143E-01 -0.96751594622E-02 -0.48632400247E-02  0.10216172609E+01  0.10213735700E+01 0.  0.
     999903    2    3    3    0    0  0.46234167673E-01  0.11617611361E+00 -0.28970989536E-01  0.12990997601E+00  0.20069778175E-01 0.  0.
         14    1    1    2    0    0  0.19508934143E-01  0.96751594622E-02  0.48632400247E-02  0.22312739087E-01  0.00000000000E+00 0. -1.
     999901    1    3    3    0    0 -0.65743101816E-01 -0.12585127308E+00  0.24107749511E-01  0.89170728491E+00  0.88000000000E+00 0.  1.
        -11    1    4    4    0    0  0.44153082163E-01  0.95429277161E-01 -0.19245038656E-01  0.10689655859E+00  0.51100000000E-03 0.  1.
         11    1    4    4    0    0  0.20810855102E-02  0.20746836453E-01 -0.97259508797E-02  0.23013417417E-01  0.51100000000E-03 0. -1.
</event>
<event>
 8    1  0.1150307E+005  0.1043930E+01  0.7957747E-01            NaN
         13   -1    0    0    0    0  0.00000000000E+00  0.00000000000E+00  0.74505805969E-08  0.10566000000E+00  0.10566000000E+00 0.  1.
     999900   -1    0    0    0    0 -0.00000000000E+00 -0.00000000000E+00 -0.74505805969E-08  0.93827000000E+00  0.93827000000E+00 0.  1.
     999902    2    1    2    0    0 -0.39300481475E-02 -0.21896224051E-01  0.88101122917E-02  0.10200028609E+01  0.10197221819E+01 0.  0.
     999903    2    3    3    0    0 -0.69769745935E-01  0.98268514127E-01 -0.38721000814E-01  0.12813199761E+00  0.19848793171E-01 0.  0.
         14    1    1    2    0    0  0.39300481475E-02  0.21896224051E-01 -0.88101122917E-02  0.23927139083E-01  0.00000000000E+00 0.  1.
     999901    1    3    3    0    0  0.65839697788E-01 -0.12016473818E+00  0.47531113106E-01  0.89187086331E+00  0.88000000000E+00 0.  1.
        -11    1    4    4    0    0 -0.48980457971E-01  0.61454132584E-01 -0.33861037768E-01  0.85571763301E-01  0.51100000000E-03 0.  1.
         11    1    4    4    0    0 -0.20789287965E-01  0.36814381543E-01 -0.48599630457E-02  0.42560234307E-01  0.51100000000E-03 0. -1.
</event>
<event>
 8    1  0.1150307E+005  0.1043930E+01  0.7957747E-01            NaN
         13   -1    0    0    0    0  0.00000000000E+00  0.00000000000E+00  0.74505805969E-08  0.10566000000E+00  0.10566000000E+00 0.  1.
     999900   -1    0    0    0    0 -0.00000000000E+00 -0.00000000000E+00 -0.74505805969E-08  0.93827000000E+00  0.93827000000E+00 0. -1.
     999902    2    1    2    0    0  0.12509463485E-01 -0.22133366381E-01  0.54227023806E-02  0.10179342641E+01  0.10176022738E+01 0.  0.
     999903    2    3    3    0    0  0.36437594418E-01 -0.92158357908E-01 -0.82599811272E-01  0.13045242327E+00  0.19345405023E-01 0.  0.
         14    1    1    2    0    0 -0.12509463485E-01  0.22133366381E-01 -0.54227023806E-02  0.25995735903E-01  0.00000000000E+00 0.  1.
     999901    1    3    3    0    0 -0.23928130933E-01  0.70024991527E-01  0.88022513652E-01  0.88748184083E+00  0.88000000000E+00 0.  1.
        -11    1    4    4    0    0  0.32880329566E-02 -0.22139887725E-01 -0.10929260439E-01  0.24913764147E-01  0.51100000000E-03 0.  1.
         11    1    4    4    0    0  0.33149561461E-01 -0.70018470183E-01 -0.71670550832E-01  0.10553865912E+00  0.51100000000E-03 0. -1.
</event>
<event>
 8    1  0.1150307E+005  0.1043930E+01  0.7957747E-01            NaN
         13   -1    0    0    0    0  0.00000000000E+00  0.00000000000E+00  0.74505805969E-08  0.10566000000E+00  0.10566000000E+00 0. -1.
     999900   -1    0    0    0    0 -0.00000000000E+00 -0.00000000000E+00 -0.74505805969E-08  0.93827000000E+00  0.93827000000E+00 0.  1.
     999902    2    1    2    0    0 -0.80253641709E-02 -0.21487242001E-01 -0.55019442560E-02  0.10203423034E+01  0.10200696235E+01 0.  0.
     999903    2    3    3    0    0 -0.81774770365E-01  0.23310983068E-01 -0.97937183046E-01  0.13130342394E+00  0.20454395965E-01 0.  0.
         14    1    1    2    0    0  0.80253641709E-02  0.21487242001E-01  0.55019442560E-02  0.23587696570E-01  0.00000000000E+00 0.  1.
     999901    1    3    3    0    0  0.73749406194E-01 -0.44798225068E-01  0.92435238790E-01  0.88903887949E+00  0.88000000000E+00 0.  1.
        -11    1    4    4    0    0 -0.57741660730E-01  0.13481381391E-01 -0.53660786545E-01  0.79972421257E-01  0.51100000000E-03 0. -1.
         11    1    4    4    0    0 -0.24033109635E-01  0.98296016766E-02 -0.44276396501E-01  0.51331002678E-01  0.51100000000E-03 0.  1.
</event>
<event>
 8    1  0.1150307E+005  0.1043930E+01  0.7957747E-01            NaN
         13   -1    0    0    0    0  0.00000000000E+00  0.00000000000E+00  0.74505805969E-08  0.10566000000E+00  0.10566000000E+00 0.  1.
     999900   -1    0    0    0    0 -0.00000000000E+00 -0.00000000000E+00 -0.74505805969E-08  0.93827000000E+00  0.93827000000E+00 0. -1.
     999902    2    1    2    0    0  0.24743545439E-02 -0.19231361927E-01 -0.12909688330E-01  0.10206356280E+01  0.10203697651E+01 0.  0.
     999903    2    3    3    0    0  0.63324039524E-01  0.10051814927E+00  0.44592593266E-01  0.12858790400E+00  0.20797051843E-01 0.  0.
         14    1    1    2    0    0 -0.24743545439E-02  0.19231361927E-01  0.12909688330E-01  0.23294371955E-01  0.00000000000E+00 0.  1.
     999901    1    3    3    0    0 -0.60849684980E-01 -0.11974951120E+00 -0.57502281597E-01  0.89204772405E+00  0.88000000000E+00 0. -1.
        -11    1    4    4    0    0  0.20887655373E-01  0.48854819218E-01  0.26206338490E-01  0.59246272506E-01  0.51100000000E-03 0. -1.
         11    1    4    4    0    0  0.42436384151E-01  0.51663330052E-01  0.18386254776E-01  0.69341631489E-01  0.51100000000E-03 0.  1.
</event>
<event>
 8    1  0.1150307E+005  0.1043930E+01  0.7957747E-01            NaN
         13   -1    0    0    0    0  0.00000000000E+00  0.00000000000E+00  0.74505805969E-08  0.10566000000E+00  0.10566000000E+00 0.  1.
     999900   -1    0    0    0    0 -0.00000000000E+00 -0.00000000000E+00 -0.74505805969E-08  0.93827000000E+00  0.93827000000E+00 0. -1.
     999902    2    1    2    0    0 -0.63158942812E-02 -0.20671334475E-01  0.12565707840E-01  0.10189281680E+01  0.10186213820E+01 0.  0.
     999903    2    3    3    0    0  0.21593185397E-01  0.73950156900E-01 -0.98202355000E-01  0.12651475086E+00  0.20673371670E-01 0.  0.
         14    1    1    2    0    0  0.63158942812E-02  0.20671334475E-01 -0.12565707840E-01  0.25001831994E-01  0.00000000000E+00 0. -1.
     999901    1    3    3    0    0 -0.27909079678E-01 -0.94621491375E-01  0.11076806284E+00  0.89241341715E+00  0.88000000000E+00 0.  1.
        -11    1    4    4    0    0  0.11408582293E-01  0.37607341275E-01 -0.66385899000E-01  0.77148017309E-01  0.51100000000E-03 0. -1.
         11    1    4    4    0    0  0.10184603104E-01  0.36342815625E-01 -0.31816456000E-01  0.49366733550E-01  0.51100000000E-03 0.  1.
</event>
<event>
 8    1  0.1150307E+005  0.1043930E+01  0.7957747E-01            NaN
         13   -1    0    0    0    0  0.00000000000E+00  0.00000000000E+00  0.74505805969E-08  0.10566000000E+00  0.10566000000E+00 0. -1.
     999900   -1    0    0    0    0 -0.00000000000E+00 -0.00000000000E+00 -0.74505805969E-08  0.93827000000E+00  0.93827000000E+00 0.  1.
     999902    2    1    2    0    0  0.37113530780E-02  0.18992355335E-01  0.13124465285E-01  0.10205476286E+01  0.10202797298E+01 0.  0.
     999903    2    3    3    0    0 -0.34268918541E-01  0.79143947598E-01 -0.96433929525E-01  0.13090514033E+00  0.19963210686E-01 0.  0.
         14    1    1    2    0    0 -0.37113530780E-02 -0.18992355335E-01 -0.13124465285E-01  0.23382371391E-01  0.00000000000E+00 0.  1.
     999901    1    3    3    0    0  0.37980271619E-01 -0.60151592263E-01  0.10955839481E+00  0.88964248828E+00  0.88000000000E+00 0. -1.
        -11    1    4    4    0    0 -0.13860046275E-01  0.29762643585E-01 -0.23008866864E-01  0.40094699292E-01  0.51100000000E-03 0.  1.
         11    1    4    4    0    0 -0.20408872266E-01  0.49381304013E-01 -0.73425062661E-01  0.90810441035E-01  0.51100000000E-03 0. -1.
</event>
<event>
 8    1  0.1150307E+005  0.1043930E+01  0.7957747E-01            NaN
         13   -1    0    0    0    0  0.00000000000E+00  0.00000000000E+00  0.74505805969E-08  0.10566000000E+00  0.10566000000E+00 0. -1.
     999900   -1    0    0    0    0 -0.00000000000E+00 -0.00000000000E+00 -0.74505805969E-08  0.93827000000E+00  0.93827000000E+00 0. -1.
     999902    2    1    2    0    0  0.21469584782E-01 -0.65573692593E-02 -0.83677507144E-02  0.10199725082E+01  0.10196911081E+01 0.  0.
     999903    2    3    3    0    0  0.10160527102E+00 -0.30263064919E-01 -0.78142171139E-01  0.13326389879E+00  0.20336755241E-01 0.  0.
         14    1    1    2    0    0 -0.21469584782E-01  0.65573692593E-02  0.83677507144E-02  0.23957491820E-01  0.00000000000E+00 0. -1.
     999901    1    3    3    0    0 -0.80135686238E-01  0.23705695660E-01  0.69774420425E-01  0.88670860939E+00  0.88000000000E+00 0.  1.
        -11    1    4    4    0    0  0.28745845188E-01 -0.14890001102E-01 -0.15230737943E-01  0.35780892214E-01  0.51100000000E-03 0. -1.
         11    1    4    4    0    0  0.72859425832E-01 -0.15373063818E-01 -0.62911433196E-01  0.97483006578E-01  0.51100000000E-03 0.  1.
</event>
<event>
 8    1  0.1150307E+005  0.1043930E+01  0.7957747E-01            NaN
         13   -1    0    0    0    0  0.00000000000E+00  0.00000000000E+00  0.74505805969E-08  0.10566000000E+00  0.10566000000E+00 0. -1.
     999900   -1    0    0    0    0 -0.00000000000E+00 -0.00000000000E+00 -0.74505805969E-08  0.93827000000E+00  0.93827000000E+00 0. -1.
     999902    2    1    2    0    0  0.19705435467E-01  0.12436553665E-01  0.33764716861E-02  0.10203848813E+01  0.10201131963E+01 0.  0.
     999903    2    3    3    0    0  0.10756665330E+00  0.70046290873E-01 -0.20805319337E-01  0.13380536741E+00  0.31526929251E-01 0.  0.
         14    1    1    2    0    0 -0.19705435467E-01 -0.12436553665E-01 -0.33764716861E-02  0.23545118709E-01  0.00000000000E+00 0.  1.
     999901    1    3    3    0    0 -0.87861217829E-01 -0.57609737209E-01  0.24181791023E-01  0.88657951388E+00  0.88000000000E+00 0.  1.
        -11    1    4    4    0    0  0.64779336409E-01  0.28747552364E-01 -0.22356109920E-01  0.74315819071E-01  0.51100000000E-03 0.  1.
         11    1    4    4    0    0  0.42787316887E-01  0.41298738509E-01  0.15507905828E-02  0.59489548336E-01  0.51100000000E-03 0. -1.
</event>
<event>
 8    1  0.1150307E+005  0.1043930E+01  0.7957747E-01            NaN
         13   -1    0    0    0    0  0.00000000000E+00  0.00000000000E+00  0.74505805969E-08  0.10566000000E+00  0.10566000000E+00 0. -1.
     999900   -1    0    0    0    0 -0.00000000000E+00 -0.00000000000E+00 -0.74505805969E-08  0.93827000000E+00  0.93827000000E+00 0. -1.
     999902    2    1    2    0    0  0.25190961068E-02  0.24017684757E-01  0.32352402041E-02  0.10195648239E+01  0.10192736474E+01 0.  0.
     999903    2    3    3    0    0 -0.10894741205E+00 -0.16409626577E-01  0.65267216365E-01  0.12944847422E+00  0.18928378361E-01 0.  0.
         14    1    1    2    0    0 -0.25190961068E-02 -0.24017684757E-01 -0.32352402041E-02  0.24365176081E-01  0.00000000000E+00 0.  1.
     999901    1    3    3    0    0  0.11146650816E+00  0.40427311334E-01 -0.62031976161E-01  0.89011634970E+00  0.88000000000E+00 0. -1.
        -11    1    4    4    0    0 -0.85021187689E-01 -0.52620690024E-02  0.46435038574E-01  0.97019408649E-01  0.51100000000E-03 0. -1.
         11    1    4    4    0    0 -0.23926224363E-01 -0.11147557575E-01  0.18832177791E-01  0.32429065566E-01  0.51100000000E-03 0.  1.
</event>
<event>
 8    1  0.1150307E+005  0.1043930E+01  0.7957747E-01            NaN
         13   -1    0    0    0    0  0.00000000000E+00  0.00000000000E+00  0.74505805969E-08  0.10566000000E+00  0.10566000000E+00 0.  1.
     999900   -1    0    0    0    0 -0.00000000000E+00 -0.00000000000E+00 -0.74505805969E-08  0.93827000000E+00  0.93827000000E+00 0. -1.
     999902    2    1    2    0    0  0.17556526853E-01  0.15353167867E-01  0.41960121079E-02  0.10202327867E+01  0.10199575389E+01 0.  0.
     999903    2    3    3    0    0 -0.13527162689E-01 -0.11134383322E+00  0.61555120119E-01  0.12876860175E+00  0.14556327065E-01 0.  0.
         14    1    1    2    0    0 -0.17556526853E-01 -0.15353167867E-01 -0.41960121079E-02  0.23697213260E-01  0.00000000000E+00 0. -1.
     999901    1    3    3    0    0  0.31083689542E-01  0.12669700109E+00 -0.57359108011E-01  0.89146418499E+00  0.88000000000E+00 0.  1.
        -11    1    4    4    0    0 -0.60872338998E-02 -0.46348794482E-01  0.33873912219E-01  0.57731864828E-01  0.51100000000E-03 0.  1.
         11    1    4    4    0    0 -0.74399287894E-02 -0.64995038741E-01  0.27681207901E-01  0.71036736926E-01  0.51100000000E-03 0. -1.
</event>
<event>
 8    1  0.1150307E+005  0.1043930E+01  0.7957747E-01            NaN
         13   -1    0    0    0    0  0.00000000000E+00  0.00000000000E+00  0.74505805969E-08  0.10566000000E+00  0.10566000000E+00 0. -1.
     999900   -1    0    0    0    0 -0.00000000000E+00 -0.00000000000E+00 -0.74505805969E-08  0.93827000000E+00  0.93827000000E+00 0.  1.
     999902    2    1    2    0    0 -0.23526658641E-01 -0.38987767761E-02 -0.67524350634E-03  0.10200729239E+01  0.10197939056E+01 0.  0.
     999903    2    3    3    0    0 -0.15492691608E-01  0.75976823305E-01 -0.10305575134E+00  0.13050762302E+00  0.19981256431E-01 0.  0.
         14    1    1    2    0    0  0.23526658641E-01  0.38987767761E-02  0.67524350634E-03  0.23857076119E-01  0.00000000000E+00 0. -1.
     999901    1    3    3    0    0 -0.80339670334E-02 -0.79875600081E-01  0.10238050783E+00  0.88956530086E+00  0.88000000000E+00 0. -1.
        -11    1    4    4    0    0 -0.41979382550E-02  0.30998091491E-01 -0.26503239868E-01  0.41002282938E-01  0.51100000000E-03 0.  1.
         11    1    4    4    0    0 -0.11294753353E-01  0.44978731814E-01 -0.76552511473E-01  0.89505340080E-01  0.51100000000E-03 0. -1.
</event>
<event>
 8    1  0.1150307E+005  0.1043930E+01  0.7957747E-01            NaN
         13   -1    0    0    0    0  0.00000000000E+00  0.00000000000E+00  0.74505805969E-08  0.10566000000E+00  0.10566000000E+00 0.  1.
     999900   -1    0    0    0    0 -0.00000000000E+00 -0.00000000000E+00 -0.74505805969E-08  0.93827000000E+00  0.93827000000E+00 0. -1.
     999902    2    1    2    0    0 -0.12499312237E-01  0.17424167011E-01  0.10222227476E-01  0.10201744041E+01  0.10198977823E+01 0.  0.
     999903    2    3    3    0    0 -0.15405086844E-01 -0.11148896265E+00 -0.58529780301E-01  0.12812402597E+00  0.17970123993E-01 0.  0.
         14    1    1    2    0    0  0.12499312237E-01 -0.17424167011E-01 -0.10222227476E-01  0.23755595909E-01  0.00000000000E+00 0. -1.
     999901    1    3    3    0    0  0.29057746070E-02  0.12891312966E+00  0.68752007777E-01  0.89205037812E+00  0.88000000000E+00 0.  1.
        -11    1    4    4    0    0 -0.14378073194E-01 -0.66608139209E-01 -0.27172534634E-01  0.73361985776E-01  0.51100000000E-03 0.  1.
         11    1    4    4    0    0 -0.10270136504E-02 -0.44880823441E-01 -0.31357245667E-01  0.54762040198E-01  0.51100000000E-03 0. -1.
</event>
<event>
 8    1  0.1150307E+005  0.1043930E+01  0.7957747E-01            NaN
         13   -1    0    0    0    0  0.00000000000E+00  0.00000000000E+00  0.74505805969E-08  0.10566000000E+00  0.10566000000E+00 0. -1.
     999900   -1    0    0    0    0 -0.00000000000E+00 -0.00000000000E+00 -0.74505805969E-08  0.93827000000E+00  0.93827000000E+00 0.  1.
     999902    2    1    2    0    0  0.13401997952E-01  0.48272443344E-02 -0.19114019690E-01  0.10200917621E+01  0.10198131895E+01 0.  0.
     999903    2    3    3    0    0  0.21192600958E-02 -0.40971426233E-01 -0.12445375554E+00  0.13255512718E+00  0.19974369636E-01 0.  0.
         14    1    1    2    0    0 -0.13401997952E-01 -0.48272443344E-02  0.19114019690E-01  0.23838237890E-01  0.00000000000E+00 0. -1.
     999901    1    3    3    0    0  0.11282737856E-01  0.45798670567E-01  0.10533973585E+00  0.88753663493E+00  0.88000000000E+00 0. -1.
        -11    1    4    4    0    0  0.22597319368E-02 -0.70851381915E-02 -0.52418012429E-01  0.52945393753E-01  0.51100000000E-03 0.  1.
         11    1    4    4    0    0 -0.14047184098E-03 -0.33886288041E-01 -0.72035743110E-01  0.79609733425E-01  0.51100000000E-03 0. -1.
</event>
<event>
 7    1  0.1150307E+005  0.1043930E+01  0.7957747E-01            NaN
         13   -1    0    0    0    0  0.00000000000E+00  0.00000000000E+00  0.74505805969E-08  0.10566000000E+00  0.10566000000E+00 0.  1.
     999900   -1    0    0    0    0 -0.00000000000E+00 -0.00000000000E+00 -0.74505805969E-08  0.93827000000E+00  0.93827000000E+00 0.  1.
     999903    2    1    2    0    0  0.81489404701E-01  0.31587550395E-01  0.75991603591E-01  0.11775567301E+00  0.21292681658E-01 0.  0.
         14    1    1    2    0    0  0.19255840787E-01 -0.16768551926E-01 -0.29595892483E-01  0.39088215488E-01  0.00000000000E+00 0. -1.
     999901    1    1    2    0    0 -0.10074524549E+00 -0.14818998468E-01 -0.46395711108E-01  0.88708611150E+00  0.88000000000E+00 0.  1.
        -11    1    3    3    0    0  0.25987415971E-01  0.45526389847E-02  0.12510234170E-01  0.29203414022E-01  0.51100000000E-03 0. -1.
         11    1    3    3    0    0  0.55501988730E-01  0.27034911410E-01  0.63481369422E-01  0.88552258992E-01  0.51100000000E-03 0.  1.
</event>
<event>
 8    1  0.1150307E+005  0.1043930E+01  0.7957747E-01            NaN
         13   -1    0    0    0    0  0.00000000000E+00  0.00000000000E+00  0.74505805969E-08  0.10566000000E+00  0.10566000000E+00 0. -1.
     999900   -1    0    0    0    0 -0.00000000000E+00 -0.00000000000E+00 -0.74505805969E-08  0.93827000000E+00  0.93827000000E+00 0. -1.
     999902    2    1    2    0    0  0.19752927758E-01  0.30102075991E-02 -0.15254991032E-01  0.10187912996E+01  0.10184811034E+01 0.  0.
     999903    2    3    3    0    0  0.27040336079E-01  0.60269267723E-01 -0.11194946755E+00  0.13161514572E+00  0.20647006789E-01 0.  0.
         14    1    1    2    0    0 -0.19752927758E-01 -0.30102075991E-02  0.15254991032E-01  0.25138700368E-01  0.00000000000E+00 0.  1.
     999901    1    3    3    0    0 -0.72874083205E-02 -0.57259060124E-01  0.96694476522E-01  0.88717615392E+00  0.88000000000E+00 0.  1.
        -11    1    4    4    0    0  0.16362856366E-01  0.36359590625E-01 -0.85759765869E-01  0.94576749055E-01  0.51100000000E-03 0. -1.
         11    1    4    4    0    0  0.10677479713E-01  0.23909677098E-01 -0.26189701685E-01  0.37038396662E-01  0.51100000000E-03 0.  1.
</event>
<event>
 8    1  0.1150307E+005  0.1043930E+01  0.7957747E-01            NaN
         13   -1    0    0    0    0  0.00000000000E+00  0.00000000000E+00  0.74505805969E-08  0.10566000000E+00  0.10566000000E+00 0. -1.
     999900   -1    0    0    0    0 -0.00000000000E+00 -0.00000000000E+00 -0.74505805969E-08  0.93827000000E+00  0.93827000000E+00 0.  1.
     999902    2    1    2    0    0  0.15345395272E-01 -0.13960497164E-01  0.92483901814E-02  0.10212163618E+01  0.10209637351E+01 0.  0.
     999903    2    3    3    0    0  0.12154433079E+00 -0.53430251036E-01  0.37986241669E-02  0.13393637485E+00  0.17225181869E-01 0.  0.
         14    1    1    2    0    0 -0.15345395272E-01  0.13960497164E-01 -0.92483901814E-02  0.22713638151E-01  0.00000000000E+00 0.  1.
     999901    1    3    3    0    0 -0.10619893552E+00  0.39469753872E-01  0.54497660145E-02  0.88727998700E+00  0.88000000000E+00 0.  1.
        -11    1    4    4    0    0  0.75033556050E-01 -0.38998065034E-01 -0.37810317070E-02  0.84648927528E-01  0.51100000000E-03 0. -1.
         11    1    4    4    0    0  0.46510774737E-01 -0.14432186003E-01  0.75796558739E-02  0.49287447323E-01  0.51100000000E-03 0.  1.
</event>
<event>
 8    1  0.1150307E+005  0.1043930E+01  0.7957747E-01            NaN
         13   -1    0    0    0    0  0.00000000000E+00  0.00000000000E+00  0.74505805969E-08  0.10566000000E+00  0.10566000000E+00 0. -1.
     999900   -1    0    0    0    0 -0.00000000000E+00 -0.00000000000E+00 -0.74505805969E-08  0.93827000000E+00  0.93827000000E+00 0.  1.
     999902    2    1    2    0    0 -0.40218563467E-02  0.17365683657E-01  0.15224898577E-01  0.10204877340E+01  0.10202184450E+01 0.  0.
     999903    2    3    3    0    0 -0.59765151862E-01  0.11705230909E+00  0.10080568535E-01  0.13309199231E+00  0.18405002458E-01 0.  0.
         14    1    1    2    0    0  0.40218563467E-02 -0.17365683657E-01 -0.15224898577E-01  0.23442265975E-01  0.00000000000E+00 0. -1.
     999901    1    3    3    0    0  0.55743295515E-01 -0.99686625429E-01  0.51443300420E-02  0.88739574172E+00  0.88000000000E+00 0.  1.
        -11    1    4    4    0    0 -0.15457154560E-01  0.49993342835E-01  0.43687265656E-02  0.52512901726E-01  0.51100000000E-03 0.  1.
         11    1    4    4    0    0 -0.44307997301E-01  0.67058966251E-01  0.57118419694E-02  0.80579090583E-01  0.51100000000E-03 0. -1.
</event>
<event>
 8    1  0.1150307E+005  0.1043930E+01  0.7957747E-01            NaN
         13   -1    0    0    0    0  0.00000000000E+00  0.00000000000E+00  0.74505805969E-08  0.10566000000E+00  0.10566000000E+00 0.  1.
     999900   -1    0    0    0    0 -0.00000000000E+00 -0.00000000000E+00 -0.74505805969E-08  0.93827000000E+00  0.93827000000E+00 0.  1.
     999902    2    1    2    0    0 -0.73288270375E-02  0.14020949266E-01  0.26560770873E-01  0.10130144170E+01  0.10125425600E+01 0.  0.
     999903    2    3    3    0    0  0.65257355476E-01 -0.99535096715E-01  0.23188744187E-01  0.12274754686E+00  0.19065268985E-01 0.  0.
         14    1    1    2    0    0  0.73288270375E-02 -0.14020949266E-01 -0.26560770873E-01  0.30915583020E-01  0.00000000000E+00 0. -1.
     999901    1    3    3    0    0 -0.72586182513E-01  0.11355604598E+00  0.33720266865E-02  0.89026687012E+00  0.88000000000E+00 0. -1.
        -11    1    4    4    0    0  0.46366038713E-01 -0.57685998669E-01  0.20266257265E-01  0.76736342712E-01  0.51100000000E-03 0. -1.
         11    1    4    4    0    0  0.18891316763E-01 -0.41849098046E-01  0.29224869219E-02  0.46011204147E-01  0.51100000000E-03 0.  1.
</event>
<event>
 7    1  0.1150307E+005  0.1043930E+01  0.7957747E-01            NaN
         13   -1    0    0    0    0  0.00000000000E+00  0.00000000000E+00  0.74505805969E-08  0.10566000000E+00  0.10566000000E+00 0.  1.
     999900   -1    0    0    0    0 -0.00000000000E+00 -0.00000000000E+00 -0.74505805969E-08  0.93827000000E+00  0.93827000000E+00 0.  1.
     999902    2    1    2    0    0 -0.21902103160E-01  0.96705801287E-02  0.17661929954E-02  0.10199228827E+01  0.10196403018E+01 0.  0.
         14    1    1    2    0    0  0.21902103160E-01 -0.96705801287E-02 -0.17661929954E-02  0.24007117290E-01  0.00000000000E+00 0. -1.
     999901    1    3    3    0    0 -0.80890261013E-01 -0.91977368650E-01 -0.39174835846E-01  0.88934680436E+00  0.88000000000E+00 0.  1.
        -11    1    3    3    0    0  0.26499446115E-01  0.46217120034E-01  0.39473023262E-01  0.66307039710E-01  0.51100000000E-03 0.  1.
         11    1    3    3    0    0  0.32488711739E-01  0.55430828745E-01  0.14680055789E-02  0.64269038636E-01  0.51100000000E-03 0. -1.
</event>
<event>
 8    1  0.1150307E+005  0.1043930E+01  0.7957747E-01            NaN
         13   -1    0    0    0    0  0.00000000000E+00  0.00000000000E+00  0.74505805969E-08  0.10566000000E+00  0.10566000000E+00 0.  1.
     999900   -1    0    0    0    0 -0.00000000000E+00 -0.00000000000E+00 -0.74505805969E-08  0.93827000000E+00  0.93827000000E+00 0. -1.
     999902    2    1    2    0    0  0.75564928442E-02 -0.50775835485E-02 -0.24653053422E-01  0.10176496750E+01  0.10173102799E+01 0.  0.
     999903    2    3    3    0    0  0.51321274913E-01  0.10806702158E+00  0.38168729996E-01  0.12710847198E+00  0.19681394446E-01 0.  0.
         14    1    1    2    0    0 -0.75564928442E-02  0.50775835485E-02  0.24653053422E-01  0.26280324994E-01  0.00000000000E+00 0.  1.
     999901    1    3    3    0    0 -0.43764782069E-01 -0.11314460513E+00 -0.62821783418E-01  0.89054120303E+00  0.88000000000E+00 0.  1.
        -11    1    4    4    0    0  0.40716660364E-01  0.64615376908E-01  0.21147290014E-01  0.79249368200E-01  0.51100000000E-03 0.  1.
         11    1    4    4    0    0  0.10604614549E-01  0.43451644671E-01  0.17021439983E-01  0.47859103778E-01  0.51100000000E-03 0. -1.
</event>
<event>
 8    1  0.1150307E+005  0.1043930E+01  0.7957747E-01            NaN
         13   -1    0    0    0    0  0.00000000000E+00  0.00000000000E+00  0.74505805969E-08  0.10566000000E+00  0.10566000000E+00 0.  1.
     999900   -1    0    0    0    0 -0.00000000000E+00 -0.00000000000E+00 -0.74505805969E-08  0.93827000000E+00  0.93827000000E+00 0.  1.
     999902    2    1    2    0    0 -0.37545881741E-02  0.13127919852E-01  0.19657604534E-01  0.10199954929E+01  0.10197146390E+01 0.  0.
     999903    2    3    3    0    0  0.11085181827E+00  0.58912276251E-01 -0.27505215227E-01  0.13013305006E+00  0.20476619498E-01 0.  0.
         14    1    1    2    0    0  0.37545881741E-02 -0.13127919852E-01 -0.19657604534E-01  0.23934507056E-01  0.00000000000E+00 0. -1.
     999901    1    3    3    0    0 -0.11460640644E+00 -0.45784356398E-01  0.47162819762E-01  0.88986244288E+00  0.88000000000E+00 0. -1.
        -11    1    4    4    0    0  0.87315109652E-01  0.39538462234E-01 -0.27224793346E-01  0.99642706021E-01  0.51100000000E-03 0.  1.
         11    1    4    4    0    0  0.23536708618E-01  0.19373814017E-01 -0.28042188105E-03  0.30490344038E-01  0.51100000000E-03 0. -1.
</event>
<event>
 7    1  0.1150307E+005  0.1043930E+01  0.7957747E-01            NaN
         13   -1    0    0    0    0  0.00000000000E+00  0.00000000000E+00  0.74505805969E-08  0.10566000000E+00  0.10566000000E+00 0.  1.
     999900   -1    0    0    0    0 -0.00000000000E+00 -0.00000000000E+00 -0.74505805969E-08  0.93827000000E+00  0.93827000000E+00 0. -1.
     999903    2    1    2    0    0  0.33162450821E-01 -0.80065537782E-01  0.37840470583E-01  0.96847839741E-01  0.20913258085E-01 0.  0.
         14    1    1    2    0    0  0.17261959292E-01 -0.12943969473E-01 -0.56572423669E-01  0.60547177508E-01  0.00000000000E+00 0. -1.
     999901    1    1    2    0    0 -0.50424410113E-01  0.93009507256E-01  0.18731953086E-01  0.88653498275E+00  0.88000000000E+00 0. -1.
        -11    1    3    3    0    0  0.67390482406E-02 -0.27261582962E-01  0.22095613817E-01  0.35736339316E-01  0.51100000000E-03 0.  1.
         11    1    3    3    0    0  0.26423402580E-01 -0.52803954821E-01  0.15744856767E-01  0.61111500425E-01  0.51100000000E-03 0. -1.
</event>
<event>
 8    1  0.1150307E+005  0.1043930E+01  0.7957747E-01            NaN
         13   -1    0    0    0    0  0.00000000000E+00  0.00000000000E+00  0.74505805969E-08  0.10566000000E+00  0.10566000000E+00 0. -1.
     999900   -1    0    0    0    0 -0.00000000000E+00 -0.00000000000E+00 -0.74505805969E-08  0.93827000000E+00  0.93827000000E+00 0.  1.
     999902    2    1    2    0    0  0.10493140291E-01 -0.19819216970E-01 -0.72863408212E-02  0.10203503877E+01  0.10200778968E+01 0.  0.
     999903    2    3    3    0    0  0.89173394427E-01  0.62219105636E-01 -0.70033264197E-01  0.13082352178E+00  0.19672935154E-01 0.  0.
         14    1    1    2    0    0 -0.10493140291E-01  0.19819216970E-01  0.72863408212E-02  0.23579612317E-01  0.00000000000E+00 0. -1.
     999901    1    3    3    0    0 -0.78680254136E-01 -0.82038322606E-01  0.62746923376E-01  0.88952686590E+00  0.88000000000E+00 0. -1.
        -11    1    4    4    0    0  0.22776402821E-01  0.62752099594E-02 -0.13482247494E-01  0.27206155627E-01  0.51100000000E-03 0. -1.
         11    1    4    4    0    0  0.66396991606E-01  0.55943895677E-01 -0.56551016703E-01  0.10361736616E+00  0.51100000000E-03 0.  1.
</event>
<event>
 8    1  0.1150307E+005  0.1043930E+01  0.7957747E-01            NaN
         13   -1    0    0    0    0  0.00000000000E+00  0.00000000000E+00  0.74505805969E-08  0.10566000000E+00  0.10566000000E+00 0.  1.
     999900   -1    0    0    0    0 -0.00000000000E+00 -0.00000000000E+00 -0.74505805969E-08  0.93827000000E+00  0.93827000000E+00 0.  1.
     999902    2    1    2    0    0 -0.45877743910E-02  0.22274694304E-01  0.54976077917E-02  0.10205327059E+01  0.10202644610E+01 0.  0.
     999903    2    3    3    0    0 -0.28160451621E-01  0.10088745846E+00  0.80484758940E-01  0.13353850600E+00  0.19581773529E-01 0.  0.
         14    1    1    2    0    0  0.45877743910E-02 -0.22274694304E-01 -0.54976077917E-02  0.23397294109E-01  0.00000000000E+00 0.  1.
     999901    1    3    3    0    0  0.23572677230E-01 -0.78612764152E-01 -0.74987151148E-01  0.88699419989E+00  0.88000000000E+00 0.  1.
        -11    1    4    4    0    0 -0.21372219877E-01  0.71616371768E-01  0.67832157228E-01  0.10093135867E+00  0.51100000000E-03 0.  1.
         11    1    4    4    0    0 -0.67882317444E-02  0.29271086688E-01  0.12652601712E-01  0.32607147333E-01  0.51100000000E-03 0. -1.
</event>
<event>
 8    1  0.1150307E+005  0.1043930E+01  0.7957747E-01            NaN
         13   -1    0    0    0    0  0.00000000000E+00  0.00000000000E+00  0.74505805969E-08  0.10566000000E+00  0.10566000000E+00 0. -1.
     999900   -1    0    0    0    0 -0.00000000000E+00 -0.00000000000E+00 -0.74505805969E-08  0.93827000000E+00  0.93827000000E+00 0. -1.
     999902    2    1    2    0    0 -0.15003607805E-01 -0.12803578152E-01 -0.13816317331E-01  0.10198482541E+01  0.10195638925E+01 0.  0.
     999903    2    3    3    0    0 -0.99669743183E-01 -0.53239939259E-01  0.59631546431E-01  0.13181782531E+00  0.32426361207E-01 0.  0.
         14    1    1    2    0    0  0.15003607805E-01  0.12803578152E-01  0.13816317331E-01  0.24081745893E-01  0.00000000000E+00 0. -1.
     999901    1    3    3    0    0  0.84666135377E-01  0.40436361106E-01 -0.73447863762E-01  0.88803042880E+00  0.88000000000E+00 0.  1.
        -11    1    4    4    0    0 -0.48514945174E-01 -0.22522128531E-01  0.46139279145E-01  0.70640217863E-01  0.51100000000E-03 0.  1.
         11    1    4    4    0    0 -0.51154798009E-01 -0.30717810728E-01  0.13492267286E-01  0.61177607446E-01  0.51100000000E-03 0. -1.
</event>
<event>
 8    1  0.1150307E+005  0.1043930E+01  0.7957747E-01            NaN
         13   -1    0    0    0    0  0.00000000000E+00  0.00000000000E+00  0.74505805969E-08  0.10566000000E+00  0.10566000000E+00 0. -1.
     999900   -1    0    0    0    0 -0.00000000000E+00 -0.00000000000E+00 -0.74505805969E-08  0.93827000000E+00  0.93827000000E+00 0.  1.
     999902    2    1    2    0    0 -0.22652783633E-01 -0.55896728396E-02 -0.50478596813E-02  0.10200579675E+01  0.10197785951E+01 0.  0.
     999903    2    3    3    0    0  0.11555726457E+00  0.89199928722E-02 -0.50218305332E-01  0.12800812752E+00  0.20764268685E-01 0.  0.
         14    1    1    2    0    0  0.22652783633E-01  0.55896728396E-02  0.50478596813E-02  0.23872032510E-01  0.00000000000E+00 0. -1.
     999901    1    3    3    0    0 -0.13821004820E+00 -0.14509665712E-01  0.45170445651E-01  0.89204983997E+00  0.88000000000E+00 0.  1.
        -11    1    4    4    0    0  0.85775599236E-01  0.27638285355E-02 -0.45785925018E-01  0.97271291876E-01  0.51100000000E-03 0.  1.
         11    1    4    4    0    0  0.29781665334E-01  0.61561643367E-02 -0.44323803140E-02  0.30736835648E-01  0.51100000000E-03 0. -1.
</event>
<event>
 8    1  0.1150307E+005  0.1043930E+01  0.7957747E-01            NaN
         13   -1    0    0    0    0  0.00000000000E+00  0.00000000000E+00  0.74505805969E-08  0.10566000000E+00  0.10566000000E+00 0.  1.
     999900   -1    0    0    0    0 -0.00000000000E+00 -0.00000000000E+00 -0.74505805969E-08  0.93827000000E+00  0.93827000000E+00 0. -1.
     999902    2    1    2    0    0  0.23568740744E-02  0.24082961699E-01 -0.18805813599E-02  0.10196590197E+01  0.10193701172E+01 0.  0.
     999903    2    3    3    0    0  0.69578512422E-01  0.10563859641E+00  0.34262206562E-01  0.13259849675E+00  0.20193565821E-01 0.  0.
         14    1    1    2    0    0 -0.23568740744E-02 -0.24082961699E-01  0.18805813599E-02  0.24270980323E-01  0.00000000000E+00 0.  1.
     999901    1    3    3    0    0 -0.67221638347E-01 -0.81555634708E-01 -0.36142787922E-01  0.88706052293E+00  0.88000000000E+00 0. -1.
        -11    1    4    4    0    0  0.39855656276E-01  0.63253496066E-01  0.10019946139E-01  0.75433006989E-01  0.51100000000E-03 0. -1.
         11    1    4    4    0    0  0.29722856145E-01  0.42385100341E-01  0.24242260423E-01  0.57165489762E-01  0.51100000000E-03 0.  1.
</event>
<event>
 8    1  0.1150307E+005  0.1043930E+01  0.7957747E-01            NaN
         13   -1    0    0    0    0  0.00000000000E+00  0.00000000000E+00  0.74505805969E-08  0.10566000000E+00  0.10566000000E+00 0.  1.
     999900   -1    0    0    0    0 -0.00000000000E+00 -0.00000000000E+00 -0.74505805969E-08  0.93827000000E+00  0.93827000000E+00 0. -1.
     999902    2    1    2    0    0 -0.13955627511E-01  0.17458515212E-01 -0.84973836373E-02  0.10200183957E+01  0.10197380853E+01 0.  0.
     999903    2    3    3    0    0  0.12575613364E+00 -0.97592794408E-03 -0.18408239826E-01  0.12875107889E+00  0.20552845026E-01 0.  0.
         14    1    1    2    0    0  0.13955627511E-01 -0.17458515212E-01  0.84973836373E-02  0.23911604323E-01  0.00000000000E+00 0. -1.
     999901    1    3    3    0    0 -0.13971176115E+00  0.18434443156E-01  0.99108561892E-02  0.89126731678E+00  0.88000000000E+00 0. -1.
        -11    1    4    4    0    0  0.86550730508E-01  0.20509342829E-02 -0.21802142657E-01  0.89279503966E-01  0.51100000000E-03 0. -1.
         11    1    4    4    0    0  0.39205403133E-01 -0.30268622270E-02  0.33939028302E-02  0.39471574926E-01  0.51100000000E-03 0.  1.
</event>
<event>
 8    1  0.1150307E+005  0.1043930E+01  0.7957747E-01            NaN
         13   -1    0    0    0    0  0.00000000000E+00  0.00000000000E+00  0.74505805969E-08  0.10566000000E+00  0.10566000000E+00 0.  1.
     999900   -1    0    0    0    0 -0.00000000000E+00 -0.00000000000E+00 -0.74505805969E-08  0.93827000000E+00  0.93827000000E+00 0.  1.
     999902    2    1    2    0    0 -0.15830895647E-01 -0.14566993043E-01 -0.98752629941E-02  0.10202585961E+01  0.10199839546E+01 0.  0.
     999903    2    3    3    0    0 -0.14919939604E-01 -0.12743807334E+00  0.25477740666E-01  0.13234500488E+00  0.20075306064E-01 0.  0.
         14    1    1    2    0    0  0.15830895647E-01  0.14566993043E-01  0.98752629941E-02  0.23671403898E-01  0.00000000000E+00 0.  1.
     999901    1    3    3    0    0 -0.91095604340E-03  0.11287108029E+00 -0.35353003660E-01  0.88791359122E+00  0.88000000000E+00 0.  1.
        -11    1    4    4    0    0 -0.14076171663E-01 -0.70612173631E-01  0.59475400364E-02  0.72248543425E-01  0.51100000000E-03 0. -1.
         11    1    4    4    0    0 -0.84376794082E-03 -0.56825899707E-01  0.19530200630E-01  0.60096461455E-01  0.51100000000E-03 0.  1.
</event>
<event>
 8    1  0.1150307E+005  0.1043930E+01  0.7957747E-01            NaN
         13   -1    0    0    0    0  0.00000000000E+00  0.00000000000E+00  0.74505805969E-08  0.10566000000E+00  0.10566000000E+00 0. -1.
     999900   -1    0    0    0    0 -0.00000000000E+00 -0.00000000000E+00 -0.74505805969E-08  0.93827000000E+00  0.93827000000E+00 0.  1.
     999902    2    1    2    0    0 -0.48580775654E-02  0.21684058498E-01  0.70950831281E-02  0.10206032018E+01  0.10203365895E+01 0.  0.
     999903    2    3    3    0    0  0.59759031451E-02 -0.51072573151E-01  0.11832678941E+00  0.13055635185E+00  0.19990316913E-01 0.  0.
         14    1    1    2    0    0  0.48580775654E-02 -0.21684058498E-01 -0.70950831281E-02  0.23326798219E-01  0.00000000000E+00 0.  1.
     999901    1    3    3    0    0 -0.10833980710E-01  0.72756631649E-01 -0.11123170628E+00  0.89004684993E+00  0.88000000000E+00 0.  1.
        -11    1    4    4    0    0 -0.14531121738E-02 -0.20074577678E-01  0.26022749356E-01  0.32902048705E-01  0.51100000000E-03 0. -1.
         11    1    4    4    0    0  0.74290153189E-02 -0.30997995473E-01  0.92304040053E-01  0.97654303146E-01  0.51100000000E-03 0.  1.
</event>
<event>
 8    1  0.1150307E+005  0.1043930E+01  0.7957747E-01            NaN
         13   -1    0    0    0    0  0.00000000000E+00  0.00000000000E+00  0.74505805969E-08  0.10566000000E+00  0.10566000000E+00 0. -1.
     999900   -1    0    0    0    0 -0.00000000000E+00 -0.00000000000E+00 -0.74505805969E-08  0.93827000000E+00  0.93827000000E+00 0. -1.
     999902    2    1    2    0    0 -0.10324869208E-01 -0.44629106899E-02  0.20389914229E-01  0.10206433279E+01  0.10203776427E+01 0.  0.
     999903    2    3    3    0    0 -0.70312817365E-01 -0.26362251190E-01  0.10915008284E+00  0.13387588229E+00  0.19239300954E-01 0.  0.
         14    1    1    2    0    0  0.10324869208E-01  0.44629106899E-02 -0.20389914229E-01  0.23286672117E-01  0.00000000000E+00 0.  1.
     999901    1    3    3    0    0  0.59987948157E-01  0.21899340500E-01 -0.88760168607E-01  0.88676744560E+00  0.88000000000E+00 0. -1.
        -11    1    4    4    0    0 -0.44282881656E-01 -0.14080807067E-01  0.82287937690E-01  0.94502955222E-01  0.51100000000E-03 0.  1.
         11    1    4    4    0    0 -0.26029935709E-01 -0.12281444123E-01  0.26862145147E-01  0.39372927065E-01  0.51100000000E-03 0. -1.
</event>
<event>
 8    1  0.1150307E+005  0.1043930E+01  0.7957747E-01            NaN
         13   -1    0    0    0    0  0.00000000000E+00  0.00000000000E+00  0.74505805969E-08  0.10566000000E+00  0.10566000000E+00 0.  1.
     999900   -1    0    0    0    0 -0.00000000000E+00 -0.00000000000E+00 -0.74505805969E-08  0.93827000000E+00  0.93827000000E+00 0. -1.
     999902    2    1    2    0    0  0.15199422846E-01 -0.17303082786E-01  0.57445547918E-02  0.10201935504E+01  0.10199173796E+01 0.  0.
     999903    2    3    3    0    0 -0.89473554979E-01  0.46201391029E-01 -0.77753402457E-01  0.12780285160E+00  0.12161073553E-01 0.  0.
         14    1    1    2    0    0 -0.15199422846E-01  0.17303082786E-01 -0.57445547918E-02  0.23736449577E-01  0.00000000000E+00 0.  1.
     999901    1    3    3    0    0  0.10467297783E+00 -0.63504473814E-01  0.83497957249E-01  0.89239069882E+00  0.88000000000E+00 0.  1.
        -11    1    4    4    0    0 -0.56956657867E-02  0.39319822563E-02 -0.95115243203E-02  0.11774179764E-01  0.51100000000E-03 0.  1.
         11    1    4    4    0    0 -0.83777889192E-01  0.42269408773E-01 -0.68241878137E-01  0.11602867184E+00  0.51100000000E-03 0. -1.
</event>
<event>
 8    1  0.1150307E+005  0.1043930E+01  0.7957747E-01            NaN
         13   -1    0    0    0    0  0.00000000000E+00  0.00000000000E+00  0.74505805969E-08  0.10566000000E+00  0.10566000000E+00 0.  1.
     999900   -1    0    0    0    0 -0.00000000000E+00 -0.00000000000E+00 -0.74505805969E-08  0.93827000000E+00  0.93827000000E+00 0.  1.
     999902    2    1    2    0    0  0.53828779614E-02  0.23174812064E-02 -0.23019830013E-01  0.10201758705E+01  0.10198992833E+01 0.  0.
     999903    2    3    3    0    0  0.30475390947E-01  0.97807950320E-01  0.76081129585E-01  0.12912645319E+00  0.19752418479E-01 0.  0.
         14    1    1    2    0    0 -0.53828779614E-02 -0.23174812064E-02  0.23019830013E-01  0.23754129496E-01  0.00000000000E+00 0.  1.
     999901    1    3    3    0    0 -0.25092512986E-01 -0.95490469113E-01 -0.99100959598E-01  0.89104941731E+00  0.88000000000E+00 0.  1.
        -11    1    4    4    0    0  0.25784031598E-01  0.80861845146E-01  0.52840693287E-01  0.99979269221E-01  0.51100000000E-03 0.  1.
         11    1    4    4    0    0  0.46913593489E-02  0.16946105174E-01  0.23240436298E-01  0.29147183971E-01  0.51100000000E-03 0. -1.
</event>
<event>
 8    1  0.1150307E+005  0.1043930E+01  0.7957747E-01            NaN
         13   -1    0    0    0    0  0.00000000000E+00  0.00000000000E+00  0.74505805969E-08  0.10566000000E+00  0.10566000000E+00 0.  1.
     999900   -1    0    0    0    0 -0.00000000000E+00 -0.00000000000E+00 -0.74505805969E-08  0.93827000000E+00  0.93827000000E+00 0.  1.
     999902    2    1    2    0    0  0.60357768727E-02  0.77120544172E-02  0.20497312210E-01  0.10212133499E+01  0.10209606553E+01 0.  0.
     999903    2    3    3    0    0  0.78531576101E-01 -0.92998998762E-01 -0.41981425969E-01  0.13031383259E+00  0.20080652960E-01 0.  0.
         14    1    1    2    0    0 -0.60357768727E-02 -0.77120544172E-02 -0.20497312210E-01  0.22716650141E-01  0.00000000000E+00 0. -1.
     999901    1    3    3    0    0 -0.72495799229E-01  0.10071105318E+00  0.62478738179E-01  0.89089951726E+00  0.88000000000E+00 0. -1.
        -11    1    4    4    0    0  0.26152794419E-01 -0.41127275622E-01 -0.90510353384E-02  0.49574225337E-01  0.51100000000E-03 0.  1.
         11    1    4    4    0    0  0.52378781683E-01 -0.51871723140E-01 -0.32930390631E-01  0.80739607258E-01  0.51100000000E-03 0. -1.
</event>
<event>
 8    1  0.1150307E+005  0.1043930E+01  0.7957747E-01            NaN
         13   -1    0    0    0    0  0.00000000000E+00  0.00000000000E+00  0.74505805969E-08  0.10566000000E+00  0.10566000000E+00 0.  1.
     999900   -1    0    0    0    0 -0.00000000000E+00 -0.00000000000E+00 -0.74505805969E-08  0.93827000000E+00  0.93827000000E+00 0. -1.
     999902    2    1    2    0    0  0.17080950660E-01  0.11514737928E-01  0.76188200127E-02  0.10219665193E+01  0.10217304792E+01 0.  0.
     999903    2    3    3    0    0 -0.47328333889E-01  0.12096840997E+00  0.18373701066E-01  0.13278468768E+00  0.20514701837E-01 0.  0.
         14    1    1    2    0    0 -0.17080950660E-01 -0.11514737928E-01 -0.76188200127E-02  0.21963480675E-01  0.00000000000E+00 0.  1.
     999901    1    3    3    0    0  0.64409284549E-01 -0.10945367204E+00 -0.10754881053E-01  0.88918183164E+00  0.88000000000E+00 0.  1.
        -11    1    4    4    0    0 -0.42847801998E-01  0.84761425471E-01  0.14796752407E-01  0.96123037753E-01  0.51100000000E-03 0. -1.
         11    1    4    4    0    0 -0.44805318911E-02  0.36206984501E-01  0.35769486586E-02  0.36661649928E-01  0.51100000000E-03 0.  1.
</event>
<event>
 8    1  0.1150307E+005  0.1043930E+01  0.7957747E-01            NaN
         13   -1    0    0    0    0  0.00000000000E+00  0.00000000000E+00  0.74505805969E-08  0.10566000000E+00  0.10566000000E+00 0.  1.
     999900   -1    0    0    0    0 -0.00000000000E+00 -0.00000000000E+00 -0.74505805969E-08  0.93827000000E+00  0.93827000000E+00 0.  1.
     999902    2    1    2    0    0  0.23375157365E-01  0.19070492429E-02 -0.43361544961E-02  0.10200796949E+01  0.10198008369E+01 0.  0.
     999903    2    3    3    0    0  0.45716382322E-01  0.11686127180E+00 -0.34915886994E-01  0.13179554909E+00  0.20109777110E-01 0.  0.
         14    1    1    2    0    0 -0.23375157365E-01 -0.19070492429E-02  0.43361544961E-02  0.23850305123E-01  0.00000000000E+00 0.  1.
     999901    1    3    3    0    0 -0.22341224956E-01 -0.11495422256E+00  0.30579732498E-01  0.88828414579E+00  0.88000000000E+00 0. -1.
        -11    1    4    4    0    0  0.34409581056E-01  0.66718052339E-01 -0.27035229026E-01  0.79790240668E-01  0.51100000000E-03 0. -1.
         11    1    4    4    0    0  0.11306801265E-01  0.50143219464E-01 -0.78806579677E-02  0.52005308422E-01  0.51100000000E-03 0.  1.
</event>
<event>
 8    1  0.1150307E+005  0.1043930E+01  0.7957747E-01            NaN
         13   -1    0    0    0    0  0.00000000000E+00  0.00000000000E+00  0.74505805969E-08  0.10566000000E+00  0.10566000000E+00 0.  1.
     999900   -1    0    0    0    0 -0.00000000000E+00 -0.00000000000E+00 -0.74505805969E-08  0.93827000000E+00  0.93827000000E+00 0.  1.
     999902    2    1    2    0    0  0.22119108658E-01  0.89939101885E-02  0.74430961699E-02  0.10189191010E+01  0.10186120897E+01 0.  0.
     999903    2    3    3    0    0 -0.74361802329E-01 -0.99702239729E-01  0.15076016875E-01  0.12696524531E+00  0.20559012139E-01 0.  0.
         14    1    1    2    0    0 -0.22119108658E-01 -0.89939101885E-02 -0.74430961699E-02  0.25010899002E-01  0.00000000000E+00 0. -1.
     999901    1    3    3    0    0  0.96480910987E-01  0.10869614992E+00 -0.76329207047E-02  0.89195385568E+00  0.88000000000E+00 0. -1.
        -11    1    4    4    0    0 -0.46623410524E-01 -0.65588017011E-01  0.19412953763E-01  0.82780760321E-01  0.51100000000E-03 0.  1.
         11    1    4    4    0    0 -0.27738391804E-01 -0.34114222718E-01 -0.43369368886E-02  0.44184484993E-01  0.51100000000E-03 0. -1.
</event>
<event>
 8    1  0.1150307E+005  0.1043930E+01  0.7957747E-01            NaN
         13   -1    0    0    0    0  0.00000000000E+00  0.00000000000E+00  0.74505805969E-08  0.10566000000E+00  0.10566000000E+00 0.  1.
     999900   -1    0    0    0    0 -0.00000000000E+00 -0.00000000000E+00 -0.74505805969E-08  0.93827000000E+00  0.93827000000E+00 0. -1.
     999902    2    1    2    0    0  0.87995449213E-02 -0.20706031821E-01  0.74402876615E-02  0.10202333837E+01  0.10199581499E+01 0.  0.
     999903    2    3    3    0    0  0.76625199930E-01 -0.11562730726E-02  0.10588317457E+00  0.13193528364E+00  0.17969813031E-01 0.  0.
         14    1    1    2    0    0 -0.87995449213E-02  0.20706031821E-01 -0.74402876615E-02  0.23696616322E-01  0.00000000000E+00 0. -1.
     999901    1    3    3    0    0 -0.67825655009E-01 -0.19549758749E-01 -0.98442886911E-01  0.88829810004E+00  0.88000000000E+00 0. -1.
        -11    1    4    4    0    0  0.48359004907E-01 -0.70295713734E-02  0.56248360819E-01  0.74512733443E-01  0.51100000000E-03 0. -1.
         11    1    4    4    0    0  0.28266195023E-01  0.58732983008E-02  0.49634813754E-01  0.57422550200E-01  0.51100000000E-03 0.  1.
</event>
<event>
 8    1  0.1150307E+005  0.1043930E+01  0.7957747E-01            NaN
         13   -1    0    0    0    0  0.00000000000E+00  0.00000000000E+00  0.74505805969E-08  0.10566000000E+00  0.10566000000E+00 0. -1.
     999900   -1    0    0    0    0 -0.00000000000E+00 -0.00000000000E+00 -0.74505805969E-08  0.93827000000E+00  0.93827000000E+00 0. -1.
     999902    2    1    2    0    0  0.28337262751E-02 -0.18577247013E-02  0.22661771350E-01  0.10210163136E+01  0.10207591663E+01 0.  0.
     999903    2    3    3    0    0 -0.50437673345E-01 -0.11351413451E+00  0.40381770450E-01  0.13218618680E+00  0.20324442649E-01 0.  0.
         14    1    1    2    0    0 -0.28337262751E-02  0.18577247013E-02 -0.22661771350E-01  0.22913686442E-01  0.00000000000E+00 0.  1.
     999901    1    3    3    0    0  0.53271399620E-01  0.11165640981E+00 -0.17719999100E-01  0.88883012676E+00  0.88000000000E+00 0. -1.
        -11    1    4    4    0    0 -0.29108538800E-01 -0.87538079558E-01  0.29616169507E-01  0.96889633197E-01  0.51100000000E-03 0.  1.
         11    1    4    4    0    0 -0.21329134545E-01 -0.25976054953E-01  0.10765600942E-01  0.35296553600E-01  0.51100000000E-03 0. -1.
</event>
<event>
 8    1  0.1150307E+005  0.1043930E+01  0.7957747E-01            NaN
         13   -1    0    0    0    0  0.00000000000E+00  0.00000000000E+00  0.74505805969E-08  0.10566000000E+00  0.10566000000E+00 0.  1.
     999900   -1    0    0    0    0 -0.00000000000E+00 -0.00000000000E+00 -0.74505805969E-08  0.93827000000E+00  0.93827000000E+00 0. -1.
     999902    2    1    2    0    0  0.16008898812E-01 -0.10498477591E-01 -0.21629185189E-01  0.10150453237E+01  0.10146342615E+01 0.  0.
     999903    2    3    3    0    0  0.60268815834E-01  0.57917820276E-01  0.89474933821E-01  0.12432434869E+00  0.21540098120E-01 0.  0.
         14    1    1    2    0    0 -0.16008898812E-01  0.10498477591E-01  0.21629185189E-01  0.28884676298E-01  0.00000000000E+00 0. -1.
     999901    1    3    3    0    0 -0.44259917022E-01 -0.68416297867E-01 -0.11110411901E+00  0.89072097501E+00  0.88000000000E+00 0. -1.
        -11    1    4    4    0    0  0.42888753774E-01  0.35562725744E-01  0.72019672165E-01  0.91056284585E-01  0.51100000000E-03 0.  1.
         11    1    4    4    0    0  0.17380062060E-01  0.22355094531E-01  0.17455261656E-01  0.33268064103E-01  0.51100000000E-03 0. -1.
</event>
<event>
 8    1  0.1150307E+005  0.1043930E+01  0.7957747E-01            NaN
         13   -1    0    0    0    0  0.00000000000E+00  0.00000000000E+00  0.74505805969E-08  0.10566000000E+00  0.10566000000E+00 0. -1.
     999900   -1    0    0    0    0 -0.00000000000E+00 -0.00000000000E+00 -0.74505805969E-08  0.93827000000E+00  0.93827000000E+00 0.  1.
     999902    2    1    2    0    0 -0.19943943831E-01  0.11561271629E-01 -0.76050908628E-02  0.10196552950E+01  0.10193663028E+01 0.  0.
     999903    2    3    3    0    0 -0.70521807294E-01  0.63081689642E-01 -0.90845173130E-01  0.13278361032E+00  0.20640174799E-01 0.  0.
         14    1    1    2    0    0  0.19943943831E-01 -0.11561271629E-01  0.76050908628E-02  0.24274705029E-01  0.00000000000E+00 0.  1.
     999901    1    3    3    0    0  0.50577863462E-01 -0.51520418013E-01  0.83240082267E-01  0.88687168465E+00  0.88000000000E+00 0. -1.
        -11    1    4    4    0    0 -0.34820191366E-01  0.43153210339E-01 -0.45547118293E-01  0.71759643221E-01  0.51100000000E-03 0. -1.
         11    1    4    4    0    0 -0.35701615928E-01  0.19928479303E-01 -0.45298054837E-01  0.61023967096E-01  0.51100000000E-03 0.  1.
</event>
<event>
 8    1  0.1150307E+005  0.1043930E+01  0.7957747E-01            NaN
         13   -1    0    0    0    0  0.00000000000E+00  0.00000000000E+00  0.74505805969E-08  0.10566000000E+00  0.10566000000E+00 0. -1.
     999900   -1    0    0    0    0 -0.00000000000E+00 -0.00000000000E+00 -0.74505805969E-08  0.93827000000E+00  0.93827000000E+00 0.  1.
     999902    2    1    2    0    0 -0.18611303094E-01 -0.11431424616E-01 -0.71540447828E-02  0.10209465619E+01  0.10206878288E+01 0.  0.
     999903    2    3    3    0    0  0.71849056010E-01  0.10200222262E+00 -0.25983552566E-01  0.12886763080E+00  0.19104475809E-01 0.  0.
         14    1    1    2    0    0  0.18611303094E-01  0.11431424616E-01  0.71540447828E-02  0.22983438132E-01  0.00000000000E+00 0. -1.
     999901    1    3    3    0    0 -0.90460359103E-01 -0.11343364723E+00  0.18829507783E-01  0.89207893107E+00  0.88000000000E+00 0. -1.
        -11    1    4    4    0    0  0.29735163932E-01  0.26850537223E-01 -0.77274949567E-02  0.40805718012E-01  0.51100000000E-03 0.  1.
         11    1    4    4    0    0  0.42113892078E-01  0.75151685393E-01 -0.18256057609E-01  0.88061912787E-01  0.51100000000E-03 0. -1.
</event>
<event>
 8    1  0.1150307E+005  0.1043930E+01  0.7957747E-01            NaN
         13   -1    0    0    0    0  0.00000000000E+00  0.00000000000E+00  0.74505805969E-08  0.10566000000E+00  0.10566000000E+00 0. -1.
     999900   -1    0    0    0    0 -0.00000000000E+00 -0.00000000000E+00 -0.74505805969E-08  0.93827000000E+00  0.93827000000E+00 0. -1.
     999902    2    1    2    0    0 -0.96351249686E-02 -0.20321875145E-01 -0.77615607100E-02  0.10201380672E+01  0.10198605885E+01 0.  0.
     999903    2    3    3    0    0  0.90861698910E-01  0.10060572598E-01 -0.90325968288E-01  0.13005965146E+00  0.19991721789E-01 0.  0.
         14    1    1    2    0    0  0.96351249686E-02  0.20321875145E-01  0.77615607100E-02  0.23791932818E-01  0.00000000000E+00 0. -1.
     999901    1    3    3    0    0 -0.10049682388E+00 -0.30382447743E-01  0.82564407578E-01  0.89007841572E+00  0.88000000000E+00 0.  1.
        -11    1    4    4    0    0  0.32390784953E-01  0.11914865552E-01 -0.40512238891E-01  0.53222453833E-01  0.51100000000E-03 0. -1.
         11    1    4    4    0    0  0.58470913957E-01 -0.18542929538E-02 -0.49813729397E-01  0.76837197625E-01  0.51100000000E-03 0.  1.
</event>
<event>
 8    1  0.1150307E+005  0.1043930E+01  0.7957747E-01            NaN
         13   -1    0    0    0    0  0.00000000000E+00  0.00000000000E+00  0.74505805969E-08  0.10566000000E+00  0.10566000000E+00 0. -1.
     999900   -1    0    0    0    0 -0.00000000000E+00 -0.00000000000E+00 -0.74505805969E-08  0.93827000000E+00  0.93827000000E+00 0.  1.
     999902    2    1    2    0    0  0.23289809631E-01  0.13811519561E-02  0.12204493926E-02  0.10205673736E+01  0.10202999323E+01 0.  0.
     999903    2    3    3    0    0  0.36376874199E-02 -0.12296941296E-01  0.12885883798E+00  0.13103668031E+00  0.20039060035E-01 0.  0.
         14    1    1    2    0    0 -0.23289809631E-01 -0.13811519561E-02 -0.12204493926E-02  0.23362626352E-01  0.00000000000E+00 0.  1.
     999901    1    3    3    0    0  0.19652122211E-01  0.13678093253E-01 -0.12763838859E+00  0.88953069333E+00  0.88000000000E+00 0. -1.
        -11    1    4    4    0    0  0.97721599698E-02  0.27766527135E-03  0.52417243267E-01  0.53323547531E-01  0.51100000000E-03 0. -1.
         11    1    4    4    0    0 -0.61344725498E-02 -0.12574606568E-01  0.76441594712E-01  0.77713132783E-01  0.51100000000E-03 0.  1.
</event>
<event>
 8    1  0.1150307E+005  0.1043930E+01  0.7957747E-01            NaN
         13   -1    0    0    0    0  0.00000000000E+00  0.00000000000E+00  0.74505805969E-08  0.10566000000E+00  0.10566000000E+00 0.  1.
     999900   -1    0    0    0    0 -0.00000000000E+00 -0.00000000000E+00 -0.74505805969E-08  0.93827000000E+00  0.93827000000E+00 0. -1.
     999902    2    1    2    0    0 -0.12919801358E-01 -0.17433991650E-01 -0.10395538741E-01  0.10198689826E+01  0.10195851162E+01 0.  0.
     999903    2    3    3    0    0 -0.72970677491E-01  0.69027156758E-01  0.78801345344E-01  0.12911777041E+00  0.19294519023E-01 0.  0.
         14    1    1    2    0    0  0.12919801358E-01  0.17433991650E-01  0.10395538741E-01  0.24061017387E-01  0.00000000000E+00 0.  1.
     999901    1    3    3    0    0  0.60050876132E-01 -0.86461148408E-01 -0.89196884085E-01  0.89075121220E+00  0.88000000000E+00 0. -1.
        -11    1    4    4    0    0 -0.51572739431E-03  0.60360381014E-02  0.29332594023E-02  0.67501749925E-02  0.51100000000E-03 0.  1.
         11    1    4    4    0    0 -0.72454950096E-01  0.62991118657E-01  0.75868085941E-01  0.12236759542E+00  0.51100000000E-03 0. -1.
</event>
<event>
 8    1  0.1150307E+005  0.1043930E+01  0.7957747E-01            NaN
         13   -1    0    0    0    0  0.00000000000E+00  0.00000000000E+00  0.74505805969E-08  0.10566000000E+00  0.10566000000E+00 0. -1.
     999900   -1    0    0    0    0 -0.00000000000E+00 -0.00000000000E+00 -0.74505805969E-08  0.93827000000E+00  0.93827000000E+00 0.  1.
     999902    2    1    2    0    0  0.78486891679E-03 -0.30441591564E-01  0.56037148212E-02  0.10129669876E+01  0.10124936592E+01 0.  0.
     999903    2    3    3    0    0  0.10689829793E+00 -0.19818372199E-01 -0.54125688807E-01  0.12451861305E+00  0.27482373106E-01 0.  0.
         14    1    1    2    0    0 -0.78486891679E-03  0.30441591564E-01 -0.56037148212E-02  0.30963012385E-01  0.00000000000E+00 0.  1.
     999901    1    3    3    0    0 -0.10611342901E+00 -0.10623219365E-01  0.59729403628E-01  0.88844837456E+00  0.88000000000E+00 0. -1.
        -11    1    4    4    0    0  0.66462487108E-01  0.99376481805E-03 -0.35654607537E-01  0.75430510542E-01  0.51100000000E-03 0. -1.
         11    1    4    4    0    0  0.40435810818E-01 -0.20812137017E-01 -0.18471081270E-01  0.49088102510E-01  0.51100000000E-03 0.  1.
</event>
<event>
 8    1  0.1150307E+005  0.1043930E+01  0.7957747E-01            NaN
         13   -1    0    0    0    0  0.00000000000E+00  0.00000000000E+00  0.74505805969E-08  0.10566000000E+00  0.10566000000E+00 0. -1.
     999900   -1    0    0    0    0 -0.00000000000E+00 -0.00000000000E+00 -0.74505805969E-08  0.93827000000E+00  0.93827000000E+00 0. -1.
     999902    2    1    2    0    0 -0.28036952965E-02 -0.21619251739E-01 -0.65834866865E-02  0.10211573179E+01  0.10209033612E+01 0.  0.
     999903    2    3    3    0    0 -0.12261893188E+00  0.37325252949E-01 -0.20676686590E-01  0.13097263828E+00  0.17254844135E-01 0.  0.
         14    1    1    2    0    0  0.28036952965E-02  0.21619251739E-01  0.65834866865E-02  0.22772682100E-01  0.00000000000E+00 0. -1.
     999901    1    3    3    0    0  0.11981523658E+00 -0.58944504688E-01  0.14093199903E-01  0.89018467962E+00  0.88000000000E+00 0. -1.
        -11    1    4    4    0    0 -0.92228392009E-01  0.35448264107E-01 -0.13970501752E-01  0.99790238806E-01  0.51100000000E-03 0.  1.
         11    1    4    4    0    0 -0.30390539871E-01  0.18769888421E-02 -0.67061848378E-02  0.31182399472E-01  0.51100000000E-03 0. -1.
</event>
<event>
 8    1  0.1150307E+005  0.1043930E+01  0.7957747E-01            NaN
         13   -1    0    0    0    0  0.00000000000E+00  0.00000000000E+00  0.74505805969E-08  0.10566000000E+00  0.10566000000E+00 0.  1.
     999900   -1    0    0    0    0 -0.00000000000E+00 -0.00000000000E+00 -0.74505805969E-08  0.93827000000E+00  0.93827000000E+00 0.  1.
     999902    2    1    2    0    0  0.23527518755E-01 -0.58886016621E-02  0.24733525596E-02  0.10195509672E+01  0.10192594554E+01 0.  0.
     999903    2    3    3    0    0  0.57483422198E-01 -0.82096610041E-01  0.83133770581E-01  0.13193237400E+00  0.21230409587E-01 0.  0.
         14    1    1    2    0    0 -0.23527518755E-01  0.58886016621E-02 -0.24733525596E-02  0.24379032819E-01  0.00000000000E+00 0.  1.
     999901    1    3    3    0    0 -0.33955903442E-01  0.76208008379E-01 -0.80660418021E-01  0.88761859318E+00  0.88000000000E+00 0.  1.
        -11    1    4    4    0    0  0.56733166449E-02 -0.22167523553E-01  0.23240268689E-01  0.32618351153E-01  0.51100000000E-03 0. -1.
         11    1    4    4    0    0  0.51810105553E-01 -0.59929086488E-01  0.59893501892E-01  0.99314022850E-01  0.51100000000E-03 0.  1.
</event>
<event>
 8    1  0.1150307E+005  0.1043930E+01  0.7957747E-01            NaN
         13   -1    0    0    0    0  0.00000000000E+00  0.00000000000E+00  0.74505805969E-08  0.10566000000E+00  0.10566000000E+00 0. -1.
     999900   -1    0    0    0    0 -0.00000000000E+00 -0.00000000000E+00 -0.74505805969E-08  0.93827000000E+00  0.93827000000E+00 0. -1.
     999902    2    1    2    0    0  0.40307803385E-02  0.22076691538E-01  0.38652000287E-02  0.10211579278E+01  0.10209039849E+01 0.  0.
     999903    2    3    3    0    0  0.57245573103E-02 -0.12520159321E+00 -0.20914007885E-01  0.12857304605E+00  0.19632191573E-01 0.  0.
         14    1    1    2    0    0 -0.40307803385E-02 -0.22076691538E-01 -0.38652000287E-02  0.22772072164E-01  0.00000000000E+00 0.  1.
     999901    1    3    3    0    0 -0.16937769718E-02  0.14727828475E+00  0.24779207914E-01  0.89258488178E+00  0.88000000000E+00 0. -1.
        -11    1    4    4    0    0  0.81392616215E-02 -0.74297234418E-01 -0.39047930104E-02  0.74845408352E-01  0.51100000000E-03 0. -1.
         11    1    4    4    0    0 -0.24147043111E-02 -0.50904358797E-01 -0.17009214875E-01  0.53727637702E-01  0.51100000000E-03 0.  1.
</event>
<event>
 8    1  0.1150307E+005  0.1043930E+01  0.7957747E-01            NaN
         13   -1    0    0    0    0  0.00000000000E+00  0.00000000000E+00  0.74505805969E-08  0.10566000000E+00  0.10566000000E+00 0. -1.
     999900   -1    0    0    0    0 -0.00000000000E+00 -0.00000000000E+00 -0.74505805969E-08  0.93827000000E+00  0.93827000000E+00 0. -1.
     999902    2    1    2    0    0 -0.43052671622E-02 -0.19718981798E-01  0.91354105420E-02  0.10217753324E+01  0.10215351197E+01 0.  0.
     999903    2    3    3    0    0 -0.11219114290E+00 -0.65962210693E-01  0.24164827685E-01  0.13385434397E+00  0.19879152853E-01 0.  0.
         14    1    1    2    0    0  0.43052671622E-02  0.19718981798E-01 -0.91354105420E-02  0.22154667550E-01  0.00000000000E+00 0.  1.
     999901    1    3    3    0    0  0.10788587574E+00  0.46243228895E-01 -0.15029417143E-01  0.88792098848E+00  0.88000000000E+00 0.  1.
        -11    1    4    4    0    0 -0.75129180241E-01 -0.54238844164E-01  0.14446863157E-01  0.93782828471E-01  0.51100000000E-03 0.  1.
         11    1    4    4    0    0 -0.37061962658E-01 -0.11723366529E-01  0.97179645286E-02  0.40071515499E-01  0.51100000000E-03 0. -1.
</event>
<event>
 8    1  0.1150307E+005  0.1043930E+01  0.7957747E-01            NaN
         13   -1    0    0    0    0  0.00000000000E+00  0.00000000000E+00  0.74505805969E-08  0.10566000000E+00  0.10566000000E+00 0. -1.
     999900   -1    0    0    0    0 -0.00000000000E+00 -0.00000000000E+00 -0.74505805969E-08  0.93827000000E+00  0.93827000000E+00 0. -1.
     999902    2    1    2    0    0  0.22601899124E-01 -0.89309938568E-02 -0.47922227271E-02  0.10191595762E+01  0.10188585122E+01 0.  0.
     999903    2    3    3    0    0  0.25260303371E-01 -0.55061884977E-03 -0.12751809203E+00  0.13059954067E+00  0.12529569858E-01 0.  0.
         14    1    1    2    0    0 -0.22601899124E-01  0.89309938568E-02  0.47922227271E-02  0.24770423774E-01  0.00000000000E+00 0. -1.
     999901    1    3    3    0    0 -0.26584042474E-02 -0.83803750070E-02  0.12272586930E+00  0.88856003556E+00  0.88000000000E+00 0.  1.
        -11    1    4    4    0    0  0.21712614615E-01 -0.41668186870E-03 -0.78491859986E-01  0.81442276873E-01  0.51100000000E-03 0.  1.
         11    1    4    4    0    0  0.35476887564E-02 -0.13393698107E-03 -0.49026232041E-01  0.49157263794E-01  0.51100000000E-03 0. -1.
</event>
<event>
 8    1  0.1150307E+005  0.1043930E+01  0.7957747E-01            NaN
         13   -1    0    0    0    0  0.00000000000E+00  0.00000000000E+00  0.74505805969E-08  0.10566000000E+00  0.10566000000E+00 0. -1.
     999900   -1    0    0    0    0 -0.00000000000E+00 -0.00000000000E+00 -0.74505805969E-08  0.93827000000E+00  0.93827000000E+00 0. -1.
     999902    2    1    2    0    0 -0.15828122356E-01  0.11366688246E-01 -0.14633286638E-01  0.10195606722E+01  0.10192693953E+01 0.  0.
     999903    2    3    3    0    0  0.80553098760E-01 -0.12134925588E-01  0.95561240602E-01  0.12715689618E+00  0.20021673327E-01 0.  0.
         14    1    1    2    0    0  0.15828122356E-01 -0.11366688246E-01  0.14633286638E-01  0.24369327788E-01  0.00000000000E+00 0. -1.
     999901    1    3    3    0    0 -0.96381221117E-01  0.23501613833E-01 -0.11019452724E+00  0.89240377603E+00  0.88000000000E+00 0. -1.
        -11    1    4    4    0    0  0.32579925435E-01 -0.86596467090E-03  0.52059816382E-01  0.61422203142E-01  0.51100000000E-03 0.  1.
         11    1    4    4    0    0  0.47973173326E-01 -0.11268960917E-01  0.43501424220E-01  0.65734693041E-01  0.51100000000E-03 0. -1.
</event>
<event>
 8    1  0.1150307E+005  0.1043930E+01  0.7957747E-01            NaN
         13   -1    0    0    0    0  0.00000000000E+00  0.00000000000E+00  0.74505805969E-08  0.10566000000E+00  0.10566000000E+00 0.  1.
     999900   -1    0    0    0    0 -0.00000000000E+00 -0.00000000000E+00 -0.74505805969E-08  0.93827000000E+00  0.93827000000E+00 0.  1.
     999902    2    1    2    0    0  0.40174012901E-02 -0.18311491552E-01  0.13613446836E-01  0.10207615695E+01  0.10204986064E+01 0.  0.
     999903    2    3    3    0    0 -0.10579259245E+00  0.55383701699E-01  0.48681610429E-01  0.13018928592E+00  0.17886417834E-01 0.  0.
         14    1    1    2    0    0 -0.40174012901E-02  0.18311491552E-01 -0.13613446836E-01  0.23168430477E-01  0.00000000000E+00 0.  1.
     999901    1    3    3    0    0  0.10980999374E+00 -0.73695193251E-01 -0.35068163593E-01  0.89057228361E+00  0.88000000000E+00 0. -1.
        -11    1    4    4    0    0 -0.44953322286E-01  0.16810167838E-01  0.12615693124E-01  0.49626603362E-01  0.51100000000E-03 0. -1.
         11    1    4    4    0    0 -0.60839270160E-01  0.38573533861E-01  0.36065917305E-01  0.80562682553E-01  0.51100000000E-03 0.  1.
</event>
<event>
 8    1  0.1150307E+005  0.1043930E+01  0.7957747E-01            NaN
         13   -1    0    0    0    0  0.00000000000E+00  0.00000000000E+00  0.74505805969E-08  0.10566000000E+00  0.10566000000E+00 0. -1.
     999900   -1    0    0    0    0 -0.00000000000E+00 -0.00000000000E+00 -0.74505805969E-08  0.93827000000E+00  0.93827000000E+00 0.  1.
     999902    2    1    2    0    0  0.42607335607E-02 -0.52530350702E-02 -0.22736761226E-01  0.10202085216E+01  0.10199327031E+01 0.  0.
     999903    2    3    3    0    0 -0.66670048248E-01 -0.12996608337E-01 -0.11252307176E+00  0.13276685008E+00  0.18756002751E-01 0.  0.
         14    1    1    2    0    0 -0.42607335607E-02  0.52530350702E-02  0.22736761226E-01  0.23721478432E-01  0.00000000000E+00 0. -1.
     999901    1    3    3    0    0  0.70930781809E-01  0.77435732669E-02  0.89786310537E-01  0.88744167149E+00  0.88000000000E+00 0. -1.
        -11    1    4    4    0    0 -0.14384635166E-01 -0.98033550925E-02 -0.20696724200E-01  0.27048826472E-01  0.51100000000E-03 0.  1.
         11    1    4    4    0    0 -0.52285413083E-01 -0.31932532446E-02 -0.91826347564E-01  0.10571802361E+00  0.51100000000E-03 0. -1.
</event>
<event>
 8    1  0.1150307E+005  0.1043930E+01  0.7957747E-01            NaN
         13   -1    0    0    0    0  0.00000000000E+00  0.00000000000E+00  0.74505805969E-08  0.10566000000E+00  0.10566000000E+00 0.  1.
     999900   -1    0    0    0    0 -0.00000000000E+00 -0.00000000000E+00 -0.74505805969E-08  0.93827000000E+00  0.93827000000E+00 0. -1.
     999902    2    1    2    0    0 -0.15173273892E-01 -0.73048600779E-02 -0.15613419877E-01  0.10209655035E+01  0.10207072015E+01 0.  0.
     999903    2    3    3    0    0 -0.50298747916E-01 -0.28920672464E-01  0.11494770460E+00  0.13037735538E+00  0.20467307206E-01 0.  0.
         14    1    1    2    0    0  0.15173273892E-01  0.73048600779E-02  0.15613419877E-01  0.22964496546E-01  0.00000000000E+00 0. -1.
     999901    1    3    3    0    0  0.35125474024E-01  0.21615812386E-01 -0.13056112448E+00  0.89058814808E+00  0.88000000000E+00 0. -1.
        -11    1    4    4    0    0 -0.67984476576E-02  0.98633303700E-03  0.53304179859E-02  0.87101217166E-02  0.51100000000E-03 0. -1.
         11    1    4    4    0    0 -0.43500300258E-01 -0.29907005501E-01  0.10961728662E+00  0.12166723366E+00  0.51100000000E-03 0.  1.
</event>
<event>
 8    1  0.1150307E+005  0.1043930E+01  0.7957747E-01            NaN
         13   -1    0    0    0    0  0.00000000000E+00  0.00000000000E+00  0.74505805969E-08  0.10566000000E+00  0.10566000000E+00 0. -1.
     999900   -1    0    0    0    0 -0.00000000000E+00 -0.00000000000E+00 -0.74505805969E-08  0.93827000000E+00  0.93827000000E+00 0.  1.
     999902    2    1    2    0    0 -0.12363809789E-01  0.14492574598E-01 -0.15179598213E-01  0.10195718656E+01  0.10192808594E+01 0.  0.
     999903    2    3    3    0    0  0.81038203718E-01 -0.25616227121E-01 -0.96335589181E-01  0.13001076763E+00  0.19971790167E-01 0.  0.
         14    1    1    2    0    0  0.12363809789E-01 -0.14492574598E-01  0.15179598213E-01  0.24358134430E-01  0.00000000000E+00 0. -1.
     999901    1    3    3    0    0 -0.93402013507E-01  0.40108801719E-01  0.81155990968E-01  0.88956109794E+00  0.88000000000E+00 0. -1.
        -11    1    4    4    0    0  0.46573064182E-01 -0.23520423387E-01 -0.65257485695E-01  0.83552744921E-01  0.51100000000E-03 0.  1.
         11    1    4    4    0    0  0.34465139536E-01 -0.20958037343E-02 -0.31078103487E-01  0.46458022707E-01  0.51100000000E-03 0. -1.
</event>
<event>
 8    1  0.1150307E+005  0.1043930E+01  0.7957747E-01            NaN
         13   -1    0    0    0    0  0.00000000000E+00  0.00000000000E+00  0.74505805969E-08  0.10566000000E+00  0.10566000000E+00 0.  1.
     999900   -1    0    0    0    0 -0.00000000000E+00 -0.00000000000E+00 -0.74505805969E-08  0.93827000000E+00  0.93827000000E+00 0. -1.
     999902    2    1    2    0    0  0.16771119648E-01  0.11552402826E-01  0.12798164793E-01  0.10198775264E+01  0.10195938639E+01 0.  0.
     999903    2    3    3    0    0 -0.46706577639E-01  0.55426312768E-02 -0.11728198122E+00  0.12803315666E+00  0.20620400792E-01 0.  0.
         14    1    1    2    0    0 -0.16771119648E-01 -0.11552402826E-01 -0.12798164793E-01  0.24052473623E-01  0.00000000000E+00 0. -1.
     999901    1    3    3    0    0  0.63477697286E-01  0.60097715495E-02  0.13008014602E+00  0.89184436972E+00  0.88000000000E+00 0.  1.
        -11    1    4    4    0    0 -0.28656907582E-01  0.62096771847E-02 -0.46452405898E-01  0.54935103328E-01  0.51100000000E-03 0. -1.
         11    1    4    4    0    0 -0.18049670056E-01 -0.66704590791E-03 -0.70829575325E-01  0.73098053334E-01  0.51100000000E-03 0.  1.
</event>
<event>
 8    1  0.1150307E+005  0.1043930E+01  0.7957747E-01            NaN
         13   -1    0    0    0    0  0.00000000000E+00  0.00000000000E+00  0.74505805969E-08  0.10566000000E+00  0.10566000000E+00 0. -1.
     999900   -1    0    0    0    0 -0.00000000000E+00 -0.00000000000E+00 -0.74505805969E-08  0.93827000000E+00  0.93827000000E+00 0. -1.
     999902    2    1    2    0    0  0.21668125635E-01 -0.26731170319E-02 -0.75735116833E-02  0.10208213154E+01  0.10205597223E+01 0.  0.
     999903    2    3    3    0    0  0.33900309047E-01  0.12076983427E+00  0.32995035703E-01  0.13119577872E+00  0.19725013269E-01 0.  0.
         14    1    1    2    0    0 -0.21668125635E-01  0.26731170319E-02  0.75735116833E-02  0.23108684567E-01  0.00000000000E+00 0. -1.
     999901    1    3    3    0    0 -0.12232183411E-01 -0.12344295131E+00 -0.40568547386E-01  0.88962553671E+00  0.88000000000E+00 0.  1.
        -11    1    4    4    0    0  0.16421420889E-01  0.83057163442E-01  0.28729535601E-01  0.89408068986E-01  0.51100000000E-03 0. -1.
         11    1    4    4    0    0  0.17478888158E-01  0.37712670832E-01  0.42655001018E-02  0.41787709732E-01  0.51100000000E-03 0.  1.
</event>
<event>
 8    1  0.1150307E+005  0.1043930E+01  0.7957747E-01            NaN
         13   -1    0    0    0    0  0.00000000000E+00  0.00000000000E+00  0.74505805969E-08  0.10566000000E+00  0.10566000000E+00 0.  1.
     999900   -1    0    0    0    0 -0.00000000000E+00 -0.00000000000E+00 -0.74505805969E-08  0.93827000000E+00  0.93827000000E+00 0.  1.
     999902    2    1    2    0    0  0.48408136124E-02  0.22488622956E-01  0.91785830265E-02  0.10191627227E+01  0.10188617361E+01 0.  0.
     999903    2    3    3    0    0  0.11186316245E+00  0.31790244629E-01 -0.55465578943E-01  0.13027624457E+00  0.19273886075E-01 0.  0.
         14    1    1    2    0    0 -0.48408136124E-02 -0.22488622956E-01 -0.91785830265E-02  0.24767277308E-01  0.00000000000E+00 0. -1.
     999901    1    3    3    0    0 -0.10702234884E+00 -0.93016216734E-02  0.64644161970E-01  0.88888647812E+00  0.88000000000E+00 0. -1.
        -11    1    4    4    0    0  0.40402167998E-01  0.20992832551E-02 -0.20529878782E-01  0.45370466307E-01  0.51100000000E-03 0.  1.
         11    1    4    4    0    0  0.71460994451E-01  0.29690961374E-01 -0.34935700161E-01  0.84905778260E-01  0.51100000000E-03 0. -1.
</event>
<event>
 8    1  0.1150307E+005  0.1043930E+01  0.7957747E-01            NaN
         13   -1    0    0    0    0  0.00000000000E+00  0.00000000000E+00  0.74505805969E-08  0.10566000000E+00  0.10566000000E+00 0.  1.
     999900   -1    0    0    0    0 -0.00000000000E+00 -0.00000000000E+00 -0.74505805969E-08  0.93827000000E+00  0.93827000000E+00 0. -1.
     999902    2    1    2    0    0  0.15880554206E-01  0.71419422457E-02 -0.16608396257E-01  0.10198667881E+01  0.10195828693E+01 0.  0.
     999903    2    3    3    0    0  0.20463959321E-02 -0.64567059827E-01  0.10849007790E+00  0.12802420493E+00  0.21142542295E-01 0.  0.
         14    1    1    2    0    0 -0.15880554206E-01 -0.71419422457E-02  0.16608396257E-01  0.24063211904E-01  0.00000000000E+00 0.  1.
     999901    1    3    3    0    0  0.13834158274E-01  0.71709002072E-01 -0.12509847415E+00  0.89184258317E+00  0.88000000000E+00 0. -1.
        -11    1    4    4    0    0  0.51533637368E-02 -0.28749630843E-01  0.67190009998E-01  0.73265660415E-01  0.51100000000E-03 0. -1.
         11    1    4    4    0    0 -0.31069678047E-02 -0.35817428983E-01  0.41300067899E-01  0.54758544515E-01  0.51100000000E-03 0.  1.
</event>
<event>
 8    1  0.1150307E+005  0.1043930E+01  0.7957747E-01            NaN
         13   -1    0    0    0    0  0.00000000000E+00  0.00000000000E+00  0.74505805969E-08  0.10566000000E+00  0.10566000000E+00 0.  1.
     999900   -1    0    0    0    0 -0.00000000000E+00 -0.00000000000E+00 -0.74505805969E-08  0.93827000000E+00  0.93827000000E+00 0.  1.
     999902    2    1    2    0    0 -0.15246010446E-01 -0.14544551597E-01  0.10422963762E-01  0.10204220654E+01  0.10201512479E+01 0.  0.
     999903    2    3    3    0    0 -0.12849721493E+00 -0.42064678817E-03  0.27847445783E-01  0.13288111841E+00  0.19240587462E-01 0.  0.
         14    1    1    2    0    0  0.15246010446E-01  0.14544551597E-01 -0.10422963762E-01  0.23507934601E-01  0.00000000000E+00 0. -1.
     999901    1    3    3    0    0  0.11325120448E+00 -0.14123904808E-01 -0.17424482021E-01  0.88754094699E+00  0.88000000000E+00 0.  1.
        -11    1    4    4    0    0 -0.77458981374E-01 -0.79912840700E-02  0.11262190847E-01  0.78681970491E-01  0.51100000000E-03 0.  1.
         11    1    4    4    0    0 -0.51038233554E-01  0.75706372819E-02  0.16585254936E-01  0.54199147921E-01  0.51100000000E-03 0. -1.
</event>
<event>
 8    1  0.1150307E+005  0.1043930E+01  0.7957747E-01            NaN
         13   -1    0    0    0    0  0.00000000000E+00  0.00000000000E+00  0.74505805969E-08  0.10566000000E+00  0.10566000000E+00 0.  1.
     999900   -1    0    0    0    0 -0.00000000000E+00 -0.00000000000E+00 -0.74505805969E-08  0.93827000000E+00  0.93827000000E+00 0.  1.
     999902    2    1    2    0    0  0.41863675512E-02 -0.23598574902E-01 -0.96172819031E-03  0.10199436845E+01  0.10196615989E+01 0.  0.
     999903    2    3    3    0    0 -0.10281872185E+00  0.34042072766E-01  0.66829589143E-01  0.12900698857E+00  0.21120057637E-01 0.  0.
         14    1    1    2    0    0 -0.41863675512E-02  0.23598574902E-01  0.96172819031E-03  0.23986315511E-01  0.00000000000E+00 0. -1.
     999901    1    3    3    0    0  0.10700508940E+00 -0.57640647668E-01 -0.67791317334E-01  0.89093669591E+00  0.88000000000E+00 0. -1.
        -11    1    4    4    0    0 -0.41787108411E-01  0.88303691924E-02  0.37147622275E-01  0.56606932535E-01  0.51100000000E-03 0.  1.
         11    1    4    4    0    0 -0.61031613441E-01  0.25211703573E-01  0.29681966869E-01  0.72400056039E-01  0.51100000000E-03 0. -1.
</event>
<event>
 8    1  0.1150307E+005  0.1043930E+01  0.7957747E-01            NaN
         13   -1    0    0    0    0  0.00000000000E+00  0.00000000000E+00  0.74505805969E-08  0.10566000000E+00  0.10566000000E+00 0. -1.
     999900   -1    0    0    0    0 -0.00000000000E+00 -0.00000000000E+00 -0.74505805969E-08  0.93827000000E+00  0.93827000000E+00 0. -1.
     999902    2    1    2    0    0 -0.53281222566E-02  0.82961405054E-02  0.21987511733E-01  0.10198329980E+01  0.10195482717E+01 0.  0.
     999903    2    3    3    0    0 -0.51143166381E-01  0.11835142436E+00  0.19099645004E-01  0.13179047448E+00  0.19525614205E-01 0.  0.
         14    1    1    2    0    0  0.53281222566E-02 -0.82961405054E-02 -0.21987511733E-01  0.24097002019E-01  0.00000000000E+00 0.  1.
     999901    1    3    3    0    0  0.45815044124E-01 -0.11005528385E+00  0.28878667289E-02  0.88804252350E+00  0.88000000000E+00 0.  1.
        -11    1    4    4    0    0 -0.20049440515E-01  0.46890762595E-01  0.17237784120E-01  0.53834245644E-01  0.51100000000E-03 0. -1.
         11    1    4    4    0    0 -0.31093725866E-01  0.71460661760E-01  0.18618608847E-02  0.77956228836E-01  0.51100000000E-03 0.  1.
</event>
<event>
 8    1  0.1150307E+005  0.1043930E+01  0.7957747E-01            NaN
         13   -1    0    0    0    0  0.00000000000E+00  0.00000000000E+00  0.74505805969E-08  0.10566000000E+00  0.10566000000E+00 0. -1.
     999900   -1    0    0    0    0 -0.00000000000E+00 -0.00000000000E+00 -0.74505805969E-08  0.93827000000E+00  0.93827000000E+00 0. -1.
     999902    2    1    2    0    0 -0.19188025875E-01 -0.48837750993E-02  0.15524891892E-01  0.10187694383E+01  0.10184586956E+01 0.  0.
     999903    2    3    3    0    0 -0.12876057506E+00  0.86733719551E-02  0.18532800276E-01  0.13186527929E+00  0.19760418171E-01 0.  0.
         14    1    1    2    0    0  0.19188025875E-01  0.48837750993E-02 -0.15524891892E-01  0.25160561688E-01  0.00000000000E+00 0.  1.
     999901    1    3    3    0    0  0.10957254919E+00 -0.13557147054E-01 -0.30079083847E-02  0.88690415902E+00  0.88000000000E+00 0.  1.
        -11    1    4    4    0    0 -0.92831484420E-01  0.49247750667E-02  0.43870325127E-02  0.93066885004E-01  0.51100000000E-03 0. -1.
         11    1    4    4    0    0 -0.35929090641E-01  0.37485968884E-02  0.14145767764E-01  0.38798394290E-01  0.51100000000E-03 0.  1.
</event>
<event>
 8    1  0.1150307E+005  0.1043930E+01  0.7957747E-01            NaN
         13   -1    0    0    0    0  0.00000000000E+00  0.00000000000E+00  0.74505805969E-08  0.10566000000E+00  0.10566000000E+00 0. -1.
     999900   -1    0    0    0    0 -0.00000000000E+00 -0.00000000000E+00 -0.74505805969E-08  0.93827000000E+00  0.93827000000E+00 0. -1.
     999902    2    1    2    0    0 -0.10908366710E-01 -0.18675446666E-01 -0.10749178899E-01  0.10197781964E+01  0.10194921580E+01 0.  0.
     999903    2    3    3    0    0  0.91559735459E-02 -0.13005682236E+00 -0.59718745770E-02  0.13251768712E+00  0.22949187816E-01 0.  0.
         14    1    1    2    0    0  0.10908366710E-01  0.18675446666E-01  0.10749178899E-01  0.24151803648E-01  0.00000000000E+00 0. -1.
     999901    1    3    3    0    0 -0.20064340256E-01  0.11138137569E+00 -0.47773043216E-02  0.88726050923E+00  0.88000000000E+00 0. -1.
        -11    1    4    4    0    0  0.10541031345E-02 -0.11491158239E+00 -0.22711163009E-02  0.11493999301E+00  0.51100000000E-03 0. -1.
         11    1    4    4    0    0  0.81018704114E-02 -0.15145239962E-01 -0.37007582761E-02  0.17577694117E-01  0.51100000000E-03 0.  1.
</event>
<event>
 8    1  0.1150307E+005  0.1043930E+01  0.7957747E-01            NaN
         13   -1    0    0    0    0  0.00000000000E+00  0.00000000000E+00  0.74505805969E-08  0.10566000000E+00  0.10566000000E+00 0. -1.
     999900   -1    0    0    0    0 -0.00000000000E+00 -0.00000000000E+00 -0.74505805969E-08  0.93827000000E+00  0.93827000000E+00 0. -1.
     999902    2    1    2    0    0  0.17421043752E-01 -0.12012570418E-01  0.10086744747E-01  0.10204877938E+01  0.10202185061E+01 0.  0.
     999903    2    3    3    0    0 -0.53566621780E-02  0.12750809834E+00  0.59508329720E-02  0.12919550351E+00  0.19210849621E-01 0.  0.
         14    1    1    2    0    0 -0.17421043752E-01  0.12012570418E-01 -0.10086744747E-01  0.23442206233E-01  0.00000000000E+00 0.  1.
     999901    1    3    3    0    0  0.22777705930E-01 -0.13952066876E+00  0.41359117750E-02  0.89129229025E+00  0.88000000000E+00 0. -1.
        -11    1    4    4    0    0 -0.35705534198E-02  0.89585490416E-01 -0.46397539088E-02  0.89778045101E-01  0.51100000000E-03 0.  1.
         11    1    4    4    0    0 -0.17861087582E-02  0.37922607925E-01  0.10590586881E-01  0.39417458413E-01  0.51100000000E-03 0. -1.
</event>
<event>
 8    1  0.1150307E+005  0.1043930E+01  0.7957747E-01            NaN
         13   -1    0    0    0    0  0.00000000000E+00  0.00000000000E+00  0.74505805969E-08  0.10566000000E+00  0.10566000000E+00 0.  1.
     999900   -1    0    0    0    0 -0.00000000000E+00 -0.00000000000E+00 -0.74505805969E-08  0.93827000000E+00  0.93827000000E+00 0.  1.
     999902    2    1    2    0    0  0.28109715718E-02  0.13293247524E-01  0.20806831385E-01  0.10190797239E+01  0.10187766916E+01 0.  0.
     999903    2    3    3    0    0  0.11652159267E+00  0.13230822807E-01 -0.49948392771E-01  0.12894691863E+00  0.19496913933E-01 0.  0.
         14    1    1    2    0    0 -0.28109715718E-02 -0.13293247524E-01 -0.20806831385E-01  0.24850276119E-01  0.00000000000E+00 0. -1.
     999901    1    3    3    0    0 -0.11371062109E+00  0.62424717048E-04  0.70755224157E-01  0.89013280526E+00  0.88000000000E+00 0. -1.
        -11    1    4    4    0    0  0.53355976899E-01  0.15571496419E-01 -0.25804395832E-01  0.61281805920E-01  0.51100000000E-03 0. -1.
         11    1    4    4    0    0  0.63165615767E-01 -0.23406736121E-02 -0.24143996939E-01  0.67665112705E-01  0.51100000000E-03 0.  1.
</event>
<event>
 8    1  0.1150307E+005  0.1043930E+01  0.7957747E-01            NaN
         13   -1    0    0    0    0  0.00000000000E+00  0.00000000000E+00  0.74505805969E-08  0.10566000000E+00  0.10566000000E+00 0.  1.
     999900   -1    0    0    0    0 -0.00000000000E+00 -0.00000000000E+00 -0.74505805969E-08  0.93827000000E+00  0.93827000000E+00 0. -1.
     999902    2    1    2    0    0 -0.19895220606E-01  0.12331825357E-01  0.16412985975E-02  0.10204653973E+01  0.10201955888E+01 0.  0.
     999903    2    3    3    0    0  0.81153552650E-01 -0.78803162837E-01 -0.56670282601E-01  0.12809961962E+00  0.20053778568E-01 0.  0.
         14    1    1    2    0    0  0.19895220606E-01 -0.12331825357E-01 -0.16412985975E-02  0.23464602717E-01  0.00000000000E+00 0. -1.
     999901    1    3    3    0    0 -0.10104877326E+00  0.91134988194E-01  0.58311581198E-01  0.89236577767E+00  0.88000000000E+00 0.  1.
        -11    1    4    4    0    0  0.28223901543E-01 -0.26008497674E-01 -0.89684424215E-02  0.39417314090E-01  0.51100000000E-03 0.  1.
         11    1    4    4    0    0  0.52929651107E-01 -0.52794665163E-01 -0.47701840179E-01  0.88682305526E-01  0.51100000000E-03 0. -1.
</event>
<event>
 8    1  0.1150307E+005  0.1043930E+01  0.7957747E-01            NaN
         13   -1    0    0    0    0  0.00000000000E+00  0.00000000000E+00  0.74505805969E-08  0.10566000000E+00  0.10566000000E+00 0. -1.
     999900   -1    0    0    0    0 -0.00000000000E+00 -0.00000000000E+00 -0.74505805969E-08  0.93827000000E+00  0.93827000000E+00 0. -1.
     999902    2    1    2    0    0  0.15256003266E-01 -0.17576615633E-01 -0.45893627956E-02  0.10202077467E+01  0.10199319100E+01 0.  0.
     999903    2    3    3    0    0  0.11637151668E+00 -0.25670489896E-02  0.59166602333E-01  0.13199918037E+00  0.19343659198E-01 0.  0.
         14    1    1    2    0    0 -0.15256003266E-01  0.17576615633E-01  0.45893627956E-02  0.23722253342E-01  0.00000000000E+00 0. -1.
     999901    1    3    3    0    0 -0.10111551341E+00 -0.15009566643E-01 -0.63755965129E-01  0.88820856629E+00  0.88000000000E+00 0. -1.
        -11    1    4    4    0    0  0.69499333349E-01 -0.34980521432E-02  0.45573792633E-01  0.83184285780E-01  0.51100000000E-03 0.  1.
         11    1    4    4    0    0  0.46872183329E-01  0.93100315354E-03  0.13592809700E-01  0.48814894586E-01  0.51100000000E-03 0. -1.
</event>
<event>
 8    1  0.1150307E+005  0.1043930E+01  0.7957747E-01            NaN
         13   -1    0    0    0    0  0.00000000000E+00  0.00000000000E+00  0.74505805969E-08  0.10566000000E+00  0.10566000000E+00 0.  1.
     999900   -1    0    0    0    0 -0.00000000000E+00 -0.00000000000E+00 -0.74505805969E-08  0.93827000000E+00  0.93827000000E+00 0. -1.
     999902    2    1    2    0    0 -0.19183041440E-02 -0.21802114826E-01 -0.12554233373E-01  0.10186986529E+01  0.10183861372E+01 0.  0.
     999903    2    3    3    0    0 -0.12462232556E+00  0.20526415931E-01  0.15543928762E-01  0.12873377262E+00  0.19460542474E-01 0.  0.
         14    1    1    2    0    0  0.19183041440E-02  0.21802114826E-01  0.12554233373E-01  0.25231347115E-01  0.00000000000E+00 0. -1.
     999901    1    3    3    0    0  0.12270402141E+00 -0.42328530757E-01 -0.28098162135E-01  0.88996488026E+00  0.88000000000E+00 0.  1.
        -11    1    4    4    0    0 -0.25177224769E-01  0.32466994028E-02  0.11067392098E-01  0.27698050346E-01  0.51100000000E-03 0. -1.
         11    1    4    4    0    0 -0.99445100789E-01  0.17279716528E-01  0.44765366638E-02  0.10103572228E+00  0.51100000000E-03 0.  1.
</event>
<event>
 8    1  0.1150307E+005  0.1043930E+01  0.7957747E-01            NaN
         13   -1    0    0    0    0  0.00000000000E+00  0.00000000000E+00  0.74505805969E-08  0.10566000000E+00  0.10566000000E+00 0. -1.
     999900   -1    0    0    0    0 -0.00000000000E+00 -0.00000000000E+00 -0.74505805969E-08  0.93827000000E+00  0.93827000000E+00 0. -1.
     999902    2    1    2    0    0 -0.18817618111E-01  0.11470637818E-01  0.94480948370E-02  0.10199519938E+01  0.10196701059E+01 0.  0.
     999903    2    3    3    0    0  0.11043544255E+00 -0.53142980467E-01  0.29017929594E-01  0.12795185270E+00  0.22571509230E-01 0.  0.
         14    1    1    2    0    0  0.18817618111E-01 -0.11470637818E-01 -0.94480948370E-02  0.23978006160E-01  0.00000000000E+00 0.  1.
     999901    1    3    3    0    0 -0.12925306066E+00  0.64613618285E-01 -0.19569834757E-01  0.89200014114E+00  0.88000000000E+00 0. -1.
        -11    1    4    4    0    0  0.39314989565E-01 -0.12848614481E-01  0.47147875380E-03  0.41367121144E-01  0.51100000000E-03 0.  1.
         11    1    4    4    0    0  0.71120452981E-01 -0.40294365986E-01  0.28546450841E-01  0.86584731559E-01  0.51100000000E-03 0. -1.
</event>
<event>
 8    1  0.1150307E+005  0.1043930E+01  0.7957747E-01            NaN
         13   -1    0    0    0    0  0.00000000000E+00  0.00000000000E+00  0.74505805969E-08  0.10566000000E+00  0.10566000000E+00 0. -1.
     999900   -1    0    0    0    0 -0.00000000000E+00 -0.00000000000E+00 -0.74505805969E-08  0.93827000000E+00  0.93827000000E+00 0.  1.
     999902    2    1    2    0    0 -0.26691822698E-01 -0.13310463786E-01 -0.88665498418E-03  0.10140902949E+01  0.10136511817E+01 0.  0.
     999903    2    3    3    0    0 -0.53787160387E-01 -0.11054739297E+00 -0.29031783596E-01  0.12787286896E+00  0.19870617597E-01 0.  0.
         14    1    1    2    0    0  0.26691822698E-01  0.13310463786E-01  0.88665498418E-03  0.29839705129E-01  0.00000000000E+00 0. -1.
     999901    1    3    3    0    0  0.27095337689E-01  0.97236929179E-01  0.28145128612E-01  0.88621742591E+00  0.88000000000E+00 0.  1.
        -11    1    4    4    0    0 -0.45254328166E-02 -0.16274070940E-01  0.21298061068E-02  0.17032971619E-01  0.51100000000E-03 0.  1.
         11    1    4    4    0    0 -0.49261727570E-01 -0.94273322026E-01 -0.31161589703E-01  0.11083989734E+00  0.51100000000E-03 0. -1.
</event>
<event>
 8    1  0.1150307E+005  0.1043930E+01  0.7957747E-01            NaN
         13   -1    0    0    0    0  0.00000000000E+00  0.00000000000E+00  0.74505805969E-08  0.10566000000E+00  0.10566000000E+00 0.  1.
     999900   -1    0    0    0    0 -0.00000000000E+00 -0.00000000000E+00 -0.74505805969E-08  0.93827000000E+00  0.93827000000E+00 0.  1.
     999902    2    1    2    0    0  0.10477241597E-01 -0.48254096477E-02 -0.21826776932E-01  0.10192426478E+01  0.10189436244E+01 0.  0.
     999903    2    3    3    0    0  0.13103535950E-01 -0.83966484982E-01 -0.99265806624E-01  0.13230014085E+00  0.20677370480E-01 0.  0.
         14    1    1    2    0    0 -0.10477241597E-01  0.48254096477E-02  0.21826776932E-01  0.24687352248E-01  0.00000000000E+00 0.  1.
     999901    1    3    3    0    0 -0.26262943535E-02  0.79141075335E-01  0.77439029692E-01  0.88694250690E+00  0.88000000000E+00 0. -1.
        -11    1    4    4    0    0  0.13397497602E-01 -0.31017709982E-01 -0.47106657080E-01  0.57973179461E-01  0.51100000000E-03 0.  1.
         11    1    4    4    0    0 -0.29396165214E-03 -0.52948775000E-01 -0.52159149545E-01  0.74326961391E-01  0.51100000000E-03 0. -1.
</event>
<event>
 8    1  0.1150307E+005  0.1043930E+01  0.7957747E-01            NaN
         13   -1    0    0    0    0  0.00000000000E+00  0.00000000000E+00  0.74505805969E-08  0.10566000000E+00  0.10566000000E+00 0. -1.
     999900   -1    0    0    0    0 -0.00000000000E+00 -0.00000000000E+00 -0.74505805969E-08  0.93827000000E+00  0.93827000000E+00 0.  1.
     999902    2    1    2    0    0 -0.76749885853E-02 -0.10862949736E-01 -0.19164537628E-01  0.10206021491E+01  0.10203355125E+01 0.  0.
     999903    2    3    3    0    0  0.10712194106E+00 -0.96949305953E-02 -0.72976753069E-01  0.13151528387E+00  0.20038998669E-01 0.  0.
         14    1    1    2    0    0  0.76749885853E-02  0.10862949736E-01  0.19164537628E-01  0.23327850935E-01  0.00000000000E+00 0. -1.
     999901    1    3    3    0    0 -0.11479692965E+00 -0.11680191409E-02  0.53812215441E-01  0.88908686519E+00  0.88000000000E+00 0.  1.
        -11    1    4    4    0    0  0.57560623830E-01  0.45417139317E-02 -0.41360957224E-01  0.71027054596E-01  0.51100000000E-03 0. -1.
         11    1    4    4    0    0  0.49561317232E-01 -0.14236644527E-01 -0.31615795846E-01  0.60488229278E-01  0.51100000000E-03 0.  1.
</event>
<event>
 8    1  0.1150307E+005  0.1043930E+01  0.7957747E-01            NaN
         13   -1    0    0    0    0  0.00000000000E+00  0.00000000000E+00  0.74505805969E-08  0.10566000000E+00  0.10566000000E+00 0. -1.
     999900   -1    0    0    0    0 -0.00000000000E+00 -0.00000000000E+00 -0.74505805969E-08  0.93827000000E+00  0.93827000000E+00 0. -1.
     999902    2    1    2    0    0  0.11323072618E-02 -0.20362579802E-01 -0.47162266880E-02  0.10229977385E+01  0.10227835614E+01 0.  0.
     999903    2    3    3    0    0  0.16045624058E-01  0.88419597361E-01  0.92843182527E-01  0.13082409657E+00  0.20484151259E-01 0.  0.
         14    1    1    2    0    0 -0.11323072618E-02  0.20362579802E-01  0.47162266880E-02  0.20932261467E-01  0.00000000000E+00 0.  1.
     999901    1    3    3    0    0 -0.14913316796E-01 -0.10878217716E+00 -0.97559409215E-01  0.89217364196E+00  0.88000000000E+00 0. -1.
        -11    1    4    4    0    0  0.89224229154E-02  0.52537689700E-01  0.40374250903E-01  0.66859253112E-01  0.51100000000E-03 0. -1.
         11    1    4    4    0    0  0.71232011428E-02  0.35881907662E-01  0.52468931624E-01  0.63964843459E-01  0.51100000000E-03 0.  1.
</event>
<event>
 8    1  0.1150307E+005  0.1043930E+01  0.7957747E-01            NaN
         13   -1    0    0    0    0  0.00000000000E+00  0.00000000000E+00  0.74505805969E-08  0.10566000000E+00  0.10566000000E+00 0. -1.
     999900   -1    0    0    0    0 -0.00000000000E+00 -0.00000000000E+00 -0.74505805969E-08  0.93827000000E+00  0.93827000000E+00 0. -1.
     999902    2    1    2    0    0 -0.21453744655E-01  0.52695448643E-02  0.30046477309E-02  0.10216351761E+01  0.10213918807E+01 0.  0.
     999903    2    3    3    0    0 -0.38025366362E-01  0.10226243227E+00 -0.73275441813E-01  0.13287148938E+00  0.19545044812E-01 0.  0.
         14    1    1    2    0    0  0.21453744655E-01 -0.52695448643E-02 -0.30046477309E-02  0.22294823857E-01  0.00000000000E+00 0. -1.
     999901    1    3    3    0    0  0.16571621707E-01 -0.96992887401E-01  0.76280089544E-01  0.88876368677E+00  0.88000000000E+00 0.  1.
        -11    1    4    4    0    0 -0.36242461867E-01  0.73527505645E-01 -0.52143114405E-01  0.97154390685E-01  0.51100000000E-03 0. -1.
         11    1    4    4    0    0 -0.17829044950E-02  0.28734926620E-01 -0.21132327409E-01  0.35717098693E-01  0.51100000000E-03 0.  1.
</event>
<event>
 8    1  0.1150307E+005  0.1043930E+01  0.7957747E-01            NaN
         13   -1    0    0    0    0  0.00000000000E+00  0.00000000000E+00  0.74505805969E-08  0.10566000000E+00  0.10566000000E+00 0. -1.
     999900   -1    0    0    0    0 -0.00000000000E+00 -0.00000000000E+00 -0.74505805969E-08  0.93827000000E+00  0.93827000000E+00 0.  1.
     999902    2    1    2    0    0 -0.26366292926E-02 -0.31409503559E-02  0.23356940176E-01  0.10202157841E+01  0.10199401365E+01 0.  0.
     999903    2    3    3    0    0  0.24014111555E-01 -0.11086112756E+00 -0.58845786722E-01  0.12944578744E+00  0.20652315000E-01 0.  0.
         14    1    1    2    0    0  0.26366292926E-02  0.31409503559E-02 -0.23356940176E-01  0.23714215938E-01  0.00000000000E+00 0.  1.
     999901    1    3    3    0    0 -0.26650740848E-01  0.10772017720E+00  0.82202726898E-01  0.89076999662E+00  0.88000000000E+00 0. -1.
        -11    1    4    4    0    0  0.21356946414E-02 -0.24059669915E-01 -0.21883829663E-01  0.32597423668E-01  0.51100000000E-03 0.  1.
         11    1    4    4    0    0  0.21878416914E-01 -0.86801457643E-01 -0.36961957058E-01  0.96848363777E-01  0.51100000000E-03 0. -1.
</event>
<event>
 8    1  0.1150307E+005  0.1043930E+01  0.7957747E-01            NaN
         13   -1    0    0    0    0  0.00000000000E+00  0.00000000000E+00  0.74505805969E-08  0.10566000000E+00  0.10566000000E+00 0.  1.
     999900   -1    0    0    0    0 -0.00000000000E+00 -0.00000000000E+00 -0.74505805969E-08  0.93827000000E+00  0.93827000000E+00 0.  1.
     999902    2    1    2    0    0  0.79632781784E-02 -0.21323034095E-01  0.62681492350E-02  0.10203212034E+01  0.10200480297E+01 0.  0.
     999903    2    3    3    0    0 -0.82625054886E-01 -0.88372065304E-01  0.49029116087E-01  0.13210370809E+00  0.20273476429E-01 0.  0.
         14    1    1    2    0    0 -0.79632781784E-02  0.21323034095E-01 -0.62681492350E-02  0.23608796607E-01  0.00000000000E+00 0. -1.
     999901    1    3    3    0    0  0.90588333064E-01  0.67049031209E-01 -0.42760966852E-01  0.88821749530E+00  0.88000000000E+00 0.  1.
        -11    1    4    4    0    0 -0.64416112462E-01 -0.74919554838E-01  0.32307301859E-01  0.10395382685E+00  0.51100000000E-03 0.  1.
         11    1    4    4    0    0 -0.18208942424E-01 -0.13452510466E-01  0.16721814227E-01  0.28149881245E-01  0.51100000000E-03 0. -1.
</event>
<event>
 8    1  0.1150307E+005  0.1043930E+01  0.7957747E-01            NaN
         13   -1    0    0    0    0  0.00000000000E+00  0.00000000000E+00  0.74505805969E-08  0.10566000000E+00  0.10566000000E+00 0. -1.
     999900   -1    0    0    0    0 -0.00000000000E+00 -0.00000000000E+00 -0.74505805969E-08  0.93827000000E+00  0.93827000000E+00 0.  1.
     999902    2    1    2    0    0  0.16835756489E-01 -0.14908757247E-01  0.80495260387E-02  0.10200446780E+01  0.10197649908E+01 0.  0.
     999903    2    3    3    0    0  0.96744101117E-01  0.59968881731E-02 -0.83404329226E-01  0.13145804899E+00  0.30488567400E-01 0.  0.
         14    1    1    2    0    0 -0.16835756489E-01  0.14908757247E-01 -0.80495260387E-02  0.23885322034E-01  0.00000000000E+00 0.  1.
     999901    1    3    3    0    0 -0.79908344628E-01 -0.20905645420E-01  0.91453855264E-01  0.88858662898E+00  0.88000000000E+00 0. -1.
        -11    1    4    4    0    0  0.69259649148E-01  0.11525890182E-01 -0.73685114308E-01  0.10178164047E+00  0.51100000000E-03 0.  1.
         11    1    4    4    0    0  0.27484451969E-01 -0.55290020085E-02 -0.97192149180E-02  0.29676408524E-01  0.51100000000E-03 0. -1.
</event>
<event>
 8    1  0.1150307E+005  0.1043930E+01  0.7957747E-01            NaN
         13   -1    0    0    0    0  0.00000000000E+00  0.00000000000E+00  0.74505805969E-08  0.10566000000E+00  0.10566000000E+00 0.  1.
     999900   -1    0    0    0    0 -0.00000000000E+00 -0.00000000000E+00 -0.74505805969E-08  0.93827000000E+00  0.93827000000E+00 0.  1.
     999902    2    1    2    0    0  0.10027887886E-01 -0.17715258008E-01 -0.12394508381E-01  0.10200969822E+01  0.10198185330E+01 0.  0.
     999903    2    3    3    0    0  0.67790862142E-01 -0.99851839747E-01 -0.53202569198E-01  0.13344695137E+00  0.20287547169E-01 0.  0.
         14    1    1    2    0    0 -0.10027887886E-01  0.17715258008E-01  0.12394508381E-01  0.23833017848E-01  0.00000000000E+00 0.  1.
     999901    1    3    3    0    0 -0.57762974256E-01  0.82136581739E-01  0.40808060817E-01  0.88665003078E+00  0.88000000000E+00 0. -1.
        -11    1    4    4    0    0  0.50494593796E-01 -0.70520488410E-01 -0.47585494952E-01  0.98931712504E-01  0.51100000000E-03 0.  1.
         11    1    4    4    0    0  0.17296268346E-01 -0.29331351337E-01 -0.56170742466E-02  0.34515238867E-01  0.51100000000E-03 0. -1.
</event>
<event>
 8    1  0.1150307E+005  0.1043930E+01  0.7957747E-01            NaN
         13   -1    0    0    0    0  0.00000000000E+00  0.00000000000E+00  0.74505805969E-08  0.10566000000E+00  0.10566000000E+00 0.  1.
     999900   -1    0    0    0    0 -0.00000000000E+00 -0.00000000000E+00 -0.74505805969E-08  0.93827000000E+00  0.93827000000E+00 0.  1.
     999902    2    1    2    0    0  0.10684402371E-01  0.17284190893E-01 -0.12446209483E-01  0.10201012812E+01  0.10198229337E+01 0.  0.
     999903    2    3    3    0    0  0.38490887631E-01  0.10658294996E+00 -0.69798577933E-01  0.13328858218E+00  0.72478275704E-02 0.  0.
         14    1    1    2    0    0 -0.10684402371E-01 -0.17284190893E-01  0.12446209483E-01  0.23828718794E-01  0.00000000000E+00 0.  1.
     999901    1    3    3    0    0 -0.27806485260E-01 -0.89298759066E-01  0.57352368450E-01  0.88681269903E+00  0.88000000000E+00 0. -1.
        -11    1    4    4    0    0  0.81864777522E-02  0.15679850937E-01 -0.97220941627E-02  0.20190502206E-01  0.51100000000E-03 0. -1.
         11    1    4    4    0    0  0.30304409879E-01  0.90903099022E-01 -0.60076483771E-01  0.11309807997E+00  0.51100000000E-03 0.  1.
</event>
<event>
 8    1  0.1150307E+005  0.1043930E+01  0.7957747E-01            NaN
         13   -1    0    0    0    0  0.00000000000E+00  0.00000000000E+00  0.74505805969E-08  0.10566000000E+00  0.10566000000E+00 0.  1.
     999900   -1    0    0    0    0 -0.00000000000E+00 -0.00000000000E+00 -0.74505805969E-08  0.93827000000E+00  0.93827000000E+00 0. -1.
     999902    2    1    2    0    0  0.65384506167E-02  0.79681973847E-02  0.22029298088E-01  0.10196085387E+01  0.10193184187E+01 0.  0.
     999903    2    3    3    0    0  0.72761629149E-02  0.11837462523E+00  0.54447398517E-01  0.13211709830E+00  0.20613442554E-01 0.  0.
         14    1    1    2    0    0 -0.65384506167E-02 -0.79681973847E-02 -0.22029298088E-01  0.24321461311E-01  0.00000000000E+00 0. -1.
     999901    1    3    3    0    0 -0.73771229818E-03 -0.11040642784E+00 -0.32418100429E-01  0.88749144039E+00  0.88000000000E+00 0. -1.
        -11    1    4    4    0    0  0.73439837561E-02  0.97143277231E-01  0.52814305735E-01  0.11081679665E+00  0.51100000000E-03 0.  1.
         11    1    4    4    0    0 -0.67820841189E-04  0.21231347995E-01  0.16330927821E-02  0.21300301650E-01  0.51100000000E-03 0. -1.
</event>
<event>
 8    1  0.1150307E+005  0.1043930E+01  0.7957747E-01            NaN
         13   -1    0    0    0    0  0.00000000000E+00  0.00000000000E+00  0.74505805969E-08  0.10566000000E+00  0.10566000000E+00 0.  1.
     999900   -1    0    0    0    0 -0.00000000000E+00 -0.00000000000E+00 -0.74505805969E-08  0.93827000000E+00  0.93827000000E+00 0. -1.
     999902    2    1    2    0    0  0.11895490499E-01 -0.13952620337E-01  0.14675040635E-01  0.10204452150E+01  0.10201749368E+01 0.  0.
     999903    2    3    3    0    0 -0.29862169311E-01  0.34398724683E-01  0.12185864369E+00  0.13164271755E+00  0.20130937094E-01 0.  0.
         14    1    1    2    0    0 -0.11895490499E-01  0.13952620337E-01 -0.14675040635E-01  0.23484784992E-01  0.00000000000E+00 0. -1.
     999901    1    3    3    0    0  0.41757659810E-01 -0.48351345020E-01 -0.10718360305E+00  0.88880249745E+00  0.88000000000E+00 0. -1.
        -11    1    4    4    0    0 -0.32544232149E-01  0.28437084744E-01  0.10715270622E+00  0.11554115460E+00  0.51100000000E-03 0. -1.
         11    1    4    4    0    0  0.26820628384E-02  0.59616399387E-02  0.14705937467E-01  0.16101562956E-01  0.51100000000E-03 0.  1.
</event>
<event>
 8    1  0.1150307E+005  0.1043930E+01  0.7957747E-01            NaN
         13   -1    0    0    0    0  0.00000000000E+00  0.00000000000E+00  0.74505805969E-08  0.10566000000E+00  0.10566000000E+00 0.  1.
     999900   -1    0    0    0    0 -0.00000000000E+00 -0.00000000000E+00 -0.74505805969E-08  0.93827000000E+00  0.93827000000E+00 0.  1.
     999902    2    1    2    0    0  0.41083358947E-03  0.17617271728E-01 -0.15141129067E-01  0.10206966008E+01  0.10204321438E+01 0.  0.
     999903    2    3    3    0    0 -0.10221128045E+00  0.74428058015E-01  0.30954535522E-01  0.13171765057E+00  0.20116523810E-01 0.  0.
         14    1    1    2    0    0 -0.41083358947E-03 -0.17617271728E-01  0.15141129067E-01  0.23233399165E-01  0.00000000000E+00 0.  1.
     999901    1    3    3    0    0  0.10262211404E+00 -0.56810786287E-01 -0.46095664589E-01  0.88897895027E+00  0.88000000000E+00 0.  1.
        -11    1    4    4    0    0 -0.43040357007E-01  0.30870854556E-01  0.28355004513E-02  0.53045105110E-01  0.51100000000E-03 0.  1.
         11    1    4    4    0    0 -0.59170923441E-01  0.43557203459E-01  0.28119035071E-01  0.78672545455E-01  0.51100000000E-03 0. -1.
</event>
<event>
 8    1  0.1150307E+005  0.1043930E+01  0.7957747E-01            NaN
         13   -1    0    0    0    0  0.00000000000E+00  0.00000000000E+00  0.74505805969E-08  0.10566000000E+00  0.10566000000E+00 0.  1.
     999900   -1    0    0    0    0 -0.00000000000E+00 -0.00000000000E+00 -0.74505805969E-08  0.93827000000E+00  0.93827000000E+00 0. -1.
     999902    2    1    2    0    0  0.21501258315E-01 -0.91209286024E-02 -0.30248950569E-02  0.10203790884E+01  0.10201072682E+01 0.  0.
     999903    2    3    3    0    0 -0.37110822550E-01 -0.12330729575E+00  0.14546079597E-01  0.13089460757E+00  0.18436581160E-01 0.  0.
         14    1    1    2    0    0 -0.21501258315E-01  0.91209286024E-02  0.30248950569E-02  0.23550911613E-01  0.00000000000E+00 0.  1.
     999901    1    3    3    0    0  0.58612080865E-01  0.11418636714E+00 -0.17570974654E-01  0.88948448082E+00  0.88000000000E+00 0.  1.
        -11    1    4    4    0    0 -0.17306825496E-01 -0.63329327448E-01  0.16515263984E-01  0.67698929011E-01  0.51100000000E-03 0.  1.
         11    1    4    4    0    0 -0.19803997054E-01 -0.59977968297E-01 -0.19691843868E-02  0.63195678559E-01  0.51100000000E-03 0. -1.
</event>
<event>
 8    1  0.1150307E+005  0.1043930E+01  0.7957747E-01            NaN
         13   -1    0    0    0    0  0.00000000000E+00  0.00000000000E+00  0.74505805969E-08  0.10566000000E+00  0.10566000000E+00 0. -1.
     999900   -1    0    0    0    0 -0.00000000000E+00 -0.00000000000E+00 -0.74505805969E-08  0.93827000000E+00  0.93827000000E+00 0.  1.
     999902    2    1    2    0    0 -0.17836685470E-01 -0.96238919111E-02  0.12484672485E-01  0.10201259312E+01  0.10198481661E+01 0.  0.
     999903    2    3    3    0    0  0.40479598258E-01 -0.11863721965E+00  0.33188746673E-01  0.13124272557E+00  0.20242834462E-01 0.  0.
         14    1    1    2    0    0  0.17836685470E-01  0.96238919111E-02 -0.12484672485E-01  0.23804068794E-01  0.00000000000E+00 0.  1.
     999901    1    3    3    0    0 -0.58316283728E-01  0.10901332774E+00 -0.20704074188E-01  0.88888320564E+00  0.88000000000E+00 0.  1.
        -11    1    4    4    0    0  0.30688077287E-01 -0.60045635496E-01  0.20667980467E-01  0.70531290697E-01  0.51100000000E-03 0.  1.
         11    1    4    4    0    0  0.97915209706E-02 -0.58591584158E-01  0.12520766205E-01  0.60711434874E-01  0.51100000000E-03 0. -1.
</event>
<event>
 8    1  0.1150307E+005  0.1043930E+01  0.7957747E-01            NaN
         13   -1    0    0    0    0  0.00000000000E+00  0.00000000000E+00  0.74505805969E-08  0.10566000000E+00  0.10566000000E+00 0.  1.
     999900   -1    0    0    0    0 -0.00000000000E+00 -0.00000000000E+00 -0.74505805969E-08  0.93827000000E+00  0.93827000000E+00 0.  1.
     999902    2    1    2    0    0  0.22680108016E-01 -0.55397302236E-02 -0.38426726163E-02  0.10202690185E+01  0.10199946216E+01 0.  0.
     999903    2    3    3    0    0 -0.13557859160E-01  0.76360990355E-01 -0.10257581530E+00  0.13023017009E+00  0.20573840753E-01 0.  0.
         14    1    1    2    0    0 -0.22680108016E-01  0.55397302236E-02  0.38426726163E-02  0.23660981455E-01  0.00000000000E+00 0. -1.
     999901    1    3    3    0    0  0.36237967177E-01 -0.81900720579E-01  0.98733142686E-01  0.89003884846E+00  0.88000000000E+00 0. -1.
        -11    1    4    4    0    0 -0.44316490612E-02  0.49272307884E-01 -0.49737400811E-01  0.70153189508E-01  0.51100000000E-03 0.  1.
         11    1    4    4    0    0 -0.91262100991E-02  0.27088682471E-01 -0.52838414492E-01  0.60076980581E-01  0.51100000000E-03 0. -1.
</event>
<event>
 8    1  0.1150307E+005  0.1043930E+01  0.7957747E-01            NaN
         13   -1    0    0    0    0  0.00000000000E+00  0.00000000000E+00  0.74505805969E-08  0.10566000000E+00  0.10566000000E+00 0. -1.
     999900   -1    0    0    0    0 -0.00000000000E+00 -0.00000000000E+00 -0.74505805969E-08  0.93827000000E+00  0.93827000000E+00 0. -1.
     999902    2    1    2    0    0 -0.20225529386E-01  0.10410901026E-01  0.53524074299E-02  0.10205610641E+01  0.10202934766E+01 0.  0.
     999903    2    3    3    0    0  0.57789801403E-01 -0.10325827968E+00  0.48030119022E-01  0.12880523344E+00  0.16791734851E-01 0.  0.
         14    1    1    2    0    0  0.20225529386E-01 -0.10410901026E-01 -0.53524074299E-02  0.23368935886E-01  0.00000000000E+00 0. -1.
     999901    1    3    3    0    0 -0.78015330789E-01  0.11366918070E+00 -0.42677711592E-01  0.89175583068E+00  0.88000000000E+00 0.  1.
        -11    1    4    4    0    0  0.21729975282E-01 -0.52781874952E-01  0.28265067718E-01  0.63696886292E-01  0.51100000000E-03 0.  1.
         11    1    4    4    0    0  0.36059826121E-01 -0.50476404726E-01  0.19765051304E-01  0.65108347146E-01  0.51100000000E-03 0. -1.
</event>
<event>
 8    1  0.1150307E+005  0.1043930E+01  0.7957747E-01            NaN
         13   -1    0    0    0    0  0.00000000000E+00  0.00000000000E+00  0.74505805969E-08  0.10566000000E+00  0.10566000000E+00 0. -1.
     999900   -1    0    0    0    0 -0.00000000000E+00 -0.00000000000E+00 -0.74505805969E-08  0.93827000000E+00  0.93827000000E+00 0.  1.
     999902    2    1    2    0    0  0.19293970602E-02  0.25790166658E-01 -0.58686373959E-02  0.10174102682E+01  0.10170645789E+01 0.  0.
     999903    2    3    3    0    0 -0.20062644104E-01 -0.83874477566E-01 -0.90158150965E-01  0.12633523985E+00  0.19866126139E-01 0.  0.
         14    1    1    2    0    0 -0.19293970602E-02 -0.25790166658E-01  0.58686373959E-02  0.26519731789E-01  0.00000000000E+00 0.  1.
     999901    1    3    3    0    0  0.21992041164E-01  0.10966464422E+00  0.84289513569E-01  0.89107502836E+00  0.88000000000E+00 0. -1.
        -11    1    4    4    0    0 -0.13982502488E-01 -0.77785311849E-01 -0.75327180714E-01  0.10918108989E+00  0.51100000000E-03 0.  1.
         11    1    4    4    0    0 -0.60801416156E-02 -0.60891657175E-02 -0.14830970251E-01  0.17154149958E-01  0.51100000000E-03 0. -1.
</event>
<event>
 8    1  0.1150307E+005  0.1043930E+01  0.7957747E-01            NaN
         13   -1    0    0    0    0  0.00000000000E+00  0.00000000000E+00  0.74505805969E-08  0.10566000000E+00  0.10566000000E+00 0.  1.
     999900   -1    0    0    0    0 -0.00000000000E+00 -0.00000000000E+00 -0.74505805969E-08  0.93827000000E+00  0.93827000000E+00 0. -1.
     999902    2    1    2    0    0 -0.22167662193E-01  0.13630181056E-01  0.14845128491E-01  0.10139706121E+01  0.10135279164E+01 0.  0.
     999903    2    3    3    0    0  0.97356274474E-01 -0.69149201490E-01 -0.89120286859E-02  0.12172468182E+00  0.21854465493E-01 0.  0.
         14    1    1    2    0    0  0.22167662193E-01 -0.13630181056E-01 -0.14845128491E-01  0.29959387888E-01  0.00000000000E+00 0. -1.
     999901    1    3    3    0    0 -0.11952393667E+00  0.82779382546E-01  0.23757157177E-01  0.89224593030E+00  0.88000000000E+00 0.  1.
        -11    1    4    4    0    0  0.89276605223E-01 -0.57721977248E-01 -0.25510733997E-02  0.10634334955E+00  0.51100000000E-03 0.  1.
         11    1    4    4    0    0  0.80796692514E-02 -0.11427224242E-01 -0.63609552862E-02  0.15381332265E-01  0.51100000000E-03 0. -1.
</event>
<event>
 8    1  0.1150307E+005  0.1043930E+01  0.7957747E-01            NaN
         13   -1    0    0    0    0  0.00000000000E+00  0.00000000000E+00  0.74505805969E-08  0.10566000000E+00  0.10566000000E+00 0.  1.
     999900   -1    0    0    0    0 -0.00000000000E+00 -0.00000000000E+00 -0.74505805969E-08  0.93827000000E+00  0.93827000000E+00 0. -1.
     999902    2    1    2    0    0 -0.21784269116E-01  0.82502660898E-02  0.76314276208E-05  0.10206357662E+01  0.10203699064E+01 0.  0.
     999903    2    3    3    0    0  0.80945684746E-01 -0.71010353656E-01  0.66509670913E-01  0.12863901140E+00  0.23017052894E-01 0.  0.
         14    1    1    2    0    0  0.21784269116E-01 -0.82502660898E-02 -0.76314276208E-05  0.23294233830E-01  0.00000000000E+00 0. -1.
     999901    1    3    3    0    0 -0.10272995386E+00  0.79260619746E-01 -0.66502039486E-01  0.89199675477E+00  0.88000000000E+00 0.  1.
        -11    1    4    4    0    0  0.68249269842E-01 -0.52106724372E-01  0.43483084217E-01  0.96250263858E-01  0.51100000000E-03 0. -1.
         11    1    4    4    0    0  0.12696414904E-01 -0.18903629283E-01  0.23026586697E-01  0.32388747543E-01  0.51100000000E-03 0.  1.
</event>
<event>
 8    1  0.1150307E+005  0.1043930E+01  0.7957747E-01            NaN
         13   -1    0    0    0    0  0.00000000000E+00  0.00000000000E+00  0.74505805969E-08  0.10566000000E+00  0.10566000000E+00 0.  1.
     999900   -1    0    0    0    0 -0.00000000000E+00 -0.00000000000E+00 -0.74505805969E-08  0.93827000000E+00  0.93827000000E+00 0.  1.
     999902    2    1    2    0    0  0.20110721037E-01 -0.91737860466E-02  0.92244127501E-02  0.10199781892E+01  0.10196969242E+01 0.  0.
     999903    2    3    3    0    0  0.10150260624E+00 -0.80536662988E-01 -0.21406414833E-01  0.13281667808E+00  0.19826805587E-01 0.  0.
         14    1    1    2    0    0 -0.20110721037E-01  0.91737860466E-02 -0.92244127501E-02  0.23951810821E-01  0.00000000000E+00 0. -1.
     999901    1    3    3    0    0 -0.81391885207E-01  0.71362876941E-01  0.30630827583E-01  0.88716151110E+00  0.88000000000E+00 0. -1.
        -11    1    4    4    0    0  0.33575438662E-01 -0.37073644211E-01 -0.13353174213E-01  0.51771937949E-01  0.51100000000E-03 0. -1.
         11    1    4    4    0    0  0.67927167581E-01 -0.43463018777E-01 -0.80532406201E-02  0.81044740127E-01  0.51100000000E-03 0.  1.
</event>
<event>
 8    1  0.1150307E+005  0.1043930E+01  0.7957747E-01            NaN
         13   -1    0    0    0    0  0.00000000000E+00  0.00000000000E+00  0.74505805969E-08  0.10566000000E+00  0.10566000000E+00 0. -1.
     999900   -1    0    0    0    0 -0.00000000000E+00 -0.00000000000E+00 -0.74505805969E-08  0.93827000000E+00  0.93827000000E+00 0. -1.
     999902    2    1    2    0    0  0.19128989712E-01 -0.16168364969E-01  0.65491967835E-02  0.10180412717E+01  0.10177120441E+01 0.  0.
     999903    2    3    3    0    0  0.54785663009E-01 -0.17733130624E-01  0.11527443821E+00  0.13063210738E+00  0.21462026460E-01 0.  0.
         14    1    1    2    0    0 -0.19128989712E-01  0.16168364969E-01 -0.65491967835E-02  0.25888728275E-01  0.00000000000E+00 0. -1.
     999901    1    3    3    0    0 -0.35656673297E-01  0.15647656541E-02 -0.10872524143E+00  0.88740916435E+00  0.88000000000E+00 0. -1.
        -11    1    4    4    0    0  0.39686543135E-01 -0.38446401759E-02  0.64031773366E-01  0.75432964184E-01  0.51100000000E-03 0.  1.
         11    1    4    4    0    0  0.15099119875E-01 -0.13888490448E-01  0.51242664846E-01  0.55199143195E-01  0.51100000000E-03 0. -1.
</event>
<event>
 8    1  0.1150307E+005  0.1043930E+01  0.7957747E-01            NaN
         13   -1    0    0    0    0  0.00000000000E+00  0.00000000000E+00  0.74505805969E-08  0.10566000000E+00  0.10566000000E+00 0.  1.
     999900   -1    0    0    0    0 -0.00000000000E+00 -0.00000000000E+00 -0.74505805969E-08  0.93827000000E+00  0.93827000000E+00 0.  1.
     999902    2    1    2    0    0 -0.91632704222E-02  0.15060099280E-01  0.15921925492E-01  0.10201754251E+01  0.10198988275E+01 0.  0.
     999903    2    3    3    0    0  0.10848767266E+00 -0.45974031360E-01  0.50203355804E-01  0.12959015355E+00  0.19749538849E-01 0.  0.
         14    1    1    2    0    0  0.91632704222E-02 -0.15060099280E-01 -0.15921925492E-01  0.23754574855E-01  0.00000000000E+00 0. -1.
     999901    1    3    3    0    0 -0.11765094308E+00  0.61034130640E-01 -0.34281430312E-01  0.89058527159E+00  0.88000000000E+00 0.  1.
        -11    1    4    4    0    0  0.79677488101E-01 -0.26687089852E-01  0.42081825991E-01  0.93977891413E-01  0.51100000000E-03 0.  1.
         11    1    4    4    0    0  0.28810184562E-01 -0.19286941508E-01  0.81215298138E-02  0.35612262140E-01  0.51100000000E-03 0. -1.
</event>
<event>
 8    1  0.1150307E+005  0.1043930E+01  0.7957747E-01            NaN
         13   -1    0    0    0    0  0.00000000000E+00  0.00000000000E+00  0.74505805969E-08  0.10566000000E+00  0.10566000000E+00 0.  1.
     999900   -1    0    0    0    0 -0.00000000000E+00 -0.00000000000E+00 -0.74505805969E-08  0.93827000000E+00  0.93827000000E+00 0. -1.
     999902    2    1    2    0    0 -0.11503267642E-01  0.18414571959E-01 -0.94814939006E-02  0.10202377997E+01  0.10199626697E+01 0.  0.
     999903    2    3    3    0    0  0.12583577233E+00  0.22263436993E-01  0.67082831252E-02  0.12942977634E+00  0.19410402271E-01 0.  0.
         14    1    1    2    0    0  0.11503267642E-01 -0.18414571959E-01  0.94814939006E-02  0.23692200267E-01  0.00000000000E+00 0.  1.
     999901    1    3    3    0    0 -0.13733903997E+00 -0.38488650335E-02 -0.16189777026E-01  0.89080802339E+00  0.88000000000E+00 0.  1.
        -11    1    4    4    0    0  0.48046064103E-01  0.58274294573E-02 -0.64865335546E-02  0.48833589346E-01  0.51100000000E-03 0.  1.
         11    1    4    4    0    0  0.77789708226E-01  0.16436007535E-01  0.13194816680E-01  0.80596186993E-01  0.51100000000E-03 0. -1.
</event>
<event>
 8    1  0.1150307E+005  0.1043930E+01  0.7957747E-01            NaN
         13   -1    0    0    0    0  0.00000000000E+00  0.00000000000E+00  0.74505805969E-08  0.10566000000E+00  0.10566000000E+00 0.  1.
     999900   -1    0    0    0    0 -0.00000000000E+00 -0.00000000000E+00 -0.74505805969E-08  0.93827000000E+00  0.93827000000E+00 0.  1.
     999902    2    1    2    0    0 -0.20615104171E-01  0.11744040224E-01  0.33204526887E-02  0.10199731553E+01  0.10196917707E+01 0.  0.
     999903    2    3    3    0    0 -0.95126884154E-01 -0.77499021063E-01 -0.42374158554E-01  0.13115127956E+00  0.18704717635E-01 0.  0.
         14    1    1    2    0    0  0.20615104171E-01 -0.11744040224E-01 -0.33204526887E-02  0.23956844676E-01  0.00000000000E+00 0.  1.
     999901    1    3    3    0    0  0.74511779983E-01  0.89243061288E-01  0.45694611243E-01  0.88882187577E+00  0.88000000000E+00 0. -1.
        -11    1    4    4    0    0 -0.50192567888E-01 -0.52316999294E-01 -0.22139300239E-01  0.75807466798E-01  0.51100000000E-03 0.  1.
         11    1    4    4    0    0 -0.44934316266E-01 -0.25182021769E-01 -0.20234858316E-01  0.55343812759E-01  0.51100000000E-03 0. -1.
</event>
<event>
 8    1  0.1150307E+005  0.1043930E+01  0.7957747E-01            NaN
         13   -1    0    0    0    0  0.00000000000E+00  0.00000000000E+00  0.74505805969E-08  0.10566000000E+00  0.10566000000E+00 0.  1.
     999900   -1    0    0    0    0 -0.00000000000E+00 -0.00000000000E+00 -0.74505805969E-08  0.93827000000E+00  0.93827000000E+00 0. -1.
     999902    2    1    2    0    0  0.21410432787E-01  0.83428981317E-02  0.10316569180E-01  0.10187418643E+01  0.10184304315E+01 0.  0.
     999903    2    3    3    0    0 -0.10393266533E+00  0.23909905232E-01  0.67389185998E-01  0.12789366871E+00  0.21019172618E-01 0.  0.
         14    1    1    2    0    0 -0.21410432787E-01 -0.83428981317E-02 -0.10316569180E-01  0.25188135719E-01  0.00000000000E+00 0. -1.
     999901    1    3    3    0    0  0.12534309811E+00 -0.15567007100E-01 -0.57072616818E-01  0.89084819557E+00  0.88000000000E+00 0. -1.
        -11    1    4    4    0    0 -0.86566560337E-01  0.24214393128E-01  0.63583424641E-01  0.11010549129E+00  0.51100000000E-03 0.  1.
         11    1    4    4    0    0 -0.17366104990E-01 -0.30448789600E-03  0.38057613564E-02  0.17788177419E-01  0.51100000000E-03 0. -1.
</event>
<event>
 8    1  0.1150307E+005  0.1043930E+01  0.7957747E-01            NaN
         13   -1    0    0    0    0  0.00000000000E+00  0.00000000000E+00  0.74505805969E-08  0.10566000000E+00  0.10566000000E+00 0.  1.
     999900   -1    0    0    0    0 -0.00000000000E+00 -0.00000000000E+00 -0.74505805969E-08  0.93827000000E+00  0.93827000000E+00 0. -1.
     999902    2    1    2    0    0  0.15993701953E-01 -0.15820454303E-01 -0.57649385016E-02  0.10207067403E+01  0.10204425167E+01 0.  0.
     999903    2    3    3    0    0  0.85694869461E-01 -0.28150435315E-01 -0.95852791152E-01  0.13328006590E+00  0.20970472939E-01 0.  0.
         14    1    1    2    0    0 -0.15993701953E-01  0.15820454303E-01  0.57649385016E-02  0.23223259729E-01  0.00000000000E+00 0.  1.
     999901    1    3    3    0    0 -0.69701167508E-01  0.12329981012E-01  0.90087852650E-01  0.88742667437E+00  0.88000000000E+00 0.  1.
        -11    1    4    4    0    0  0.46384733020E-01 -0.98216143293E-02 -0.63087670525E-01  0.78919724142E-01  0.51100000000E-03 0. -1.
         11    1    4    4    0    0  0.39310136441E-01 -0.18328820986E-01 -0.32765120627E-01  0.54360341762E-01  0.51100000000E-03 0.  1.
</event>
<event>
 8    1  0.1150307E+005  0.1043930E+01  0.7957747E-01            NaN
         13   -1    0    0    0    0  0.00000000000E+00  0.00000000000E+00  0.74505805969E-08  0.10566000000E+00  0.10566000000E+00 0.  1.
     999900   -1    0    0    0    0 -0.00000000000E+00 -0.00000000000E+00 -0.74505805969E-08  0.93827000000E+00  0.93827000000E+00 0.  1.
     999902    2    1    2    0    0  0.79026212274E-02  0.28382422187E-02 -0.21777780670E-01  0.10205895036E+01  0.10203225745E+01 0.  0.
     999903    2    3    3    0    0  0.23174767943E-01  0.93009875056E-01 -0.89446487840E-01  0.13326587844E+00  0.23900072042E-01 0.  0.
         14    1    1    2    0    0 -0.79026212274E-02 -0.28382422187E-02  0.21777780670E-01  0.23340496397E-01  0.00000000000E+00 0.  1.
     999901    1    3    3    0    0 -0.15272146715E-01 -0.90171632838E-01  0.67668707170E-01  0.88732362516E+00  0.88000000000E+00 0. -1.
        -11    1    4    4    0    0  0.15481850412E-01  0.57356414813E-01 -0.70388092661E-01  0.92109666821E-01  0.51100000000E-03 0.  1.
         11    1    4    4    0    0  0.76929175305E-02  0.35653460243E-01 -0.19058395178E-01  0.41156211624E-01  0.51100000000E-03 0. -1.
</event>
<event>
 8    1  0.1150307E+005  0.1043930E+01  0.7957747E-01            NaN
         13   -1    0    0    0    0  0.00000000000E+00  0.00000000000E+00  0.74505805969E-08  0.10566000000E+00  0.10566000000E+00 0.  1.
     999900   -1    0    0    0    0 -0.00000000000E+00 -0.00000000000E+00 -0.74505805969E-08  0.93827000000E+00  0.93827000000E+00 0.  1.
     999902    2    1    2    0    0 -0.12312018096E-01  0.17377525795E-01 -0.48971432162E-03  0.10226273238E+01  0.10224054183E+01 0.  0.
     999903    2    3    3    0    0 -0.10311049947E+00  0.45502537517E-01  0.71009079073E-01  0.13462537677E+00  0.19479392687E-01 0.  0.
         14    1    1    2    0    0  0.12312018096E-01 -0.17377525795E-01  0.48971432162E-03  0.21302676181E-01  0.00000000000E+00 0.  1.
     999901    1    3    3    0    0  0.90798481369E-01 -0.28125011722E-01 -0.71498793395E-01  0.88800194705E+00  0.88000000000E+00 0.  1.
        -11    1    4    4    0    0 -0.77124383855E-01  0.30881047075E-01  0.42287499625E-01  0.93221796802E-01  0.51100000000E-03 0. -1.
         11    1    4    4    0    0 -0.25986115610E-01  0.14621490442E-01  0.28721579448E-01  0.41403579969E-01  0.51100000000E-03 0.  1.
</event>
<event>
 8    1  0.1150307E+005  0.1043930E+01  0.7957747E-01            NaN
         13   -1    0    0    0    0  0.00000000000E+00  0.00000000000E+00  0.74505805969E-08  0.10566000000E+00  0.10566000000E+00 0. -1.
     999900   -1    0    0    0    0 -0.00000000000E+00 -0.00000000000E+00 -0.74505805969E-08  0.93827000000E+00  0.93827000000E+00 0. -1.
     999902    2    1    2    0    0  0.20858150013E-01  0.78165486276E-02 -0.10318709589E-01  0.10193813417E+01  0.10190857095E+01 0.  0.
     999903    2    3    3    0    0 -0.10714452954E+00 -0.27445737395E-01 -0.61311879293E-01  0.12796201385E+00  0.19542562126E-01 0.  0.
         14    1    1    2    0    0 -0.20858150013E-01 -0.78165486276E-02  0.10318709589E-01  0.24548658252E-01  0.00000000000E+00 0. -1.
     999901    1    3    3    0    0  0.12800267956E+00  0.35262286023E-01  0.50993169704E-01  0.89141932790E+00  0.88000000000E+00 0.  1.
        -11    1    4    4    0    0 -0.57254975857E-01 -0.20983321339E-01 -0.42135745867E-01  0.74122292434E-01  0.51100000000E-03 0. -1.
         11    1    4    4    0    0 -0.49889553686E-01 -0.64624160561E-02 -0.19176133426E-01  0.53839721419E-01  0.51100000000E-03 0.  1.
</event>
<event>
 8    1  0.1186840E+005  0.1043930E+01  0.7957747E-01            NaN
         13   -1    0    0    0    0  0.00000000000E+00  0.00000000000E+00  0.74505805969E-08  0.10566000000E+00  0.10566000000E+00 0.  1.
     999900   -1    0    0    0    0 -0.00000000000E+00 -0.00000000000E+00 -0.74505805969E-08  0.93827000000E+00  0.93827000000E+00 0.  1.
     999902    2    1    2    0    0 -0.16466169819E-01 -0.96286731794E-02  0.10633757277E-01  0.10220914357E+01  0.10218581017E+01 0.  0.
     999903    2    3    3    0    0 -0.89902468914E-01  0.27975091434E-01  0.93746858189E-01  0.13433317996E+00  0.19795710651E-01 0.  0.
         14    1    1    2    0    0  0.16466169819E-01  0.96286731794E-02 -0.10633757277E-01  0.21838564274E-01  0.00000000000E+00 0.  1.
     999901    1    3    3    0    0  0.73436299095E-01 -0.37603764613E-01 -0.83113100911E-01  0.88775825577E+00  0.88000000000E+00 0.  1.
        -11    1    4    4    0    0 -0.29576518324E-01  0.19032708599E-01  0.36405753703E-01  0.50622667417E-01  0.51100000000E-03 0.  1.
         11    1    4    4    0    0 -0.60325950591E-01  0.89423828343E-02  0.57341104486E-01  0.83710512542E-01  0.51100000000E-03 0. -1.
</event>
<event>
 8    1  0.1150307E+005  0.1043930E+01  0.7957747E-01            NaN
         13   -1    0    0    0    0  0.00000000000E+00  0.00000000000E+00  0.74505805969E-08  0.10566000000E+00  0.10566000000E+00 0.  1.
     999900   -1    0    0    0    0 -0.00000000000E+00 -0.00000000000E+00 -0.74505805969E-08  0.93827000000E+00  0.93827000000E+00 0.  1.
     999902    2    1    2    0    0 -0.43741424727E-02  0.21281386356E-01 -0.85010530613E-02  0.10205997957E+01  0.10203331047E+01 0.  0.
     999903    2    3    3    0    0 -0.51924564244E-01 -0.11497624120E+00  0.19562603895E-01  0.12840320725E+00  0.13747426912E-01 0.  0.
         14    1    1    2    0    0  0.43741424727E-02 -0.21281386356E-01  0.85010530613E-02  0.23330204258E-01  0.00000000000E+00 0.  1.
     999901    1    3    3    0    0  0.47550421771E-01  0.13625762756E+00 -0.28063656956E-01  0.89219658849E+00  0.88000000000E+00 0.  1.
        -11    1    4    4    0    0 -0.19098747005E-01 -0.56223715922E-01  0.12945881550E-01  0.60776026024E-01  0.51100000000E-03 0.  1.
         11    1    4    4    0    0 -0.32825817239E-01 -0.58752525283E-01  0.66167223450E-02  0.67627181223E-01  0.51100000000E-03 0. -1.
</event>
<event>
 8    1  0.1150307E+005  0.1043930E+01  0.7957747E-01            NaN
         13   -1    0    0    0    0  0.00000000000E+00  0.00000000000E+00  0.74505805969E-08  0.10566000000E+00  0.10566000000E+00 0. -1.
     999900   -1    0    0    0    0 -0.00000000000E+00 -0.00000000000E+00 -0.74505805969E-08  0.93827000000E+00  0.93827000000E+00 0.  1.
     999902    2    1    2    0    0 -0.20625463880E-01 -0.11195803232E-01  0.10331431570E-01  0.10182883493E+01  0.10179654553E+01 0.  0.
     999903    2    3    3    0    0  0.11143496030E+00  0.53697848801E-01  0.14615401644E-01  0.12606108339E+00  0.19405603223E-01 0.  0.
         14    1    1    2    0    0  0.20625463880E-01  0.11195803232E-01 -0.10331431570E-01  0.25641650660E-01  0.00000000000E+00 0.  1.
     999901    1    3    3    0    0 -0.13206042418E+00 -0.64893652034E-01 -0.42839700742E-02  0.89222726595E+00  0.88000000000E+00 0.  1.
        -11    1    4    4    0    0  0.64099160333E-02  0.88277279853E-02  0.25559446093E-02  0.11216495833E-01  0.51100000000E-03 0.  1.
         11    1    4    4    0    0  0.10502504427E+00  0.44870120816E-01  0.12059457035E-01  0.11484458755E+00  0.51100000000E-03 0. -1.
</event>
<event>
 8    1  0.1150307E+005  0.1043930E+01  0.7957747E-01            NaN
         13   -1    0    0    0    0  0.00000000000E+00  0.00000000000E+00  0.74505805969E-08  0.10566000000E+00  0.10566000000E+00 0.  1.
     999900   -1    0    0    0    0 -0.00000000000E+00 -0.00000000000E+00 -0.74505805969E-08  0.93827000000E+00  0.93827000000E+00 0. -1.
     999902    2    1    2    0    0 -0.20478922793E-01 -0.92101595730E-02 -0.72804974233E-02  0.10203245142E+01  0.10200514180E+01 0.  0.
     999903    2    3    3    0    0 -0.28434110364E-01  0.72275995503E-01  0.10209934021E+00  0.12978129380E+00  0.19661912224E-01 0.  0.
         14    1    1    2    0    0  0.20478922793E-01  0.92101595730E-02  0.72804974233E-02  0.23605485821E-01  0.00000000000E+00 0.  1.
     999901    1    3    3    0    0  0.79551875711E-02 -0.81486155076E-01 -0.10937983763E+00  0.89054322038E+00  0.88000000000E+00 0. -1.
        -11    1    4    4    0    0 -0.20615471959E-01  0.28437252724E-01  0.51965367594E-01  0.62724282194E-01  0.51100000000E-03 0. -1.
         11    1    4    4    0    0 -0.78186384048E-02  0.43838742779E-01  0.50133972613E-01  0.67057011608E-01  0.51100000000E-03 0.  1.
</event>
<event>
 8    1  0.1150307E+005  0.1043930E+01  0.7957747E-01            NaN
         13   -1    0    0    0    0  0.00000000000E+00  0.00000000000E+00  0.74505805969E-08  0.10566000000E+00  0.10566000000E+00 0. -1.
     999900   -1    0    0    0    0 -0.00000000000E+00 -0.00000000000E+00 -0.74505805969E-08  0.93827000000E+00  0.93827000000E+00 0. -1.
     999902    2    1    2    0    0 -0.21052863257E-01  0.47561303615E-03 -0.57545355733E-02  0.10220996556E+01  0.10218664991E+01 0.  0.
     999903    2    3    3    0    0 -0.11713289202E+00  0.46448529426E-01 -0.44143777296E-01  0.13484624482E+00  0.18901227234E-01 0.  0.
         14    1    1    2    0    0  0.21052863257E-01 -0.47561303615E-03  0.57545355733E-02  0.21830344449E-01  0.00000000000E+00 0.  1.
     999901    1    3    3    0    0  0.96080028760E-01 -0.45972916389E-01  0.38389241723E-01  0.88725341073E+00  0.88000000000E+00 0.  1.
        -11    1    4    4    0    0 -0.10600421984E+00  0.47621380206E-01 -0.40533517663E-01  0.12307687700E+00  0.51100000000E-03 0.  1.
         11    1    4    4    0    0 -0.11128672174E-01 -0.11728507809E-02 -0.36102596331E-02  0.11769367822E-01  0.51100000000E-03 0. -1.
</event>
<event>
 8    1  0.1150307E+005  0.1043930E+01  0.7957747E-01            NaN
         13   -1    0    0    0    0  0.00000000000E+00  0.00000000000E+00  0.74505805969E-08  0.10566000000E+00  0.10566000000E+00 0. -1.
     999900   -1    0    0    0    0 -0.00000000000E+00 -0.00000000000E+00 -0.74505805969E-08  0.93827000000E+00  0.93827000000E+00 0.  1.
     999902    2    1    2    0    0  0.20262179438E-01 -0.13753677232E-01  0.12296730552E-01  0.10165269138E+01  0.10161574865E+01 0.  0.
     999903    2    3    3    0    0  0.34287987536E-01  0.18875447120E-01 -0.11753796582E+00  0.12629187096E+00  0.24546174198E-01 0.  0.
         14    1    1    2    0    0 -0.20262179438E-01  0.13753677232E-01 -0.12296730552E-01  0.27403086236E-01  0.00000000000E+00 0.  1.
     999901    1    3    3    0    0 -0.14025808098E-01 -0.32629124352E-01  0.12983469638E+00  0.89023504280E+00  0.88000000000E+00 0. -1.
        -11    1    4    4    0    0 -0.23240086843E-02  0.69293352549E-02 -0.25197433482E-01  0.26240969466E-01  0.51100000000E-03 0.  1.
         11    1    4    4    0    0  0.36611996220E-01  0.11946111865E-01 -0.92340532343E-01  0.10005090150E+00  0.51100000000E-03 0. -1.
</event>
<event>
 8    1  0.1150307E+005  0.1043930E+01  0.7957747E-01            NaN
         13   -1    0    0    0    0  0.00000000000E+00  0.00000000000E+00  0.74505805969E-08  0.10566000000E+00  0.10566000000E+00 0.  1.
     999900   -1    0    0    0    0 -0.00000000000E+00 -0.00000000000E+00 -0.74505805969E-08  0.93827000000E+00  0.93827000000E+00 0. -1.
     999902    2    1    2    0    0 -0.48222975602E-02 -0.23424948882E-01 -0.22637814193E-02  0.10199069384E+01  0.10196239775E+01 0.  0.
     999903    2    3    3    0    0 -0.84345555699E-01  0.62440500869E-01 -0.72903707776E-01  0.12935271585E+00  0.20104367079E-01 0.  0.
         14    1    1    2    0    0  0.48222975602E-02  0.23424948882E-01  0.22637814193E-02  0.24023061632E-01  0.00000000000E+00 0. -1.
     999901    1    3    3    0    0  0.79523258139E-01 -0.85865449750E-01  0.70639926357E-01  0.89055422252E+00  0.88000000000E+00 0.  1.
        -11    1    4    4    0    0 -0.41452266101E-01  0.21732969328E-01 -0.23926816593E-01  0.52567727685E-01  0.51100000000E-03 0.  1.
         11    1    4    4    0    0 -0.42893289599E-01  0.40707531540E-01 -0.48976891183E-01  0.76784988166E-01  0.51100000000E-03 0. -1.
</event>
<event>
 8    1  0.1150307E+005  0.1043930E+01  0.7957747E-01            NaN
         13   -1    0    0    0    0  0.00000000000E+00  0.00000000000E+00  0.74505805969E-08  0.10566000000E+00  0.10566000000E+00 0. -1.
     999900   -1    0    0    0    0 -0.00000000000E+00 -0.00000000000E+00 -0.74505805969E-08  0.93827000000E+00  0.93827000000E+00 0. -1.
     999902    2    1    2    0    0 -0.56476599407E-02 -0.44392989922E-02  0.12971177844E-01  0.10291024954E+01  0.10289956711E+01 0.  0.
     999903    2    3    3    0    0 -0.12665981654E-01  0.50364588160E-01 -0.12468176508E+00  0.13668944327E+00  0.21010533708E-01 0.  0.
         14    1    1    2    0    0  0.56476599407E-02  0.44392989922E-02 -0.12971177844E-01  0.14827504612E-01  0.00000000000E+00 0.  1.
     999901    1    3    3    0    0  0.70183217134E-02 -0.54803887152E-01  0.13765294293E+00  0.89241305211E+00  0.88000000000E+00 0.  1.
        -11    1    4    4    0    0 -0.16355402896E-01  0.29779366394E-01 -0.63338243195E-01  0.71877006328E-01  0.51100000000E-03 0.  1.
         11    1    4    4    0    0  0.36894212421E-02  0.20585221766E-01 -0.61343521888E-01  0.64812436946E-01  0.51100000000E-03 0. -1.
</event>
<event>
 8    1  0.1150307E+005  0.1043930E+01  0.7957747E-01            NaN
         13   -1    0    0    0    0  0.00000000000E+00  0.00000000000E+00  0.74505805969E-08  0.10566000000E+00  0.10566000000E+00 0.  1.
     999900   -1    0    0    0    0 -0.00000000000E+00 -0.00000000000E+00 -0.74505805969E-08  0.93827000000E+00  0.93827000000E+00 0.  1.
     999902    2    1    2    0    0 -0.59784816751E-02 -0.39710401107E-02  0.21684662145E-01  0.10210884594E+01  0.10208329472E+01 0.  0.
     999903    2    3    3    0    0  0.20046508609E-01  0.19702270247E-01  0.12951377447E+00  0.13380899771E+00  0.18465863921E-01 0.  0.
         14    1    1    2    0    0  0.59784816751E-02  0.39710401107E-02 -0.21684662145E-01  0.22841540557E-01  0.00000000000E+00 0. -1.
     999901    1    3    3    0    0 -0.26024990284E-01 -0.23673310358E-01 -0.10782911233E+00  0.88727946173E+00  0.88000000000E+00 0.  1.
        -11    1    4    4    0    0  0.12726839659E-01  0.13125010442E-02  0.67745492558E-01  0.68944963483E-01  0.51100000000E-03 0. -1.
         11    1    4    4    0    0  0.73196689503E-02  0.18389769203E-01  0.61768281915E-01  0.64864034230E-01  0.51100000000E-03 0.  1.
</event>
<event>
 8    1  0.1150307E+005  0.1043930E+01  0.7957747E-01            NaN
         13   -1    0    0    0    0  0.00000000000E+00  0.00000000000E+00  0.74505805969E-08  0.10566000000E+00  0.10566000000E+00 0.  1.
     999900   -1    0    0    0    0 -0.00000000000E+00 -0.00000000000E+00 -0.74505805969E-08  0.93827000000E+00  0.93827000000E+00 0. -1.
     999902    2    1    2    0    0 -0.18521382763E-01  0.19955635528E-02 -0.14560623234E-01  0.10202860654E+01  0.10200120684E+01 0.  0.
     999903    2    3    3    0    0  0.10924712806E+00 -0.38623447493E-02 -0.66604673279E-01  0.12951803131E+00  0.19720173336E-01 0.  0.
         14    1    1    2    0    0  0.18521382763E-01 -0.19955635528E-02  0.14560623234E-01  0.23643934578E-01  0.00000000000E+00 0.  1.
     999901    1    3    3    0    0 -0.12776851082E+00  0.58579083020E-02  0.52044050045E-01  0.89076803411E+00  0.88000000000E+00 0.  1.
        -11    1    4    4    0    0  0.61361128527E-02  0.11315528996E-02 -0.99632292778E-02  0.11766875182E-01  0.51100000000E-03 0.  1.
         11    1    4    4    0    0  0.10311101521E+00 -0.49938976489E-02 -0.56641444001E-01  0.11775115613E+00  0.51100000000E-03 0. -1.
</event>
<event>
 8    1  0.1150307E+005  0.1043930E+01  0.7957747E-01            NaN
         13   -1    0    0    0    0  0.00000000000E+00  0.00000000000E+00  0.74505805969E-08  0.10566000000E+00  0.10566000000E+00 0.  1.
     999900   -1    0    0    0    0 -0.00000000000E+00 -0.00000000000E+00 -0.74505805969E-08  0.93827000000E+00  0.93827000000E+00 0.  1.
     999902    2    1    2    0    0  0.33473690921E-02 -0.87449584271E-02  0.22443494344E-01  0.10196114964E+01  0.10193214478E+01 0.  0.
     999903    2    3    3    0    0 -0.30439802326E-01  0.86517248171E-01 -0.86179250943E-01  0.12719042891E+00  0.18404513456E-01 0.  0.
         14    1    1    2    0    0 -0.33473690921E-02  0.87449584271E-02 -0.22443494344E-01  0.24318503574E-01  0.00000000000E+00 0. -1.
     999901    1    3    3    0    0  0.33787171418E-01 -0.95262206598E-01  0.10862274529E+00  0.89242106752E+00  0.88000000000E+00 0. -1.
        -11    1    4    4    0    0 -0.26192296910E-01  0.49875977528E-01 -0.57131612731E-01  0.80236723800E-01  0.51100000000E-03 0.  1.
         11    1    4    4    0    0 -0.42475054160E-02  0.36641270643E-01 -0.29047638212E-01  0.46953705107E-01  0.51100000000E-03 0. -1.
</event>
<event>
 8    1  0.1150307E+005  0.1043930E+01  0.7957747E-01            NaN
         13   -1    0    0    0    0  0.00000000000E+00  0.00000000000E+00  0.74505805969E-08  0.10566000000E+00  0.10566000000E+00 0.  1.
     999900   -1    0    0    0    0 -0.00000000000E+00 -0.00000000000E+00 -0.74505805969E-08  0.93827000000E+00  0.93827000000E+00 0. -1.
     999902    2    1    2    0    0  0.19082771161E-01 -0.10559369188E-01  0.71766405341E-02  0.10209701088E+01  0.10207119116E+01 0.  0.
     999903    2    3    3    0    0  0.25842877702E-01 -0.11949849059E+00  0.49037343020E-01  0.13323943480E+00  0.20008558065E-01 0.  0.
         14    1    1    2    0    0 -0.19082771161E-01  0.10559369188E-01 -0.71766405341E-02  0.22959891162E-01  0.00000000000E+00 0.  1.
     999901    1    3    3    0    0 -0.67601065404E-02  0.10893912140E+00 -0.41860702486E-01  0.88773067404E+00  0.88000000000E+00 0. -1.
        -11    1    4    4    0    0  0.76132025469E-02 -0.59864282947E-01  0.14958859035E-01  0.62174929114E-01  0.51100000000E-03 0.  1.
         11    1    4    4    0    0  0.18229675155E-01 -0.59634207639E-01  0.34078483985E-01  0.71064505688E-01  0.51100000000E-03 0. -1.
</event>
<event>
 8    1  0.1150307E+005  0.1043930E+01  0.7957747E-01            NaN
         13   -1    0    0    0    0  0.00000000000E+00  0.00000000000E+00  0.74505805969E-08  0.10566000000E+00  0.10566000000E+00 0.  1.
     999900   -1    0    0    0    0 -0.00000000000E+00 -0.00000000000E+00 -0.74505805969E-08  0.93827000000E+00  0.93827000000E+00 0. -1.
     999902    2    1    2    0    0 -0.24414686705E-01 -0.62121966622E-02 -0.46416057905E-02  0.10183133488E+01  0.10179910921E+01 0.  0.
     999903    2    3    3    0    0 -0.10785427371E+00 -0.65882120560E-01 -0.29827232635E-01  0.13199682504E+00  0.23674877960E-01 0.  0.
         14    1    1    2    0    0  0.24414686705E-01  0.62121966622E-02  0.46416057905E-02  0.25616651198E-01  0.00000000000E+00 0. -1.
     999901    1    3    3    0    0  0.83439587005E-01  0.59669923898E-01  0.25185626844E-01  0.88631652376E+00  0.88000000000E+00 0.  1.
        -11    1    4    4    0    0 -0.41525122065E-01 -0.38057363149E-01 -0.17748071028E-01  0.59058901095E-01  0.51100000000E-03 0.  1.
         11    1    4    4    0    0 -0.66329151645E-01 -0.27824757411E-01 -0.12079161607E-01  0.72937923943E-01  0.51100000000E-03 0. -1.
</event>
<event>
 8    1  0.1150307E+005  0.1043930E+01  0.7957747E-01            NaN
         13   -1    0    0    0    0  0.00000000000E+00  0.00000000000E+00  0.74505805969E-08  0.10566000000E+00  0.10566000000E+00 0.  1.
     999900   -1    0    0    0    0 -0.00000000000E+00 -0.00000000000E+00 -0.74505805969E-08  0.93827000000E+00  0.93827000000E+00 0. -1.
     999902    2    1    2    0    0 -0.19244683163E-01 -0.98184492676E-02 -0.10064082401E-01  0.10200962942E+01  0.10198178288E+01 0.  0.
     999903    2    3    3    0    0  0.10565795166E+00 -0.68536798886E-01  0.19664129118E-01  0.12884308704E+00  0.18787430730E-01 0.  0.
         14    1    1    2    0    0  0.19244683163E-01  0.98184492676E-02  0.10064082401E-01  0.23833705768E-01  0.00000000000E+00 0.  1.
     999901    1    3    3    0    0 -0.12490263482E+00  0.58718349619E-01 -0.29728211519E-01  0.89125320719E+00  0.88000000000E+00 0.  1.
        -11    1    4    4    0    0  0.44121843572E-01 -0.22814359313E-01 -0.90790725513E-04  0.49673951272E-01  0.51100000000E-03 0. -1.
         11    1    4    4    0    0  0.61536108089E-01 -0.45722439574E-01  0.19754919844E-01  0.79169135769E-01  0.51100000000E-03 0.  1.
</event>
<event>
 8    1  0.1150307E+005  0.1043930E+01  0.7957747E-01            NaN
         13   -1    0    0    0    0  0.00000000000E+00  0.00000000000E+00  0.74505805969E-08  0.10566000000E+00  0.10566000000E+00 0.  1.
     999900   -1    0    0    0    0 -0.00000000000E+00 -0.00000000000E+00 -0.74505805969E-08  0.93827000000E+00  0.93827000000E+00 0.  1.
     999902    2    1    2    0    0 -0.68466048498E-02 -0.85881306855E-02 -0.19955421290E-01  0.10211517028E+01  0.10208976194E+01 0.  0.
     999903    2    3    3    0    0 -0.11443162509E+00 -0.58909916770E-01 -0.30538050613E-01  0.13310958057E+00  0.14853039741E-01 0.  0.
         14    1    1    2    0    0  0.68466048498E-02  0.85881306855E-02  0.19955421290E-01  0.22778297248E-01  0.00000000000E+00 0.  1.
     999901    1    3    3    0    0  0.10758502024E+00  0.50321786084E-01  0.10582629322E-01  0.88804212219E+00  0.88000000000E+00 0. -1.
        -11    1    4    4    0    0 -0.91963978871E-03 -0.15831753355E-02 -0.20392273962E-02  0.27877860136E-02  0.51100000000E-03 0. -1.
         11    1    4    4    0    0 -0.11351198530E+00 -0.57326741434E-01 -0.28498823216E-01  0.13032179455E+00  0.51100000000E-03 0.  1.
</event>
<event>
 8    1  0.1150307E+005  0.1043930E+01  0.7957747E-01            NaN
         13   -1    0    0    0    0  0.00000000000E+00  0.00000000000E+00  0.74505805969E-08  0.10566000000E+00  0.10566000000E+00 0. -1.
     999900   -1    0    0    0    0 -0.00000000000E+00 -0.00000000000E+00 -0.74505805969E-08  0.93827000000E+00  0.93827000000E+00 0.  1.
     999902    2    1    2    0    0  0.15124775283E-01 -0.14296249616E-01  0.80623124429E-02  0.10216108947E+01  0.10213670631E+01 0.  0.
     999903    2    3    3    0    0  0.13221327275E+00  0.32231921727E-02 -0.98494552147E-03  0.13363651444E+00  0.19157489825E-01 0.  0.
         14    1    1    2    0    0 -0.15124775283E-01  0.14296249616E-01 -0.80623124429E-02  0.22319105322E-01  0.00000000000E+00 0.  1.
     999901    1    3    3    0    0 -0.11708849746E+00 -0.17519441789E-01  0.90472579644E-02  0.88797438024E+00  0.88000000000E+00 0. -1.
        -11    1    4    4    0    0  0.26867777490E-01  0.55738614982E-03  0.75281218746E-02  0.27912754908E-01  0.51100000000E-03 0. -1.
         11    1    4    4    0    0  0.10534549526E+00  0.26658060228E-02 -0.85130673961E-02  0.10572375953E+00  0.51100000000E-03 0.  1.
</event>
<event>
 8    1  0.1150307E+005  0.1043930E+01  0.7957747E-01            NaN
         13   -1    0    0    0    0  0.00000000000E+00  0.00000000000E+00  0.74505805969E-08  0.10566000000E+00  0.10566000000E+00 0. -1.
     999900   -1    0    0    0    0 -0.00000000000E+00 -0.00000000000E+00 -0.74505805969E-08  0.93827000000E+00  0.93827000000E+00 0. -1.
     999902    2    1    2    0    0 -0.81617962152E-02  0.20288547667E-01  0.79450702943E-02  0.10206627650E+01  0.10203975282E+01 0.  0.
     999903    2    3    3    0    0 -0.12692380966E+00  0.28825063269E-01  0.15821381341E-01  0.13260909305E+00  0.19857434945E-01 0.  0.
         14    1    1    2    0    0  0.81617962152E-02 -0.20288547667E-01 -0.79450702943E-02  0.23267235028E-01  0.00000000000E+00 0.  1.
     999901    1    3    3    0    0  0.11876201344E+00 -0.85365156021E-02 -0.78763110463E-02  0.88805367192E+00  0.88000000000E+00 0. -1.
        -11    1    4    4    0    0 -0.20531934849E-01  0.34944774842E-02 -0.46415942471E-02  0.21344255426E-01  0.51100000000E-03 0. -1.
         11    1    4    4    0    0 -0.10639187481E+00  0.25330585785E-01  0.20462975588E-01  0.11126483763E+00  0.51100000000E-03 0.  1.
</event>
<event>
 8    1  0.1150307E+005  0.1043930E+01  0.7957747E-01            NaN
         13   -1    0    0    0    0  0.00000000000E+00  0.00000000000E+00  0.74505805969E-08  0.10566000000E+00  0.10566000000E+00 0.  1.
     999900   -1    0    0    0    0 -0.00000000000E+00 -0.00000000000E+00 -0.74505805969E-08  0.93827000000E+00  0.93827000000E+00 0. -1.
     999902    2    1    2    0    0 -0.47160758948E-02 -0.12407064138E-01  0.16981364700E-01  0.10223767320E+01  0.10221495188E+01 0.  0.
     999903    2    3    3    0    0 -0.79499905383E-01  0.10104535435E+00 -0.17639757878E-01  0.13127477686E+00  0.19786545666E-01 0.  0.
         14    1    1    2    0    0  0.47160758948E-02  0.12407064138E-01 -0.16981364700E-01  0.21553267953E-01  0.00000000000E+00 0. -1.
     999901    1    3    3    0    0  0.74783829489E-01 -0.11345241849E+00  0.34621122577E-01  0.89110195519E+00  0.88000000000E+00 0. -1.
        -11    1    4    4    0    0 -0.11913280465E-01  0.69606115484E-02  0.13894732547E-02  0.13876891637E-01  0.51100000000E-03 0. -1.
         11    1    4    4    0    0 -0.67586624918E-01  0.94084742802E-01 -0.19029231132E-01  0.11739788522E+00  0.51100000000E-03 0.  1.
</event>
<event>
 8    1  0.1150307E+005  0.1043930E+01  0.7957747E-01            NaN
         13   -1    0    0    0    0  0.00000000000E+00  0.00000000000E+00  0.74505805969E-08  0.10566000000E+00  0.10566000000E+00 0.  1.
     999900   -1    0    0    0    0 -0.00000000000E+00 -0.00000000000E+00 -0.74505805969E-08  0.93827000000E+00  0.93827000000E+00 0. -1.
     999902    2    1    2    0    0  0.15700541628E-02 -0.57816681471E-02  0.22770855824E-01  0.10203842014E+01  0.10201125006E+01 0.  0.
     999903    2    3    3    0    0  0.12870567726E+00 -0.13401765236E-01  0.27113772052E-02  0.13098894887E+00  0.20149304974E-01 0.  0.
         14    1    1    2    0    0 -0.15700541628E-02  0.57816681471E-02 -0.22770855824E-01  0.23545798598E-01  0.00000000000E+00 0. -1.
     999901    1    3    3    0    0 -0.12713562309E+00  0.76200970889E-02  0.20059478619E-01  0.88939525253E+00  0.88000000000E+00 0.  1.
        -11    1    4    4    0    0  0.81910366098E-01 -0.16428717915E-01 -0.38736204988E-02  0.83632989325E-01  0.51100000000E-03 0. -1.
         11    1    4    4    0    0  0.46795311158E-01  0.30269526790E-02  0.65849977040E-02  0.47355959548E-01  0.51100000000E-03 0.  1.
</event>
<event>
 8    1  0.1150307E+005  0.1043930E+01  0.7957747E-01            NaN
         13   -1    0    0    0    0  0.00000000000E+00  0.00000000000E+00  0.74505805969E-08  0.10566000000E+00  0.10566000000E+00 0. -1.
     999900   -1    0    0    0    0 -0.00000000000E+00 -0.00000000000E+00 -0.74505805969E-08  0.93827000000E+00  0.93827000000E+00 0. -1.
     999902    2    1    2    0    0  0.44140943020E-02 -0.23060623460E-01 -0.26157887357E-02  0.10203054591E+01  0.10200319166E+01 0.  0.
     999903    2    3    3    0    0  0.52678608602E-01 -0.11899486730E+00  0.23597421268E-01  0.13338946821E+00  0.17352166793E-01 0.  0.
         14    1    1    2    0    0 -0.44140943020E-02  0.23060623460E-01  0.26157887357E-02  0.23624540918E-01  0.00000000000E+00 0.  1.
     999901    1    3    3    0    0 -0.48264514300E-01  0.95934243837E-01 -0.26213210004E-01  0.88691599087E+00  0.88000000000E+00 0.  1.
        -11    1    4    4    0    0  0.30440259480E-01 -0.53712060394E-01  0.17388089798E-01  0.64142042506E-01  0.51100000000E-03 0.  1.
         11    1    4    4    0    0  0.22238349122E-01 -0.65282806902E-01  0.62093314702E-02  0.69247425707E-01  0.51100000000E-03 0. -1.
</event>
<event>
 8    1  0.1150307E+005  0.1043930E+01  0.7957747E-01            NaN
         13   -1    0    0    0    0  0.00000000000E+00  0.00000000000E+00  0.74505805969E-08  0.10566000000E+00  0.10566000000E+00 0.  1.
     999900   -1    0    0    0    0 -0.00000000000E+00 -0.00000000000E+00 -0.74505805969E-08  0.93827000000E+00  0.93827000000E+00 0. -1.
     999902    2    1    2    0    0  0.83053504882E-02  0.21864388955E-01  0.99929298366E-03  0.10205199821E+01  0.10202514420E+01 0.  0.
     999903    2    3    3    0    0  0.85972222849E-01 -0.29049338374E-01 -0.91743954292E-01  0.13078650482E+00  0.21285430060E-01 0.  0.
         14    1    1    2    0    0 -0.83053504882E-02 -0.21864388955E-01 -0.99929298366E-03  0.23410017889E-01  0.00000000000E+00 0. -1.
     999901    1    3    3    0    0 -0.77666872361E-01  0.50913727329E-01  0.92743247276E-01  0.88973347729E+00  0.88000000000E+00 0.  1.
        -11    1    4    4    0    0  0.14937410706E-01 -0.14195350043E-01 -0.21545611145E-01  0.29817925516E-01  0.51100000000E-03 0. -1.
         11    1    4    4    0    0  0.71034812144E-01 -0.14853988331E-01 -0.70198343147E-01  0.10096857931E+00  0.51100000000E-03 0.  1.
</event>
<event>
 8    1  0.1150307E+005  0.1043930E+01  0.7957747E-01            NaN
         13   -1    0    0    0    0  0.00000000000E+00  0.00000000000E+00  0.74505805969E-08  0.10566000000E+00  0.10566000000E+00 0. -1.
     999900   -1    0    0    0    0 -0.00000000000E+00 -0.00000000000E+00 -0.74505805969E-08  0.93827000000E+00  0.93827000000E+00 0. -1.
     999902    2    1    2    0    0 -0.46805465146E-02  0.96867280961E-02  0.20699682952E-01  0.10206015390E+01  0.10203348883E+01 0.  0.
     999903    2    3    3    0    0  0.43948461475E-01 -0.20364581474E-01  0.12291501215E+00  0.13284265558E+00  0.13888393924E-01 0.  0.
         14    1    1    2    0    0  0.46805465146E-02 -0.96867280961E-02 -0.20699682952E-01  0.23328460970E-01  0.00000000000E+00 0.  1.
     999901    1    3    3    0    0 -0.48629007989E-01  0.30051309570E-01 -0.10221532919E+00  0.88775888345E+00  0.88000000000E+00 0. -1.
        -11    1    4    4    0    0  0.37709841580E-01 -0.12297705021E-01  0.89366290007E-01  0.97774539689E-01  0.51100000000E-03 0. -1.
         11    1    4    4    0    0  0.62386198943E-02 -0.80668764530E-02  0.33548722139E-01  0.35068115890E-01  0.51100000000E-03 0.  1.
</event>
<event>
 8    1  0.1150307E+005  0.1043930E+01  0.7957747E-01            NaN
         13   -1    0    0    0    0  0.00000000000E+00  0.00000000000E+00  0.74505805969E-08  0.10566000000E+00  0.10566000000E+00 0. -1.
     999900   -1    0    0    0    0 -0.00000000000E+00 -0.00000000000E+00 -0.74505805969E-08  0.93827000000E+00  0.93827000000E+00 0. -1.
     999902    2    1    2    0    0 -0.50759046616E-02  0.11424059050E-01  0.18223530276E-01  0.10218308826E+01  0.10215918861E+01 0.  0.
     999903    2    3    3    0    0 -0.81787300587E-01 -0.10028792928E+00 -0.52159275329E-02  0.13114933752E+00  0.20642469181E-01 0.  0.
         14    1    1    2    0    0  0.50759046616E-02 -0.11424059050E-01 -0.18223530276E-01  0.22099117381E-01  0.00000000000E+00 0.  1.
     999901    1    3    3    0    0  0.76711395925E-01  0.11171198833E+00  0.23439457809E-01  0.89068154510E+00  0.88000000000E+00 0.  1.
        -11    1    4    4    0    0 -0.32993957306E-01 -0.38373746753E-01 -0.12040568611E-01  0.52022899497E-01  0.51100000000E-03 0.  1.
         11    1    4    4    0    0 -0.48793343281E-01 -0.61914182530E-01  0.68246410781E-02  0.79126438020E-01  0.51100000000E-03 0. -1.
</event>
<event>
 8    1  0.1150307E+005  0.1043930E+01  0.7957747E-01            NaN
         13   -1    0    0    0    0  0.00000000000E+00  0.00000000000E+00  0.74505805969E-08  0.10566000000E+00  0.10566000000E+00 0. -1.
     999900   -1    0    0    0    0 -0.00000000000E+00 -0.00000000000E+00 -0.74505805969E-08  0.93827000000E+00  0.93827000000E+00 0. -1.
     999902    2    1    2    0    0 -0.94615858517E-02 -0.66782388093E-02 -0.20784230819E-01  0.10201370445E+01  0.10198595417E+01 0.  0.
     999903    2    3    3    0    0 -0.28916569264E-01  0.12264617074E+00 -0.27039939930E-01  0.13045033943E+00  0.20196077156E-01 0.  0.
         14    1    1    2    0    0  0.94615858517E-02  0.66782388093E-02  0.20784230819E-01  0.23792955494E-01  0.00000000000E+00 0. -1.
     999901    1    3    3    0    0  0.19454983413E-01 -0.12932440955E+00  0.62557091117E-02  0.88968670507E+00  0.88000000000E+00 0.  1.
        -11    1    4    4    0    0 -0.15279438724E-01  0.74110689281E-01 -0.62975421409E-02  0.75932704887E-01  0.51100000000E-03 0.  1.
         11    1    4    4    0    0 -0.13637130541E-01  0.48535481456E-01 -0.20742397789E-01  0.54517634547E-01  0.51100000000E-03 0. -1.
</event>
<event>
 8    1  0.1150307E+005  0.1043930E+01  0.7957747E-01            NaN
         13   -1    0    0    0    0  0.00000000000E+00  0.00000000000E+00  0.74505805969E-08  0.10566000000E+00  0.10566000000E+00 0. -1.
     999900   -1    0    0    0    0 -0.00000000000E+00 -0.00000000000E+00 -0.74505805969E-08  0.93827000000E+00  0.93827000000E+00 0.  1.
     999902    2    1    2    0    0  0.55600131019E-02 -0.85001489493E-02 -0.20491450740E-01  0.10210593675E+01  0.10208031966E+01 0.  0.
     999903    2    3    3    0    0 -0.20470244544E-02 -0.11817979639E+00  0.53135343425E-01  0.13116701619E+00  0.20267383452E-01 0.  0.
         14    1    1    2    0    0 -0.55600131019E-02  0.85001489493E-02  0.20491450740E-01  0.22870632507E-01  0.00000000000E+00 0. -1.
     999901    1    3    3    0    0  0.76070375563E-02  0.10967964744E+00 -0.73626794164E-01  0.88989235130E+00  0.88000000000E+00 0.  1.
        -11    1    4    4    0    0 -0.33661042517E-02 -0.10572282215E+00  0.40216064219E-01  0.11316465316E+00  0.51100000000E-03 0.  1.
         11    1    4    4    0    0  0.13190797973E-02 -0.12456974237E-01  0.12919279206E-01  0.18002363035E-01  0.51100000000E-03 0. -1.
</event>
<event>
 8    1  0.1150307E+005  0.1043930E+01  0.7957747E-01            NaN
         13   -1    0    0    0    0  0.00000000000E+00  0.00000000000E+00  0.74505805969E-08  0.10566000000E+00  0.10566000000E+00 0. -1.
     999900   -1    0    0    0    0 -0.00000000000E+00 -0.00000000000E+00 -0.74505805969E-08  0.93827000000E+00  0.93827000000E+00 0. -1.
     999902    2    1    2    0    0 -0.25422961862E-02  0.14633938940E-01 -0.30154831967E-02  0.10287738601E+01  0.10286622121E+01 0.  0.
     999903    2    3    3    0    0 -0.28739635584E-01  0.83386005211E-01 -0.10648526273E+00  0.13966242583E+00  0.19679672055E-01 0.  0.
         14    1    1    2    0    0  0.25422961862E-02 -0.14633938940E-01  0.30154831967E-02  0.15156139934E-01  0.00000000000E+00 0. -1.
     999901    1    3    3    0    0  0.26197339398E-01 -0.68752066271E-01  0.10346977953E+00  0.88911143423E+00  0.88000000000E+00 0.  1.
        -11    1    4    4    0    0 -0.25609070070E-01  0.54170307588E-01 -0.60982213515E-01  0.85494667555E-01  0.51100000000E-03 0. -1.
         11    1    4    4    0    0 -0.31305655145E-02  0.29215697623E-01 -0.45503049214E-01  0.54167758278E-01  0.51100000000E-03 0.  1.
</event>
<event>
 8    1  0.1150307E+005  0.1043930E+01  0.7957747E-01            NaN
         13   -1    0    0    0    0  0.00000000000E+00  0.00000000000E+00  0.74505805969E-08  0.10566000000E+00  0.10566000000E+00 0.  1.
     999900   -1    0    0    0    0 -0.00000000000E+00 -0.00000000000E+00 -0.74505805969E-08  0.93827000000E+00  0.93827000000E+00 0. -1.
     999902    2    1    2    0    0 -0.51642246184E-02  0.57051593151E-02  0.21283118546E-01  0.10212984028E+01  0.10210476180E+01 0.  0.
     999903    2    3    3    0    0 -0.41844808662E-01  0.10805858041E+00 -0.57925531682E-01  0.13107612808E+00  0.19948416458E-01 0.  0.
         14    1    1    2    0    0  0.51642246184E-02 -0.57051593151E-02 -0.21283118546E-01  0.22631597243E-01  0.00000000000E+00 0. -1.
     999901    1    3    3    0    0  0.36680584044E-01 -0.10235342110E+00  0.79208650228E-01  0.89022227468E+00  0.88000000000E+00 0. -1.
        -11    1    4    4    0    0 -0.18347961176E-01  0.40486101354E-01 -0.11938430832E-01  0.46027810441E-01  0.51100000000E-03 0. -1.
         11    1    4    4    0    0 -0.23496847486E-01  0.67572479060E-01 -0.45987100850E-01  0.85048317642E-01  0.51100000000E-03 0.  1.
</event>
<event>
 8    1  0.1150307E+005  0.1043930E+01  0.7957747E-01            NaN
         13   -1    0    0    0    0  0.00000000000E+00  0.00000000000E+00  0.74505805969E-08  0.10566000000E+00  0.10566000000E+00 0.  1.
     999900   -1    0    0    0    0 -0.00000000000E+00 -0.00000000000E+00 -0.74505805969E-08  0.93827000000E+00  0.93827000000E+00 0. -1.
     999902    2    1    2    0    0 -0.18391619445E-01 -0.57328809429E-02 -0.11286798952E-01  0.10216026755E+01  0.10213586623E+01 0.  0.
     999903    2    3    3    0    0  0.55408402017E-03 -0.37252323905E-01  0.12358843404E+00  0.13056746661E+00  0.19639747064E-01 0.  0.
         14    1    1    2    0    0  0.18391619445E-01  0.57328809429E-02  0.11286798952E-01  0.22327324521E-01  0.00000000000E+00 0. -1.
     999901    1    3    3    0    0 -0.18945703465E-01  0.31519442962E-01 -0.13487523299E+00  0.89103520887E+00  0.88000000000E+00 0. -1.
        -11    1    4    4    0    0  0.78292923316E-02 -0.32253534903E-01  0.94172822333E-01  0.99851739690E-01  0.51100000000E-03 0. -1.
         11    1    4    4    0    0 -0.72752083114E-02 -0.49987890024E-02  0.29415611704E-01  0.30715726923E-01  0.51100000000E-03 0.  1.
</event>
<event>
 8    1  0.1150307E+005  0.1043930E+01  0.7957747E-01            NaN
         13   -1    0    0    0    0  0.00000000000E+00  0.00000000000E+00  0.74505805969E-08  0.10566000000E+00  0.10566000000E+00 0. -1.
     999900   -1    0    0    0    0 -0.00000000000E+00 -0.00000000000E+00 -0.74505805969E-08  0.93827000000E+00  0.93827000000E+00 0.  1.
     999902    2    1    2    0    0 -0.43824754310E-02  0.23452617468E-01 -0.47495676323E-02  0.10196032709E+01  0.10193130237E+01 0.  0.
     999903    2    3    3    0    0 -0.68472361261E-02 -0.28978987686E-01 -0.12505995410E+00  0.12986750260E+00  0.18409501420E-01 0.  0.
         14    1    1    2    0    0  0.43824754310E-02 -0.23452617468E-01  0.47495676323E-02  0.24326729120E-01  0.00000000000E+00 0. -1.
     999901    1    3    3    0    0  0.24647606950E-02  0.52431605154E-01  0.12031038647E+00  0.88973576828E+00  0.88000000000E+00 0. -1.
        -11    1    4    4    0    0  0.34711113144E-02 -0.16248139060E-01 -0.41330876808E-01  0.44548323598E-01  0.51100000000E-03 0. -1.
         11    1    4    4    0    0 -0.10318347440E-01 -0.12730848626E-01 -0.83729077290E-01  0.85319179002E-01  0.51100000000E-03 0.  1.
</event>
<event>
 8    1  0.1150307E+005  0.1043930E+01  0.7957747E-01            NaN
         13   -1    0    0    0    0  0.00000000000E+00  0.00000000000E+00  0.74505805969E-08  0.10566000000E+00  0.10566000000E+00 0. -1.
     999900   -1    0    0    0    0 -0.00000000000E+00 -0.00000000000E+00 -0.74505805969E-08  0.93827000000E+00  0.93827000000E+00 0. -1.
     999902    2    1    2    0    0 -0.87982087945E-02 -0.14787824681E-01  0.17210320220E-01  0.10195931276E+01  0.10193026354E+01 0.  0.
     999903    2    3    3    0    0  0.86371428102E-01  0.60509451906E-01  0.72482451019E-01  0.12954709052E+00  0.20182308962E-01 0.  0.
         14    1    1    2    0    0  0.87982087945E-02  0.14787824681E-01 -0.17210320220E-01  0.24336872413E-01  0.00000000000E+00 0.  1.
     999901    1    3    3    0    0 -0.95169636897E-01 -0.75297276587E-01 -0.55272130799E-01  0.89004603706E+00  0.88000000000E+00 0.  1.
        -11    1    4    4    0    0  0.32451420696E-01  0.34615540016E-01  0.29244943713E-01  0.55739197783E-01  0.51100000000E-03 0. -1.
         11    1    4    4    0    0  0.53920007407E-01  0.25893911889E-01  0.43237507306E-01  0.73807892740E-01  0.51100000000E-03 0.  1.
</event>
<event>
 8    1  0.1150307E+005  0.1043930E+01  0.7957747E-01            NaN
         13   -1    0    0    0    0  0.00000000000E+00  0.00000000000E+00  0.74505805969E-08  0.10566000000E+00  0.10566000000E+00 0.  1.
     999900   -1    0    0    0    0 -0.00000000000E+00 -0.00000000000E+00 -0.74505805969E-08  0.93827000000E+00  0.93827000000E+00 0. -1.
     999902    2    1    2    0    0 -0.15965268811E-01 -0.11776119903E-02  0.16942143516E-01  0.10206209287E+01  0.10203547262E+01 0.  0.
     999903    2    3    3    0    0 -0.11779251754E+00  0.35999794372E-02  0.60021448485E-01  0.13368945418E+00  0.19551440916E-01 0.  0.
         14    1    1    2    0    0  0.15965268811E-01  0.11776119903E-02 -0.16942143516E-01  0.23309071305E-01  0.00000000000E+00 0. -1.
     999901    1    3    3    0    0  0.10182724873E+00 -0.47775914274E-02 -0.43079304969E-01  0.88693147451E+00  0.88000000000E+00 0. -1.
        -11    1    4    4    0    0 -0.34784034375E-01  0.10002730836E-01  0.17660187114E-01  0.40275637816E-01  0.51100000000E-03 0. -1.
         11    1    4    4    0    0 -0.83008483162E-01 -0.64027513990E-02  0.42361261371E-01  0.93413816367E-01  0.51100000000E-03 0.  1.
</event>
<event>
 8    1  0.1150307E+005  0.1043930E+01  0.7957747E-01            NaN
         13   -1    0    0    0    0  0.00000000000E+00  0.00000000000E+00  0.74505805969E-08  0.10566000000E+00  0.10566000000E+00 0. -1.
     999900   -1    0    0    0    0 -0.00000000000E+00 -0.00000000000E+00 -0.74505805969E-08  0.93827000000E+00  0.93827000000E+00 0.  1.
     999902    2    1    2    0    0  0.18576791082E-01 -0.70393897211E-02  0.12287963072E-01  0.10205709715E+01  0.10203036135E+01 0.  0.
     999903    2    3    3    0    0 -0.40155192407E-01  0.96908625510E-01 -0.71531042003E-01  0.12856185646E+00  0.20192567731E-01 0.  0.
         14    1    1    2    0    0 -0.18576791082E-01  0.70393897211E-02 -0.12287963072E-01  0.23359028469E-01  0.00000000000E+00 0. -1.
     999901    1    3    3    0    0  0.58731983489E-01 -0.10394801523E+00  0.83819005075E-01  0.89200911507E+00  0.88000000000E+00 0. -1.
        -11    1    4    4    0    0 -0.26716350776E-01  0.54322748715E-01 -0.52051334228E-01  0.79839382153E-01  0.51100000000E-03 0. -1.
         11    1    4    4    0    0 -0.13438841631E-01  0.42585876795E-01 -0.19479707775E-01  0.48722474309E-01  0.51100000000E-03 0.  1.
</event>
<event>
 8    1  0.1150307E+005  0.1043930E+01  0.7957747E-01            NaN
         13   -1    0    0    0    0  0.00000000000E+00  0.00000000000E+00  0.74505805969E-08  0.10566000000E+00  0.10566000000E+00 0.  1.
     999900   -1    0    0    0    0 -0.00000000000E+00 -0.00000000000E+00 -0.74505805969E-08  0.93827000000E+00  0.93827000000E+00 0.  1.
     999902    2    1    2    0    0  0.34643707524E-02  0.22911069473E-01 -0.37619795174E-02  0.10204550887E+01  0.10201850404E+01 0.  0.
     999903    2    3    3    0    0 -0.96355377814E-01 -0.50407505299E-01 -0.67450572622E-01  0.12950288322E+00  0.19903306055E-01 0.  0.
         14    1    1    2    0    0 -0.34643707524E-02 -0.22911069473E-01  0.37619795174E-02  0.23474911267E-01  0.00000000000E+00 0.  1.
     999901    1    3    3    0    0  0.99819748566E-01  0.73318574772E-01  0.63688593105E-01  0.89095220551E+00  0.88000000000E+00 0. -1.
        -11    1    4    4    0    0 -0.50650878045E-01 -0.27230604341E-01 -0.47203053764E-01  0.74400313609E-01  0.51100000000E-03 0. -1.
         11    1    4    4    0    0 -0.45704499769E-01 -0.23176900958E-01 -0.20247518859E-01  0.55102569615E-01  0.51100000000E-03 0.  1.
</event>
<event>
 8    1  0.1150307E+005  0.1043930E+01  0.7957747E-01            NaN
         13   -1    0    0    0    0  0.00000000000E+00  0.00000000000E+00  0.74505805969E-08  0.10566000000E+00  0.10566000000E+00 0.  1.
     999900   -1    0    0    0    0 -0.00000000000E+00 -0.00000000000E+00 -0.74505805969E-08  0.93827000000E+00  0.93827000000E+00 0. -1.
     999902    2    1    2    0    0  0.19970088554E-01 -0.90148048016E-02  0.93759652218E-02  0.10200976718E+01  0.10198192390E+01 0.  0.
     999903    2    3    3    0    0 -0.11581130229E+00  0.46093221982E-01 -0.18528357653E-01  0.12754395806E+00  0.19680405222E-01 0.  0.
         14    1    1    2    0    0 -0.19970088554E-01  0.90148048016E-02 -0.93759652218E-02  0.23832328176E-01  0.00000000000E+00 0. -1.
     999901    1    3    3    0    0  0.13578139084E+00 -0.55108026784E-01  0.27904322875E-01  0.89255371376E+00  0.88000000000E+00 0. -1.
        -11    1    4    4    0    0 -0.11112091126E+00  0.39244377836E-01 -0.16662166146E-01  0.11902044787E+00  0.51100000000E-03 0. -1.
         11    1    4    4    0    0 -0.46903910337E-02  0.68488441457E-02 -0.18661915072E-02  0.85235101878E-02  0.51100000000E-03 0.  1.
</event>
<event>
 8    1  0.1150307E+005  0.1043930E+01  0.7957747E-01            NaN
         13   -1    0    0    0    0  0.00000000000E+00  0.00000000000E+00  0.74505805969E-08  0.10566000000E+00  0.10566000000E+00 0.  1.
     999900   -1    0    0    0    0 -0.00000000000E+00 -0.00000000000E+00 -0.74505805969E-08  0.93827000000E+00  0.93827000000E+00 0.  1.
     999902    2    1    2    0    0  0.79991426949E-02 -0.85618105683E-02 -0.21723121932E-01  0.10192483284E+01  0.10189494443E+01 0.  0.
     999903    2    3    3    0    0  0.11671649755E+00 -0.45810966243E-01  0.29352308477E-01  0.13030757540E+00  0.19927889097E-01 0.  0.
         14    1    1    2    0    0 -0.79991426949E-02  0.85618105683E-02  0.21723121932E-01  0.24681671551E-01  0.00000000000E+00 0.  1.
     999901    1    3    3    0    0 -0.10871735486E+00  0.37249155675E-01 -0.51075430409E-01  0.88894075305E+00  0.88000000000E+00 0.  1.
        -11    1    4    4    0    0  0.39130557819E-01 -0.94968345454E-02  0.17599814658E-02  0.40308176309E-01  0.51100000000E-03 0.  1.
         11    1    4    4    0    0  0.77585939734E-01 -0.36314131697E-01  0.27592327011E-01  0.89999399088E-01  0.51100000000E-03 0. -1.
</event>
<event>
 8    1  0.1150307E+005  0.1043930E+01  0.7957747E-01            NaN
         13   -1    0    0    0    0  0.00000000000E+00  0.00000000000E+00  0.74505805969E-08  0.10566000000E+00  0.10566000000E+00 0.  1.
     999900   -1    0    0    0    0 -0.00000000000E+00 -0.00000000000E+00 -0.74505805969E-08  0.93827000000E+00  0.93827000000E+00 0.  1.
     999902    2    1    2    0    0  0.12034419535E-01 -0.12020997925E-01 -0.11171576877E-01  0.10235796738E+01  0.10233773561E+01 0.  0.
     999903    2    3    3    0    0  0.11357332359E+00 -0.74262949707E-02 -0.72473762124E-01  0.13561051996E+00  0.13554233326E-01 0.  0.
         14    1    1    2    0    0 -0.12034419535E-01  0.12020997925E-01  0.11171576877E-01  0.20350326154E-01  0.00000000000E+00 0. -1.
     999901    1    3    3    0    0 -0.10153890405E+00 -0.45947029542E-02  0.61302185246E-01  0.88796915388E+00  0.88000000000E+00 0. -1.
        -11    1    4    4    0    0  0.10177034499E+00 -0.36129525210E-02 -0.67822140413E-01  0.12235342413E+00  0.51100000000E-03 0. -1.
         11    1    4    4    0    0  0.11802978600E-01 -0.38133424497E-02 -0.46516217107E-02  0.13257095836E-01  0.51100000000E-03 0.  1.
</event>
<event>
 8    1  0.1150307E+005  0.1043930E+01  0.7957747E-01            NaN
         13   -1    0    0    0    0  0.00000000000E+00  0.00000000000E+00  0.74505805969E-08  0.10566000000E+00  0.10566000000E+00 0.  1.
     999900   -1    0    0    0    0 -0.00000000000E+00 -0.00000000000E+00 -0.74505805969E-08  0.93827000000E+00  0.93827000000E+00 0. -1.
     999902    2    1    2    0    0  0.54058563503E-02 -0.20040716364E-01 -0.95334730831E-02  0.10210883559E+01  0.10208328413E+01 0.  0.
     999903    2    3    3    0    0 -0.97516154191E-01 -0.70983515220E-01  0.48820151620E-01  0.13171034038E+00  0.20399676408E-01 0.  0.
         14    1    1    2    0    0 -0.54058563503E-02  0.20040716364E-01  0.95334730831E-02  0.22841644081E-01  0.00000000000E+00 0. -1.
     999901    1    3    3    0    0  0.10292201054E+00  0.50942798855E-01 -0.58353624703E-01  0.88937801554E+00  0.88000000000E+00 0. -1.
        -11    1    4    4    0    0 -0.80761128375E-01 -0.65811694528E-01  0.46228134289E-01  0.11397736843E+00  0.51100000000E-03 0.  1.
         11    1    4    4    0    0 -0.16755025817E-01 -0.51718206917E-02  0.25920173303E-02  0.17732971951E-01  0.51100000000E-03 0. -1.
</event>
<event>
 8    1  0.1150307E+005  0.1043930E+01  0.7957747E-01            NaN
         13   -1    0    0    0    0  0.00000000000E+00  0.00000000000E+00  0.74505805969E-08  0.10566000000E+00  0.10566000000E+00 0.  1.
     999900   -1    0    0    0    0 -0.00000000000E+00 -0.00000000000E+00 -0.74505805969E-08  0.93827000000E+00  0.93827000000E+00 0.  1.
     999902    2    1    2    0    0 -0.18485062460E-01  0.10199417479E-02  0.14636114124E-01  0.10203301345E+01  0.10200571698E+01 0.  0.
     999903    2    3    3    0    0 -0.23120190713E-01 -0.12686505371E+00  0.10911134026E-01  0.13106643235E+00  0.20738171805E-01 0.  0.
         14    1    1    2    0    0  0.18485062460E-01 -0.10199417479E-02 -0.14636114124E-01  0.23599865507E-01  0.00000000000E+00 0. -1.
     999901    1    3    3    0    0  0.46351282531E-02  0.12788499546E+00  0.37249800983E-02  0.88926370215E+00  0.88000000000E+00 0. -1.
        -11    1    4    4    0    0 -0.41831939903E-03 -0.26405075759E-01  0.94770959211E-02  0.28062064875E-01  0.51100000000E-03 0. -1.
         11    1    4    4    0    0 -0.22701871314E-01 -0.10045997795E+00  0.14340381046E-02  0.10300436747E+00  0.51100000000E-03 0.  1.
</event>
<event>
 8    1  0.1150307E+005  0.1043930E+01  0.7957747E-01            NaN
         13   -1    0    0    0    0  0.00000000000E+00  0.00000000000E+00  0.74505805969E-08  0.10566000000E+00  0.10566000000E+00 0. -1.
     999900   -1    0    0    0    0 -0.00000000000E+00 -0.00000000000E+00 -0.74505805969E-08  0.93827000000E+00  0.93827000000E+00 0. -1.
     999902    2    1    2    0    0 -0.15744902108E-01  0.11627629607E-01 -0.88976903001E-03  0.10243367511E+01  0.10241493467E+01 0.  0.
     999903    2    3    3    0    0 -0.30755729542E-01 -0.90589356214E-01 -0.91166257005E-01  0.13370580544E+00  0.20337394922E-01 0.  0.
         14    1    1    2    0    0  0.15744902108E-01 -0.11627629607E-01  0.88976903001E-03  0.19593248878E-01  0.00000000000E+00 0. -1.
     999901    1    3    3    0    0  0.15010827434E-01  0.10221698582E+00  0.90276487975E-01  0.89063094569E+00  0.88000000000E+00 0.  1.
        -11    1    4    4    0    0 -0.13043978264E-01 -0.45299083008E-01 -0.58451657922E-01  0.75093340086E-01  0.51100000000E-03 0.  1.
         11    1    4    4    0    0 -0.17711751278E-01 -0.45290273205E-01 -0.32714599083E-01  0.58612465351E-01  0.51100000000E-03 0. -1.
</event>
<event>
 8    1  0.1150307E+005  0.1043930E+01  0.7957747E-01            NaN
         13   -1    0    0    0    0  0.00000000000E+00  0.00000000000E+00  0.74505805969E-08  0.10566000000E+00  0.10566000000E+00 0.  1.
     999900   -1    0    0    0    0 -0.00000000000E+00 -0.00000000000E+00 -0.74505805969E-08  0.93827000000E+00  0.93827000000E+00 0.  1.
     999902    2    1    2    0    0  0.12237581205E-01 -0.16082100815E-01 -0.13072036695E-01  0.10198619609E+01  0.10195779268E+01 0.  0.
     999903    2    3    3    0    0 -0.55612042748E-01 -0.79215683724E-01 -0.87140145832E-01  0.13190052848E+00  0.20893074245E-01 0.  0.
         14    1    1    2    0    0 -0.12237581205E-01  0.16082100815E-01  0.13072036695E-01  0.24068039050E-01  0.00000000000E+00 0.  1.
     999901    1    3    3    0    0  0.67849623953E-01  0.63133582909E-01  0.74068109137E-01  0.88796143247E+00  0.88000000000E+00 0. -1.
        -11    1    4    4    0    0 -0.19767608110E-01 -0.22635845906E-01 -0.15471434310E-01  0.33804825852E-01  0.51100000000E-03 0.  1.
         11    1    4    4    0    0 -0.35844434638E-01 -0.56579837818E-01 -0.71668711522E-01  0.98095702629E-01  0.51100000000E-03 0. -1.
</event>
<event>
 8    1  0.1150307E+005  0.1043930E+01  0.7957747E-01            NaN
         13   -1    0    0    0    0  0.00000000000E+00  0.00000000000E+00  0.74505805969E-08  0.10566000000E+00  0.10566000000E+00 0.  1.
     999900   -1    0    0    0    0 -0.00000000000E+00 -0.00000000000E+00 -0.74505805969E-08  0.93827000000E+00  0.93827000000E+00 0. -1.
     999902    2    1    2    0    0  0.18036030440E-01  0.13069617219E-01  0.59921907213E-02  0.10208644491E+01  0.10206038427E+01 0.  0.
     999903    2    3    3    0    0 -0.12554550514E-01  0.11048446787E+00  0.69981174082E-01  0.13265274756E+00  0.18301702925E-01 0.  0.
         14    1    1    2    0    0 -0.18036030440E-01 -0.13069617219E-01 -0.59921907213E-02  0.23065550891E-01  0.00000000000E+00 0. -1.
     999901    1    3    3    0    0  0.30590580954E-01 -0.97414850656E-01 -0.63988983361E-01  0.88821170155E+00  0.88000000000E+00 0. -1.
        -11    1    4    4    0    0 -0.75218407274E-02  0.69225734401E-01  0.33183226123E-01  0.77137332131E-01  0.51100000000E-03 0. -1.
         11    1    4    4    0    0 -0.50327097867E-02  0.41258733473E-01  0.36797947959E-01  0.55515415432E-01  0.51100000000E-03 0.  1.
</event>
<event>
 8    1  0.1150307E+005  0.1043930E+01  0.7957747E-01            NaN
         13   -1    0    0    0    0  0.00000000000E+00  0.00000000000E+00  0.74505805969E-08  0.10566000000E+00  0.10566000000E+00 0. -1.
     999900   -1    0    0    0    0 -0.00000000000E+00 -0.00000000000E+00 -0.74505805969E-08  0.93827000000E+00  0.93827000000E+00 0. -1.
     999902    2    1    2    0    0 -0.19624314823E-01 -0.12932140678E-01  0.42251583551E-02  0.10200510143E+01  0.10197714773E+01 0.  0.
     999903    2    3    3    0    0  0.31116266612E-01  0.12061784059E+00  0.22894147011E-01  0.12833427944E+00  0.20704100894E-01 0.  0.
         14    1    1    2    0    0  0.19624314823E-01  0.12932140678E-01 -0.42251583551E-02  0.23878985697E-01  0.00000000000E+00 0.  1.
     999901    1    3    3    0    0 -0.50740581435E-01 -0.13354998127E+00 -0.18668988656E-01  0.89171673487E+00  0.88000000000E+00 0. -1.
        -11    1    4    4    0    0 -0.15930515955E-02  0.23921804006E-01  0.73248454260E-02  0.25073990544E-01  0.51100000000E-03 0.  1.
         11    1    4    4    0    0  0.32709318208E-01  0.96696036588E-01  0.15569301585E-01  0.10326028889E+00  0.51100000000E-03 0. -1.
</event>
<event>
 8    1  0.1150307E+005  0.1043930E+01  0.7957747E-01            NaN
         13   -1    0    0    0    0  0.00000000000E+00  0.00000000000E+00  0.74505805969E-08  0.10566000000E+00  0.10566000000E+00 0. -1.
     999900   -1    0    0    0    0 -0.00000000000E+00 -0.00000000000E+00 -0.74505805969E-08  0.93827000000E+00  0.93827000000E+00 0.  1.
     999902    2    1    2    0    0 -0.10036340793E-03  0.19971110696E-01  0.10978586380E-01  0.10211399870E+01  0.10208856392E+01 0.  0.
     999903    2    3    3    0    0 -0.91365930335E-01  0.64105229526E-01 -0.68448645384E-01  0.13176610085E+00  0.14828169152E-01 0.  0.
         14    1    1    2    0    0  0.10036340793E-03 -0.19971110696E-01 -0.10978586380E-01  0.22790013036E-01  0.00000000000E+00 0.  1.
     999901    1    3    3    0    0  0.91265566927E-01 -0.44134118830E-01  0.79427231765E-01  0.88937388611E+00  0.88000000000E+00 0. -1.
        -11    1    4    4    0    0 -0.38441845586E-01  0.33210003263E-01 -0.37262050712E-01  0.63003185261E-01  0.51100000000E-03 0. -1.
         11    1    4    4    0    0 -0.52924084750E-01  0.30895226263E-01 -0.31186594672E-01  0.68762915591E-01  0.51100000000E-03 0.  1.
</event>
<event>
 8    1  0.1150307E+005  0.1043930E+01  0.7957747E-01            NaN
         13   -1    0    0    0    0  0.00000000000E+00  0.00000000000E+00  0.74505805969E-08  0.10566000000E+00  0.10566000000E+00 0.  1.
     999900   -1    0    0    0    0 -0.00000000000E+00 -0.00000000000E+00 -0.74505805969E-08  0.93827000000E+00  0.93827000000E+00 0.  1.
     999902    2    1    2    0    0  0.18159928406E-01 -0.13199729041E-01  0.90893535300E-02  0.10197095088E+01  0.10194218215E+01 0.  0.
     999903    2    3    3    0    0 -0.15036346694E-01  0.29446458225E-01  0.12475096114E+00  0.13049733083E+00  0.19327840698E-01 0.  0.
         14    1    1    2    0    0 -0.18159928406E-01  0.13199729041E-01 -0.90893535300E-02  0.24220491202E-01  0.00000000000E+00 0. -1.
     999901    1    3    3    0    0  0.33196275100E-01 -0.42646187266E-01 -0.11566160761E+00  0.88921217797E+00  0.88000000000E+00 0.  1.
        -11    1    4    4    0    0 -0.12150982378E-01  0.42015167344E-02  0.43770630440E-01  0.45622673374E-01  0.51100000000E-03 0. -1.
         11    1    4    4    0    0 -0.28853643157E-02  0.25244941491E-01  0.80980330696E-01  0.84874657459E-01  0.51100000000E-03 0.  1.
</event>
<event>
 8    1  0.1150307E+005  0.1043930E+01  0.7957747E-01            NaN
         13   -1    0    0    0    0  0.00000000000E+00  0.00000000000E+00  0.74505805969E-08  0.10566000000E+00  0.10566000000E+00 0.  1.
     999900   -1    0    0    0    0 -0.00000000000E+00 -0.00000000000E+00 -0.74505805969E-08  0.93827000000E+00  0.93827000000E+00 0. -1.
     999902    2    1    2    0    0  0.17616781922E-01  0.10520204127E-01  0.12011586214E-01  0.10201538796E+01  0.10198767740E+01 0.  0.
     999903    2    3    3    0    0  0.45393316716E-01  0.52048747209E-01 -0.10900783443E+00  0.13046749888E+00  0.19220692184E-01 0.  0.
         14    1    1    2    0    0 -0.17616781922E-01 -0.10520204127E-01 -0.12011586214E-01  0.23776120448E-01  0.00000000000E+00 0. -1.
     999901    1    3    3    0    0 -0.27776534794E-01 -0.41528543081E-01  0.12101942065E+00  0.88968638067E+00  0.88000000000E+00 0.  1.
        -11    1    4    4    0    0  0.28566196458E-01  0.42659159993E-01 -0.88554389557E-01  0.10236196824E+00  0.51100000000E-03 0. -1.
         11    1    4    4    0    0  0.16827120258E-01  0.93895872153E-02 -0.20453444877E-01  0.28105530640E-01  0.51100000000E-03 0.  1.
</event>
<event>
 8    1  0.1150307E+005  0.1043930E+01  0.7957747E-01            NaN
         13   -1    0    0    0    0  0.00000000000E+00  0.00000000000E+00  0.74505805969E-08  0.10566000000E+00  0.10566000000E+00 0.  1.
     999900   -1    0    0    0    0 -0.00000000000E+00 -0.00000000000E+00 -0.74505805969E-08  0.93827000000E+00  0.93827000000E+00 0.  1.
     999902    2    1    2    0    0 -0.15496945047E-01 -0.37036228922E-02  0.16955440198E-01  0.10206628755E+01  0.10203976413E+01 0.  0.
     999903    2    3    3    0    0  0.88314782836E-01  0.78575135280E-01  0.51114201666E-01  0.13009368122E+00  0.18388896893E-01 0.  0.
         14    1    1    2    0    0  0.15496945047E-01  0.37036228922E-02 -0.16955440198E-01  0.23267124460E-01  0.00000000000E+00 0.  1.
     999901    1    3    3    0    0 -0.10381172788E+00 -0.82278758173E-01 -0.34158761467E-01  0.89056919432E+00  0.88000000000E+00 0. -1.
        -11    1    4    4    0    0  0.48711713673E-01  0.31059639352E-01  0.24599126193E-01  0.62792598099E-01  0.51100000000E-03 0.  1.
         11    1    4    4    0    0  0.39603069164E-01  0.47515495928E-01  0.26515075473E-01  0.67301083118E-01  0.51100000000E-03 0. -1.
</event>
<event>
 8    1  0.1150307E+005  0.1043930E+01  0.7957747E-01            NaN
         13   -1    0    0    0    0  0.00000000000E+00  0.00000000000E+00  0.74505805969E-08  0.10566000000E+00  0.10566000000E+00 0.  1.
     999900   -1    0    0    0    0 -0.00000000000E+00 -0.00000000000E+00 -0.74505805969E-08  0.93827000000E+00  0.93827000000E+00 0. -1.
     999902    2    1    2    0    0  0.39168580613E-02 -0.33781102944E-01  0.83440688447E-02  0.10089138869E+01  0.10083060562E+01 0.  0.
     999903    2    3    3    0    0  0.32308341249E-01 -0.10423343091E+00  0.56080085032E-01  0.12435279002E+00  0.20253479075E-01 0.  0.
         14    1    1    2    0    0 -0.39168580613E-02  0.33781102944E-01 -0.83440688447E-02  0.35016113121E-01  0.00000000000E+00 0.  1.
     999901    1    3    3    0    0 -0.28391483188E-01  0.70452327969E-01 -0.47736016187E-01  0.88456109686E+00  0.88000000000E+00 0. -1.
        -11    1    4    4    0    0  0.13056894110E-01 -0.67412030767E-01  0.27756883634E-01  0.74064634516E-01  0.51100000000E-03 0.  1.
         11    1    4    4    0    0  0.19251447139E-01 -0.36821400146E-01  0.28323201398E-01  0.50288155505E-01  0.51100000000E-03 0. -1.
</event>
<event>
 8    1  0.1150307E+005  0.1043930E+01  0.7957747E-01            NaN
         13   -1    0    0    0    0  0.00000000000E+00  0.00000000000E+00  0.74505805969E-08  0.10566000000E+00  0.10566000000E+00 0. -1.
     999900   -1    0    0    0    0 -0.00000000000E+00 -0.00000000000E+00 -0.74505805969E-08  0.93827000000E+00  0.93827000000E+00 0. -1.
     999902    2    1    2    0    0 -0.13530624508E-01  0.87023556113E-02  0.17508719275E-01  0.10201526149E+01  0.10198754795E+01 0.  0.
     999903    2    3    3    0    0 -0.92902691221E-01  0.75168885009E-01 -0.50834761529E-01  0.13145212772E+00  0.20352336281E-01 0.  0.
         14    1    1    2    0    0  0.13530624508E-01 -0.87023556113E-02 -0.17508719275E-01  0.23777385125E-01  0.00000000000E+00 0.  1.
     999901    1    3    3    0    0  0.79372066713E-01 -0.66466529398E-01  0.68343480803E-01  0.88870048716E+00  0.88000000000E+00 0.  1.
        -11    1    4    4    0    0 -0.17137181010E-02  0.70491846042E-02 -0.45408252825E-02  0.85736834884E-02  0.51100000000E-03 0. -1.
         11    1    4    4    0    0 -0.91188973120E-01  0.68119700405E-01 -0.46293936246E-01  0.12287844423E+00  0.51100000000E-03 0.  1.
</event>
<event>
 8    1  0.1150307E+005  0.1043930E+01  0.7957747E-01            NaN
         13   -1    0    0    0    0  0.00000000000E+00  0.00000000000E+00  0.74505805969E-08  0.10566000000E+00  0.10566000000E+00 0.  1.
     999900   -1    0    0    0    0 -0.00000000000E+00 -0.00000000000E+00 -0.74505805969E-08  0.93827000000E+00  0.93827000000E+00 0. -1.
     999902    2    1    2    0    0 -0.17812174696E-01  0.16399738946E-01 -0.21532564457E-02  0.10196223568E+01  0.10193325703E+01 0.  0.
     999903    2    3    3    0    0  0.78846391556E-01 -0.91825225235E-01 -0.34598563727E-01  0.12714926517E+00  0.17923436369E-01 0.  0.
         14    1    1    2    0    0  0.17812174696E-01 -0.16399738946E-01  0.21532564457E-02  0.24307643206E-01  0.00000000000E+00 0.  1.
     999901    1    3    3    0    0 -0.96658566253E-01  0.10822496418E+00  0.32445307282E-01  0.89247309162E+00  0.88000000000E+00 0.  1.
        -11    1    4    4    0    0  0.28030170897E-01 -0.40358615549E-01 -0.21530302907E-01  0.53650008330E-01  0.51100000000E-03 0.  1.
         11    1    4    4    0    0  0.50816220660E-01 -0.51466609686E-01 -0.13068260820E-01  0.73499256843E-01  0.51100000000E-03 0. -1.
</event>
<event>
 8    1  0.1150307E+005  0.1043930E+01  0.7957747E-01            NaN
         13   -1    0    0    0    0  0.00000000000E+00  0.00000000000E+00  0.74505805969E-08  0.10566000000E+00  0.10566000000E+00 0.  1.
     999900   -1    0    0    0    0 -0.00000000000E+00 -0.00000000000E+00 -0.74505805969E-08  0.93827000000E+00  0.93827000000E+00 0. -1.
     999902    2    1    2    0    0  0.51602622989E-02 -0.18423345696E-01 -0.14749864166E-01  0.10197720517E+01  0.10194858660E+01 0.  0.
     999903    2    3    3    0    0  0.56924920307E-01  0.62677117186E-01  0.93618693956E-01  0.12791970444E+00  0.20739415523E-01 0.  0.
         14    1    1    2    0    0 -0.51602622989E-02  0.18423345696E-01  0.14749864166E-01  0.24157948310E-01  0.00000000000E+00 0.  1.
     999901    1    3    3    0    0 -0.51764658008E-01 -0.81100462882E-01 -0.10836855812E+00  0.89185234725E+00  0.88000000000E+00 0. -1.
        -11    1    4    4    0    0  0.24354341148E-01  0.41935640482E-01  0.54415304135E-01  0.72890454248E-01  0.51100000000E-03 0. -1.
         11    1    4    4    0    0  0.32570579159E-01  0.20741476703E-01  0.39203389821E-01  0.55029250196E-01  0.51100000000E-03 0.  1.
</event>
<event>
 8    1  0.1150307E+005  0.1043930E+01  0.7957747E-01            NaN
         13   -1    0    0    0    0  0.00000000000E+00  0.00000000000E+00  0.74505805969E-08  0.10566000000E+00  0.10566000000E+00 0.  1.
     999900   -1    0    0    0    0 -0.00000000000E+00 -0.00000000000E+00 -0.74505805969E-08  0.93827000000E+00  0.93827000000E+00 0.  1.
     999902    2    1    2    0    0  0.21854886407E-01 -0.85899474684E-02  0.70403119137E-02  0.10194149179E+01  0.10191201036E+01 0.  0.
     999903    2    3    3    0    0 -0.36344004198E-03 -0.98682789350E-02  0.12886286691E+00  0.13074398722E+00  0.19769590504E-01 0.  0.
         14    1    1    2    0    0 -0.21854886407E-01  0.85899474684E-02 -0.70403119137E-02  0.24515082077E-01  0.00000000000E+00 0. -1.
     999901    1    3    3    0    0  0.22218326449E-01  0.12783314667E-02 -0.12182255500E+00  0.88867093070E+00  0.88000000000E+00 0.  1.
        -11    1    4    4    0    0  0.30719691034E-02  0.89110803843E-03  0.94769469666E-01  0.94824809884E-01  0.51100000000E-03 0. -1.
         11    1    4    4    0    0 -0.34354091454E-02 -0.10759386973E-01  0.34093397246E-01  0.35919177341E-01  0.51100000000E-03 0.  1.
</event>
<event>
 8    1  0.1150307E+005  0.1043930E+01  0.7957747E-01            NaN
         13   -1    0    0    0    0  0.00000000000E+00  0.00000000000E+00  0.74505805969E-08  0.10566000000E+00  0.10566000000E+00 0. -1.
     999900   -1    0    0    0    0 -0.00000000000E+00 -0.00000000000E+00 -0.74505805969E-08  0.93827000000E+00  0.93827000000E+00 0.  1.
     999902    2    1    2    0    0 -0.15003534901E-02 -0.16764021153E-01 -0.16560927329E-01  0.10203175503E+01  0.10200442911E+01 0.  0.
     999903    2    3    3    0    0 -0.61549109682E-01 -0.11077047591E+00 -0.34268506598E-01  0.13309907383E+00  0.21969107283E-01 0.  0.
         14    1    1    2    0    0  0.15003534901E-02  0.16764021153E-01  0.16560927329E-01  0.23612449678E-01  0.00000000000E+00 0. -1.
     999901    1    3    3    0    0  0.60048756192E-01  0.94006454760E-01  0.17707579269E-01  0.88721847649E+00  0.88000000000E+00 0. -1.
        -11    1    4    4    0    0 -0.24717152708E-01 -0.66407934710E-01 -0.16421113797E-01  0.72738336039E-01  0.51100000000E-03 0. -1.
         11    1    4    4    0    0 -0.36831956974E-01 -0.44362541203E-01 -0.17847392801E-01  0.60360737796E-01  0.51100000000E-03 0.  1.
</event>
<event>
 8    1  0.1150307E+005  0.1043930E+01  0.7957747E-01            NaN
         13   -1    0    0    0    0  0.00000000000E+00  0.00000000000E+00  0.74505805969E-08  0.10566000000E+00  0.10566000000E+00 0. -1.
     999900   -1    0    0    0    0 -0.00000000000E+00 -0.00000000000E+00 -0.74505805969E-08  0.93827000000E+00  0.93827000000E+00 0. -1.
     999902    2    1    2    0    0 -0.22518444772E-01 -0.50108033122E-02 -0.50944052651E-02  0.10203049821E+01  0.10200314285E+01 0.  0.
     999903    2    3    3    0    0 -0.55796535990E-01 -0.40178549125E-01  0.11021825675E+00  0.13146235729E+00  0.20167251263E-01 0.  0.
         14    1    1    2    0    0  0.22518444772E-01  0.50108033122E-02  0.50944052651E-02  0.23625017879E-01  0.00000000000E+00 0. -1.
     999901    1    3    3    0    0  0.33278091218E-01  0.35167745813E-01 -0.11531266202E+00  0.88884262483E+00  0.88000000000E+00 0. -1.
        -11    1    4    4    0    0 -0.37120708038E-01 -0.36724415531E-01  0.74097093310E-01  0.90649158955E-01  0.51100000000E-03 0. -1.
         11    1    4    4    0    0 -0.18675827952E-01 -0.34541335940E-02  0.36121163443E-01  0.40813198331E-01  0.51100000000E-03 0.  1.
</event>
<event>
 8    1  0.1150307E+005  0.1043930E+01  0.7957747E-01            NaN
         13   -1    0    0    0    0  0.00000000000E+00  0.00000000000E+00  0.74505805969E-08  0.10566000000E+00  0.10566000000E+00 0.  1.
     999900   -1    0    0    0    0 -0.00000000000E+00 -0.00000000000E+00 -0.74505805969E-08  0.93827000000E+00  0.93827000000E+00 0. -1.
     999902    2    1    2    0    0 -0.17653019657E-01  0.35519144879E-02  0.15864839688E-01  0.10199312847E+01  0.10196489038E+01 0.  0.
     999903    2    3    3    0    0  0.89812487428E-01  0.79890751255E-01  0.44288885606E-01  0.12965920288E+00  0.20029689701E-01 0.  0.
         14    1    1    2    0    0  0.17653019657E-01 -0.35519144879E-02 -0.15864839688E-01  0.23998715338E-01  0.00000000000E+00 0. -1.
     999901    1    3    3    0    0 -0.10746550708E+00 -0.76338836767E-01 -0.28424045917E-01  0.89027208178E+00  0.88000000000E+00 0. -1.
        -11    1    4    4    0    0  0.41010348909E-01  0.24081546087E-01  0.20570994122E-01  0.51818881691E-01  0.51100000000E-03 0.  1.
         11    1    4    4    0    0  0.48802138519E-01  0.55809205168E-01  0.23717891484E-01  0.77840321190E-01  0.51100000000E-03 0. -1.
</event>
<event>
 8    1  0.1150307E+005  0.1043930E+01  0.7957747E-01            NaN
         13   -1    0    0    0    0  0.00000000000E+00  0.00000000000E+00  0.74505805969E-08  0.10566000000E+00  0.10566000000E+00 0. -1.
     999900   -1    0    0    0    0 -0.00000000000E+00 -0.00000000000E+00 -0.74505805969E-08  0.93827000000E+00  0.93827000000E+00 0.  1.
     999902    2    1    2    0    0 -0.14543553929E-01  0.16841059385E-01 -0.68001692053E-02  0.10206624573E+01  0.10203972134E+01 0.  0.
     999903    2    3    3    0    0  0.96533366803E-01 -0.78355248878E-01  0.23346081340E-01  0.12807676626E+00  0.20009562931E-01 0.  0.
         14    1    1    2    0    0  0.14543553929E-01 -0.16841059385E-01  0.68001692053E-02  0.23267542701E-01  0.00000000000E+00 0. -1.
     999901    1    3    3    0    0 -0.11107692073E+00  0.95196308263E-01 -0.30146250545E-01  0.89258569104E+00  0.88000000000E+00 0. -1.
        -11    1    4    4    0    0  0.26307698466E-01 -0.32321279229E-01  0.37199967550E-02  0.41843274089E-01  0.51100000000E-03 0.  1.
         11    1    4    4    0    0  0.70225668336E-01 -0.46033969649E-01  0.19626084585E-01  0.86233492171E-01  0.51100000000E-03 0. -1.
</event>
<event>
 8    1  0.1150307E+005  0.1043930E+01  0.7957747E-01            NaN
         13   -1    0    0    0    0  0.00000000000E+00  0.00000000000E+00  0.74505805969E-08  0.10566000000E+00  0.10566000000E+00 0.  1.
     999900   -1    0    0    0    0 -0.00000000000E+00 -0.00000000000E+00 -0.74505805969E-08  0.93827000000E+00  0.93827000000E+00 0. -1.
     999902    2    1    2    0    0 -0.51207946945E-02  0.22908387006E-01  0.48347043963E-02  0.10199635422E+01  0.10196819290E+01 0.  0.
     999903    2    3    3    0    0  0.79033753340E-01 -0.96519966356E-01 -0.19499973794E-01  0.12758621386E+00  0.18318158145E-01 0.  0.
         14    1    1    2    0    0  0.51207946945E-02 -0.22908387006E-01 -0.48347043963E-02  0.23966457813E-01  0.00000000000E+00 0. -1.
     999901    1    3    3    0    0 -0.84154548035E-01  0.11942835336E+00  0.24334678190E-01  0.89237732832E+00  0.88000000000E+00 0. -1.
        -11    1    4    4    0    0  0.56012046274E-01 -0.55766948852E-01 -0.84592311146E-02  0.79492902980E-01  0.51100000000E-03 0. -1.
         11    1    4    4    0    0  0.23021707066E-01 -0.40753017505E-01 -0.11040742680E-01  0.48093310885E-01  0.51100000000E-03 0.  1.
</event>
<event>
 8    1  0.1150307E+005  0.1043930E+01  0.7957747E-01            NaN
         13   -1    0    0    0    0  0.00000000000E+00  0.00000000000E+00  0.74505805969E-08  0.10566000000E+00  0.10566000000E+00 0. -1.
     999900   -1    0    0    0    0 -0.00000000000E+00 -0.00000000000E+00 -0.74505805969E-08  0.93827000000E+00  0.93827000000E+00 0. -1.
     999902    2    1    2    0    0 -0.23365783651E-01 -0.14299504352E-02 -0.31020224973E-02  0.10203158698E+01  0.10200425711E+01 0.  0.
     999903    2    3    3    0    0  0.88444677985E-01 -0.19968566797E-02 -0.91511493613E-01  0.12884622063E+00  0.20013660528E-01 0.  0.
         14    1    1    2    0    0  0.23365783651E-01  0.14299504352E-02  0.31020224973E-02  0.23614130250E-01  0.00000000000E+00 0.  1.
     999901    1    3    3    0    0 -0.11181046164E+00  0.56690624447E-03  0.88409471116E-01  0.89146964912E+00  0.88000000000E+00 0.  1.
        -11    1    4    4    0    0  0.84101830473E-01 -0.59051003174E-02 -0.81615088289E-01  0.11734254069E+00  0.51100000000E-03 0.  1.
         11    1    4    4    0    0  0.43428475114E-02  0.39082436377E-02 -0.98964053243E-02  0.11503679941E-01  0.51100000000E-03 0. -1.
</event>
<event>
 8    1  0.1150307E+005  0.1043930E+01  0.7957747E-01            NaN
         13   -1    0    0    0    0  0.00000000000E+00  0.00000000000E+00  0.74505805969E-08  0.10566000000E+00  0.10566000000E+00 0. -1.
     999900   -1    0    0    0    0 -0.00000000000E+00 -0.00000000000E+00 -0.74505805969E-08  0.93827000000E+00  0.93827000000E+00 0. -1.
     999902    2    1    2    0    0  0.11567843689E-02  0.14659437543E-02 -0.23975713052E-01  0.10198816745E+01  0.10195981111E+01 0.  0.
     999903    2    3    3    0    0  0.73301414840E-01  0.55882365123E-01  0.87033624252E-01  0.12831615951E+00  0.19855701732E-01 0.  0.
         14    1    1    2    0    0 -0.11567843689E-02 -0.14659437543E-02  0.23975713052E-01  0.24048325462E-01  0.00000000000E+00 0. -1.
     999901    1    3    3    0    0 -0.72144630471E-01 -0.54416421369E-01 -0.11100933730E+00  0.89156551503E+00  0.88000000000E+00 0. -1.
        -11    1    4    4    0    0  0.28434146696E-01  0.10088161267E-01  0.27822311469E-01  0.41044047468E-01  0.51100000000E-03 0. -1.
         11    1    4    4    0    0  0.44867268144E-01  0.45794203856E-01  0.59211312783E-01  0.87272112040E-01  0.51100000000E-03 0.  1.
</event>
<event>
 7    1  0.1150307E+005  0.1043930E+01  0.7957747E-01            NaN
         13   -1    0    0    0    0  0.00000000000E+00  0.00000000000E+00  0.74505805969E-08  0.10566000000E+00  0.10566000000E+00 0.  1.
     999900   -1    0    0    0    0 -0.00000000000E+00 -0.00000000000E+00 -0.74505805969E-08  0.93827000000E+00  0.93827000000E+00 0.  1.
     999903    2    1    2    0    0  0.58143541997E-01  0.76254574990E-01 -0.64073204331E-01  0.11711176851E+00  0.20355813134E-01 0.  0.
         14    1    1    2    0    0 -0.29734803744E-01  0.52990962594E-02 -0.23494668776E-01  0.38265368621E-01  0.00000000000E+00 0. -1.
     999901    1    1    2    0    0 -0.28408738254E-01 -0.81553671250E-01  0.87567873107E-01  0.88855286286E+00  0.88000000000E+00 0. -1.
        -11    1    3    3    0    0  0.48165763890E-01  0.52438308900E-01 -0.54105441923E-01  0.89428054983E-01  0.51100000000E-03 0.  1.
         11    1    3    3    0    0  0.99777781075E-02  0.23816266091E-01 -0.99677624079E-02  0.27683713531E-01  0.51100000000E-03 0. -1.
</event>
<event>
 8    1  0.1150307E+005  0.1043930E+01  0.7957747E-01            NaN
         13   -1    0    0    0    0  0.00000000000E+00  0.00000000000E+00  0.74505805969E-08  0.10566000000E+00  0.10566000000E+00 0.  1.
     999900   -1    0    0    0    0 -0.00000000000E+00 -0.00000000000E+00 -0.74505805969E-08  0.93827000000E+00  0.93827000000E+00 0. -1.
     999902    2    1    2    0    0 -0.16772373847E-01 -0.17071462751E-01  0.81728478855E-03  0.10199839081E+01  0.10197027789E+01 0.  0.
     999903    2    3    3    0    0  0.17034378176E-02  0.11838916361E+00 -0.44906710920E-01  0.12825434104E+00  0.20338818795E-01 0.  0.
         14    1    1    2    0    0  0.16772373847E-01  0.17071462751E-01 -0.81728478855E-03  0.23946091943E-01  0.00000000000E+00 0. -1.
     999901    1    3    3    0    0 -0.18475811665E-01 -0.13546062636E+00  0.45723995708E-01  0.89172956702E+00  0.88000000000E+00 0.  1.
        -11    1    4    4    0    0 -0.56723387118E-02  0.82790220625E-01 -0.37881902083E-01  0.91223328618E-01  0.51100000000E-03 0.  1.
         11    1    4    4    0    0  0.73757765294E-02  0.35598942981E-01 -0.70248088364E-02  0.37031012421E-01  0.51100000000E-03 0. -1.
</event>
<event>
 8    1  0.1150307E+005  0.1043930E+01  0.7957747E-01            NaN
         13   -1    0    0    0    0  0.00000000000E+00  0.00000000000E+00  0.74505805969E-08  0.10566000000E+00  0.10566000000E+00 0. -1.
     999900   -1    0    0    0    0 -0.00000000000E+00 -0.00000000000E+00 -0.74505805969E-08  0.93827000000E+00  0.93827000000E+00 0.  1.
     999902    2    1    2    0    0  0.18988909330E-01  0.12074610785E-01  0.67340437363E-02  0.10204412314E+01  0.10201708605E+01 0.  0.
     999903    2    3    3    0    0  0.70087569488E-01 -0.67859012928E-01  0.86290309839E-01  0.13177388269E+00  0.20030615427E-01 0.  0.
         14    1    1    2    0    0 -0.18988909330E-01 -0.12074610785E-01 -0.67340437363E-02  0.23488768555E-01  0.00000000000E+00 0.  1.
     999901    1    3    3    0    0 -0.51098660158E-01  0.79933623714E-01 -0.79556266103E-01  0.88866734876E+00  0.88000000000E+00 0. -1.
        -11    1    4    4    0    0  0.43166440772E-01 -0.51245803143E-01  0.49849005221E-01  0.83514420259E-01  0.51100000000E-03 0.  1.
         11    1    4    4    0    0  0.26921128717E-01 -0.16613209785E-01  0.36441304618E-01  0.48259462430E-01  0.51100000000E-03 0. -1.
</event>
<event>
 8    1  0.1150307E+005  0.1043930E+01  0.7957747E-01            NaN
         13   -1    0    0    0    0  0.00000000000E+00  0.00000000000E+00  0.74505805969E-08  0.10566000000E+00  0.10566000000E+00 0. -1.
     999900   -1    0    0    0    0 -0.00000000000E+00 -0.00000000000E+00 -0.74505805969E-08  0.93827000000E+00  0.93827000000E+00 0.  1.
     999902    2    1    2    0    0  0.16704741354E-02  0.47293831561E-02  0.21444414569E-01  0.10219068198E+01  0.10216694808E+01 0.  0.
     999903    2    3    3    0    0 -0.24278360347E-01  0.12466826984E+00  0.34892476951E-01  0.13329018205E+00  0.20424774061E-01 0.  0.
         14    1    1    2    0    0 -0.16704741354E-02 -0.47293831561E-02 -0.21444414569E-01  0.22023180176E-01  0.00000000000E+00 0.  1.
     999901    1    3    3    0    0  0.25948834482E-01 -0.11993888669E+00 -0.13448062383E-01  0.88861663778E+00  0.88000000000E+00 0.  1.
        -11    1    4    4    0    0 -0.15177790095E-01  0.61660636447E-01  0.73603266722E-02  0.63928357784E-01  0.51100000000E-03 0.  1.
         11    1    4    4    0    0 -0.91005702519E-02  0.63007633397E-01  0.27532150279E-01  0.69361824264E-01  0.51100000000E-03 0. -1.
</event>
<event>
 8    1  0.1150307E+005  0.1043930E+01  0.7957747E-01            NaN
         13   -1    0    0    0    0  0.00000000000E+00  0.00000000000E+00  0.74505805969E-08  0.10566000000E+00  0.10566000000E+00 0.  1.
     999900   -1    0    0    0    0 -0.00000000000E+00 -0.00000000000E+00 -0.74505805969E-08  0.93827000000E+00  0.93827000000E+00 0. -1.
     999902    2    1    2    0    0  0.75292442183E-03 -0.19615104455E-01 -0.13488917694E-01  0.10201125669E+01  0.10198344861E+01 0.  0.
     999903    2    3    3    0    0  0.93446073235E-01  0.42628806272E-01  0.75124042216E-01  0.12864266786E+00  0.18866121723E-01 0.  0.
         14    1    1    2    0    0 -0.75292442183E-03  0.19615104455E-01  0.13488917694E-01  0.23817433080E-01  0.00000000000E+00 0.  1.
     999901    1    3    3    0    0 -0.92693148814E-01 -0.62243910727E-01 -0.88612959910E-01  0.89146989906E+00  0.88000000000E+00 0. -1.
        -11    1    4    4    0    0  0.44787086013E-01  0.11568551806E-01  0.27597033687E-01  0.53866240389E-01  0.51100000000E-03 0. -1.
         11    1    4    4    0    0  0.48658987223E-01  0.31060254466E-01  0.47527008529E-01  0.74776427474E-01  0.51100000000E-03 0.  1.
</event>
<event>
 8    1  0.1150307E+005  0.1043930E+01  0.7957747E-01            NaN
         13   -1    0    0    0    0  0.00000000000E+00  0.00000000000E+00  0.74505805969E-08  0.10566000000E+00  0.10566000000E+00 0.  1.
     999900   -1    0    0    0    0 -0.00000000000E+00 -0.00000000000E+00 -0.74505805969E-08  0.93827000000E+00  0.93827000000E+00 0. -1.
     999902    2    1    2    0    0 -0.21449454988E-01 -0.20827324232E-02  0.45210923243E-02  0.10219105275E+01  0.10216732692E+01 0.  0.
     999903    2    3    3    0    0  0.11994255493E+00  0.15497447568E-01  0.42900726548E-01  0.12962483361E+00  0.18323148882E-01 0.  0.
         14    1    1    2    0    0  0.21449454988E-01  0.20827324232E-02 -0.45210923243E-02  0.22019472505E-01  0.00000000000E+00 0. -1.
     999901    1    3    3    0    0 -0.14139200992E+00 -0.17580179991E-01 -0.38379634224E-01  0.89228569389E+00  0.88000000000E+00 0.  1.
        -11    1    4    4    0    0  0.39482638805E-01 -0.21402771126E-02  0.90355223167E-02  0.40563053850E-01  0.51100000000E-03 0.  1.
         11    1    4    4    0    0  0.80459916124E-01  0.17637724680E-01  0.33865204231E-01  0.89061779755E-01  0.51100000000E-03 0. -1.
</event>
<event>
 8    1  0.1150307E+005  0.1043930E+01  0.7957747E-01            NaN
         13   -1    0    0    0    0  0.00000000000E+00  0.00000000000E+00  0.74505805969E-08  0.10566000000E+00  0.10566000000E+00 0. -1.
     999900   -1    0    0    0    0 -0.00000000000E+00 -0.00000000000E+00 -0.74505805969E-08  0.93827000000E+00  0.93827000000E+00 0.  1.
     999902    2    1    2    0    0 -0.81557445835E-02 -0.21817947983E-01 -0.30861841692E-02  0.10204339672E+01  0.10201634270E+01 0.  0.
     999903    2    3    3    0    0 -0.12842121666E+00  0.18622285910E-02 -0.22326690272E-01  0.13173000548E+00  0.18942979186E-01 0.  0.
         14    1    1    2    0    0  0.81557445835E-02  0.21817947983E-01  0.30861841692E-02  0.23496032785E-01  0.00000000000E+00 0. -1.
     999901    1    3    3    0    0  0.12026547208E+00 -0.23680176574E-01  0.19240506103E-01  0.88870396174E+00  0.88000000000E+00 0.  1.
        -11    1    4    4    0    0 -0.66836061884E-01  0.48924761067E-02 -0.28967019343E-02  0.67079411847E-01  0.51100000000E-03 0.  1.
         11    1    4    4    0    0 -0.61585154776E-01 -0.30302475157E-02 -0.19429988338E-01  0.64650593629E-01  0.51100000000E-03 0. -1.
</event>
<event>
 8    1  0.1150307E+005  0.1043930E+01  0.7957747E-01            NaN
         13   -1    0    0    0    0  0.00000000000E+00  0.00000000000E+00  0.74505805969E-08  0.10566000000E+00  0.10566000000E+00 0. -1.
     999900   -1    0    0    0    0 -0.00000000000E+00 -0.00000000000E+00 -0.74505805969E-08  0.93827000000E+00  0.93827000000E+00 0. -1.
     999902    2    1    2    0    0 -0.42326387398E-02 -0.48416055544E-02  0.23082899306E-01  0.10199680173E+01  0.10196865105E+01 0.  0.
     999903    2    3    3    0    0  0.13300697228E-01 -0.22555290045E-01  0.12794862674E+00  0.13339144796E+00  0.27143648398E-01 0.  0.
         14    1    1    2    0    0  0.42326387398E-02  0.48416055544E-02 -0.23082899306E-01  0.23961982711E-01  0.00000000000E+00 0.  1.
     999901    1    3    3    0    0 -0.17533335968E-01  0.17713684491E-01 -0.10486572744E+00  0.88657656933E+00  0.88000000000E+00 0. -1.
        -11    1    4    4    0    0  0.20918903973E-01 -0.16010102361E-01  0.10636873002E+00  0.10958326409E+00  0.51100000000E-03 0.  1.
         11    1    4    4    0    0 -0.76182067453E-02 -0.65451876837E-02  0.21579896719E-01  0.23808183871E-01  0.51100000000E-03 0. -1.
</event>
<event>
 8    1  0.1150307E+005  0.1043930E+01  0.7957747E-01            NaN
         13   -1    0    0    0    0  0.00000000000E+00  0.00000000000E+00  0.74505805969E-08  0.10566000000E+00  0.10566000000E+00 0. -1.
     999900   -1    0    0    0    0 -0.00000000000E+00 -0.00000000000E+00 -0.74505805969E-08  0.93827000000E+00  0.93827000000E+00 0.  1.
     999902    2    1    2    0    0  0.20234208915E-01 -0.87907970897E-03  0.96869008909E-02  0.10214793421E+01  0.10212325956E+01 0.  0.
     999903    2    3    3    0    0 -0.11034185888E+00  0.64089871957E-01  0.52603438746E-02  0.12946439347E+00  0.21225467031E-01 0.  0.
         14    1    1    2    0    0 -0.20234208915E-01  0.87907970897E-03 -0.96869008909E-02  0.22450657906E-01  0.00000000000E+00 0. -1.
     999901    1    3    3    0    0  0.13057606779E+00 -0.64968951666E-01  0.44265570163E-02  0.89201494862E+00  0.88000000000E+00 0.  1.
        -11    1    4    4    0    0 -0.59135008322E-01  0.43726844437E-01  0.96614342114E-02  0.74179448405E-01  0.51100000000E-03 0.  1.
         11    1    4    4    0    0 -0.51206850557E-01  0.20363027520E-01 -0.44010903368E-02  0.55284945065E-01  0.51100000000E-03 0. -1.
</event>
<event>
 8    1  0.1150307E+005  0.1043930E+01  0.7957747E-01            NaN
         13   -1    0    0    0    0  0.00000000000E+00  0.00000000000E+00  0.74505805969E-08  0.10566000000E+00  0.10566000000E+00 0. -1.
     999900   -1    0    0    0    0 -0.00000000000E+00 -0.00000000000E+00 -0.74505805969E-08  0.93827000000E+00  0.93827000000E+00 0.  1.
     999902    2    1    2    0    0 -0.86486080682E-02  0.82502236908E-02  0.19982637358E-01  0.10206454470E+01  0.10203798107E+01 0.  0.
     999903    2    3    3    0    0 -0.91355795329E-01  0.39216970342E-01 -0.82191161077E-01  0.13034274381E+00  0.18708067837E-01 0.  0.
         14    1    1    2    0    0  0.86486080682E-02 -0.82502236908E-02 -0.19982637358E-01  0.23284552997E-01  0.00000000000E+00 0.  1.
     999901    1    3    3    0    0  0.82707187261E-01 -0.30966746651E-01  0.10217379844E+00  0.89030270319E+00  0.88000000000E+00 0. -1.
        -11    1    4    4    0    0 -0.12490548873E-01  0.76405717315E-02 -0.21169581624E-01  0.25744988924E-01  0.51100000000E-03 0.  1.
         11    1    4    4    0    0 -0.78865246456E-01  0.31576398610E-01 -0.61021579454E-01  0.10459775489E+00  0.51100000000E-03 0. -1.
</event>
<event>
 8    1  0.1150307E+005  0.1043930E+01  0.7957747E-01            NaN
         13   -1    0    0    0    0  0.00000000000E+00  0.00000000000E+00  0.74505805969E-08  0.10566000000E+00  0.10566000000E+00 0. -1.
     999900   -1    0    0    0    0 -0.00000000000E+00 -0.00000000000E+00 -0.74505805969E-08  0.93827000000E+00  0.93827000000E+00 0.  1.
     999902    2    1    2    0    0  0.13339084159E-01 -0.18393325189E-01  0.54882749667E-02  0.10205555109E+01  0.10202877948E+01 0.  0.
     999903    2    3    3    0    0 -0.92822092058E-01 -0.91492982385E-01  0.90369675214E-02  0.13115889049E+00  0.11579342466E-01 0.  0.
         14    1    1    2    0    0 -0.13339084159E-01  0.18393325189E-01 -0.54882749667E-02  0.23374489081E-01  0.00000000000E+00 0.  1.
     999901    1    3    3    0    0  0.10616117622E+00  0.73099657196E-01 -0.35486925547E-02  0.88939662043E+00  0.88000000000E+00 0. -1.
        -11    1    4    4    0    0 -0.74315167707E-01 -0.72747047179E-01  0.25607444653E-02  0.10402737889E+00  0.51100000000E-03 0.  1.
         11    1    4    4    0    0 -0.18506924351E-01 -0.18745935206E-01  0.64762230560E-02  0.27131511601E-01  0.51100000000E-03 0. -1.
</event>
<event>
 8    1  0.1150307E+005  0.1043930E+01  0.7957747E-01            NaN
         13   -1    0    0    0    0  0.00000000000E+00  0.00000000000E+00  0.74505805969E-08  0.10566000000E+00  0.10566000000E+00 0.  1.
     999900   -1    0    0    0    0 -0.00000000000E+00 -0.00000000000E+00 -0.74505805969E-08  0.93827000000E+00  0.93827000000E+00 0. -1.
     999902    2    1    2    0    0 -0.22849971601E-01  0.10111378526E-02  0.71345907558E-02  0.10199707432E+01  0.10196893012E+01 0.  0.
     999903    2    3    3    0    0 -0.75485184905E-01  0.93393960379E-01  0.51216790158E-01  0.13247522664E+00  0.22496246454E-01 0.  0.
         14    1    1    2    0    0  0.22849971601E-01 -0.10111378526E-02 -0.71345907558E-02  0.23959256816E-01  0.00000000000E+00 0. -1.
     999901    1    3    3    0    0  0.52635213305E-01 -0.92382822526E-01 -0.44082199402E-01  0.88749551654E+00  0.88000000000E+00 0. -1.
        -11    1    4    4    0    0 -0.57652026494E-01  0.61518574461E-01  0.26532371489E-01  0.88388455244E-01  0.51100000000E-03 0.  1.
         11    1    4    4    0    0 -0.17833158411E-01  0.31875385918E-01  0.24684418669E-01  0.44086771399E-01  0.51100000000E-03 0. -1.
</event>
<event>
 8    1  0.1150307E+005  0.1043930E+01  0.7957747E-01            NaN
         13   -1    0    0    0    0  0.00000000000E+00  0.00000000000E+00  0.74505805969E-08  0.10566000000E+00  0.10566000000E+00 0.  1.
     999900   -1    0    0    0    0 -0.00000000000E+00 -0.00000000000E+00 -0.74505805969E-08  0.93827000000E+00  0.93827000000E+00 0.  1.
     999902    2    1    2    0    0  0.28995242289E-02  0.60599457182E-02  0.19244891613E-01  0.10235462801E+01  0.10233432911E+01 0.  0.
     999903    2    3    3    0    0 -0.12509905743E-01  0.12204423554E+00 -0.48014188983E-01  0.13325779320E+00  0.20024583296E-01 0.  0.
         14    1    1    2    0    0 -0.28995242289E-02 -0.60599457182E-02 -0.19244891613E-01  0.20383719878E-01  0.00000000000E+00 0. -1.
     999901    1    3    3    0    0  0.15409429972E-01 -0.11598428982E+00  0.67259080597E-01  0.89028848692E+00  0.88000000000E+00 0. -1.
        -11    1    4    4    0    0 -0.15758331690E-01  0.10673947609E+00 -0.36796845588E-01  0.11399960412E+00  0.51100000000E-03 0.  1.
         11    1    4    4    0    0  0.32484259476E-02  0.15304759448E-01 -0.11217343395E-01  0.19258189083E-01  0.51100000000E-03 0. -1.
</event>
<event>
 8    1  0.1150307E+005  0.1043930E+01  0.7957747E-01            NaN
         13   -1    0    0    0    0  0.00000000000E+00  0.00000000000E+00  0.74505805969E-08  0.10566000000E+00  0.10566000000E+00 0.  1.
     999900   -1    0    0    0    0 -0.00000000000E+00 -0.00000000000E+00 -0.74505805969E-08  0.93827000000E+00  0.93827000000E+00 0. -1.
     999902    2    1    2    0    0  0.15383752282E-01 -0.35835097380E-02 -0.18377107210E-01  0.10196973888E+01  0.10194094100E+01 0.  0.
     999903    2    3    3    0    0 -0.11410416580E+00 -0.41081385162E-01 -0.40018776546E-01  0.12916857206E+00  0.19379800576E-01 0.  0.
         14    1    1    2    0    0 -0.15383752282E-01  0.35835097380E-02  0.18377107210E-01  0.24232611203E-01  0.00000000000E+00 0.  1.
     999901    1    3    3    0    0  0.12948791809E+00  0.37497875424E-01  0.21641669336E-01  0.89052881674E+00  0.88000000000E+00 0.  1.
        -11    1    4    4    0    0 -0.72906590908E-01 -0.35423691924E-01 -0.29620845685E-01  0.86301011393E-01  0.51100000000E-03 0.  1.
         11    1    4    4    0    0 -0.41197574897E-01 -0.56576932382E-02 -0.10397930860E-01  0.42867560665E-01  0.51100000000E-03 0. -1.
</event>
<event>
 8    1  0.1150307E+005  0.1043930E+01  0.7957747E-01            NaN
         13   -1    0    0    0    0  0.00000000000E+00  0.00000000000E+00  0.74505805969E-08  0.10566000000E+00  0.10566000000E+00 0.  1.
     999900   -1    0    0    0    0 -0.00000000000E+00 -0.00000000000E+00 -0.74505805969E-08  0.93827000000E+00  0.93827000000E+00 0.  1.
     999902    2    1    2    0    0  0.11265418185E-01 -0.18367418895E-01 -0.61192576587E-02  0.10215309590E+01  0.10212853583E+01 0.  0.
     999903    2    3    3    0    0 -0.11387980132E+00  0.35761390692E-01 -0.47490921713E-01  0.13006987259E+00  0.20378859040E-01 0.  0.
         14    1    1    2    0    0 -0.11265418185E-01  0.18367418895E-01  0.61192576587E-02  0.22399041007E-01  0.00000000000E+00 0.  1.
     999901    1    3    3    0    0  0.12514521951E+00 -0.54128809587E-01  0.41371664055E-01  0.89146108641E+00  0.88000000000E+00 0. -1.
        -11    1    4    4    0    0 -0.42833321851E-01  0.37546379863E-02 -0.20150407384E-01  0.47487796389E-01  0.51100000000E-03 0. -1.
         11    1    4    4    0    0 -0.71046479471E-01  0.32006752706E-01 -0.27340514330E-01  0.82582076196E-01  0.51100000000E-03 0.  1.
</event>
<event>
 8    1  0.1150307E+005  0.1043930E+01  0.7957747E-01            NaN
         13   -1    0    0    0    0  0.00000000000E+00  0.00000000000E+00  0.74505805969E-08  0.10566000000E+00  0.10566000000E+00 0. -1.
     999900   -1    0    0    0    0 -0.00000000000E+00 -0.00000000000E+00 -0.74505805969E-08  0.93827000000E+00  0.93827000000E+00 0. -1.
     999902    2    1    2    0    0 -0.31128837297E-02 -0.15042868553E-01  0.16892339692E-01  0.10210973681E+01  0.10208420573E+01 0.  0.
     999903    2    3    3    0    0 -0.36960139728E-01 -0.18759943434E-01  0.12565422292E+00  0.13374816929E+00  0.19534626768E-01 0.  0.
         14    1    1    2    0    0  0.31128837297E-02  0.15042868553E-01 -0.16892339692E-01  0.22832631905E-01  0.00000000000E+00 0.  1.
     999901    1    3    3    0    0  0.33847255998E-01  0.37170748804E-02 -0.10876188323E+00  0.88734919881E+00  0.88000000000E+00 0. -1.
        -11    1    4    4    0    0 -0.33020789110E-01 -0.75266091064E-02  0.90626079698E-01  0.96749004132E-01  0.51100000000E-03 0.  1.
         11    1    4    4    0    0 -0.39393506179E-02 -0.11233334327E-01  0.35028143223E-01  0.36999165154E-01  0.51100000000E-03 0. -1.
</event>
<event>
 8    1  0.1150307E+005  0.1043930E+01  0.7957747E-01            NaN
         13   -1    0    0    0    0  0.00000000000E+00  0.00000000000E+00  0.74505805969E-08  0.10566000000E+00  0.10566000000E+00 0.  1.
     999900   -1    0    0    0    0 -0.00000000000E+00 -0.00000000000E+00 -0.74505805969E-08  0.93827000000E+00  0.93827000000E+00 0.  1.
     999902    2    1    2    0    0 -0.12370425361E-01 -0.63743375414E-02 -0.21858075336E-01  0.10180179360E+01  0.10176881069E+01 0.  0.
     999903    2    3    3    0    0 -0.49836287547E-01 -0.83669111487E-01 -0.85831069043E-01  0.13152444092E+00  0.21154913708E-01 0.  0.
         14    1    1    2    0    0  0.12370425361E-01  0.63743375414E-02  0.21858075336E-01  0.25912063988E-01  0.00000000000E+00 0.  1.
     999901    1    3    3    0    0  0.37465862186E-01  0.77294773946E-01  0.63972993707E-01  0.88649349509E+00  0.88000000000E+00 0.  1.
        -11    1    4    4    0    0 -0.49774859263E-02 -0.81896282288E-02 -0.18622205583E-01  0.20949774186E-01  0.51100000000E-03 0.  1.
         11    1    4    4    0    0 -0.44858801621E-01 -0.75479483259E-01 -0.67208863460E-01  0.11057466674E+00  0.51100000000E-03 0. -1.
</event>
<event>
 8    1  0.1150307E+005  0.1043930E+01  0.7957747E-01            NaN
         13   -1    0    0    0    0  0.00000000000E+00  0.00000000000E+00  0.74505805969E-08  0.10566000000E+00  0.10566000000E+00 0. -1.
     999900   -1    0    0    0    0 -0.00000000000E+00 -0.00000000000E+00 -0.74505805969E-08  0.93827000000E+00  0.93827000000E+00 0. -1.
     999902    2    1    2    0    0 -0.21183604308E-01  0.11167812692E-01 -0.71790188254E-02  0.10189299311E+01  0.10186231890E+01 0.  0.
     999903    2    3    3    0    0 -0.49682739474E-01 -0.81546079032E-01 -0.85918009479E-01  0.13010604809E+00  0.20677083697E-01 0.  0.
         14    1    1    2    0    0  0.21183604308E-01 -0.11167812692E-01  0.71790188254E-02  0.25000068862E-01  0.00000000000E+00 0. -1.
     999901    1    3    3    0    0  0.28499135165E-01  0.92713891724E-01  0.78738990653E-01  0.88882388305E+00  0.88000000000E+00 0. -1.
        -11    1    4    4    0    0 -0.32928365772E-01 -0.38967768530E-01 -0.54159033057E-01  0.74405821273E-01  0.51100000000E-03 0.  1.
         11    1    4    4    0    0 -0.16754373702E-01 -0.42578310502E-01 -0.31758976422E-01  0.55700226819E-01  0.51100000000E-03 0. -1.
</event>
<event>
 8    1  0.1150307E+005  0.1043930E+01  0.7957747E-01            NaN
         13   -1    0    0    0    0  0.00000000000E+00  0.00000000000E+00  0.74505805969E-08  0.10566000000E+00  0.10566000000E+00 0. -1.
     999900   -1    0    0    0    0 -0.00000000000E+00 -0.00000000000E+00 -0.74505805969E-08  0.93827000000E+00  0.93827000000E+00 0.  1.
     999902    2    1    2    0    0 -0.63231454197E-02 -0.21358682110E-01  0.77559781785E-03  0.10216415047E+01  0.10213983489E+01 0.  0.
     999903    2    3    3    0    0 -0.90292021424E-01 -0.31204483098E-01 -0.90454693863E-01  0.13289481525E+00  0.18777949330E-01 0.  0.
         14    1    1    2    0    0  0.63231454197E-02  0.21358682110E-01 -0.77559781785E-03  0.22288495271E-01  0.00000000000E+00 0.  1.
     999901    1    3    3    0    0  0.83968876004E-01  0.98458009878E-02  0.91230291681E-01  0.88874668948E+00  0.88000000000E+00 0.  1.
        -11    1    4    4    0    0 -0.84745422105E-02  0.14578289908E-02 -0.41293088661E-02  0.95527715222E-02  0.51100000000E-03 0. -1.
         11    1    4    4    0    0 -0.81817479214E-01 -0.32662312089E-01 -0.86325384997E-01  0.12334204373E+00  0.51100000000E-03 0.  1.
</event>
<event>
 8    1  0.1150307E+005  0.1043930E+01  0.7957747E-01            NaN
         13   -1    0    0    0    0  0.00000000000E+00  0.00000000000E+00  0.74505805969E-08  0.10566000000E+00  0.10566000000E+00 0. -1.
     999900   -1    0    0    0    0 -0.00000000000E+00 -0.00000000000E+00 -0.74505805969E-08  0.93827000000E+00  0.93827000000E+00 0. -1.
     999902    2    1    2    0    0 -0.50457972977E-02 -0.48465668896E-02  0.21707898163E-01  0.10211224985E+01  0.10208677558E+01 0.  0.
     999903    2    3    3    0    0  0.95877182169E-01 -0.76507899597E-01 -0.39801886085E-01  0.13033394452E+00  0.18890584856E-01 0.  0.
         14    1    1    2    0    0  0.50457972977E-02  0.48465668896E-02 -0.21707898163E-01  0.22807501477E-01  0.00000000000E+00 0.  1.
     999901    1    3    3    0    0 -0.10092297947E+00  0.71661332707E-01  0.61509784247E-01  0.89078855401E+00  0.88000000000E+00 0.  1.
        -11    1    4    4    0    0  0.36829289803E-01 -0.38218024667E-01 -0.23747577218E-01  0.58148280642E-01  0.51100000000E-03 0. -1.
         11    1    4    4    0    0  0.59047892366E-01 -0.38289874930E-01 -0.16054308866E-01  0.72185663876E-01  0.51100000000E-03 0.  1.
</event>
<event>
 8    1  0.1150307E+005  0.1043930E+01  0.7957747E-01            NaN
         13   -1    0    0    0    0  0.00000000000E+00  0.00000000000E+00  0.74505805969E-08  0.10566000000E+00  0.10566000000E+00 0.  1.
     999900   -1    0    0    0    0 -0.00000000000E+00 -0.00000000000E+00 -0.74505805969E-08  0.93827000000E+00  0.93827000000E+00 0.  1.
     999902    2    1    2    0    0  0.16758722086E-01 -0.96731350873E-02  0.13144181206E-01  0.10205378259E+01  0.10202696998E+01 0.  0.
     999903    2    3    3    0    0 -0.10978931764E+00  0.63104279038E-01  0.93302353157E-02  0.12850335095E+00  0.19753825298E-01 0.  0.
         14    1    1    2    0    0 -0.16758722086E-01  0.96731350873E-02 -0.13144181206E-01  0.23392174075E-01  0.00000000000E+00 0.  1.
     999901    1    3    3    0    0  0.12654803972E+00 -0.72777414126E-01  0.38139458903E-02  0.89203447498E+00  0.88000000000E+00 0. -1.
        -11    1    4    4    0    0 -0.24115168867E-01  0.11784417387E-01  0.99535515288E-02  0.28631244676E-01  0.51100000000E-03 0.  1.
         11    1    4    4    0    0 -0.85674148768E-01  0.51319861652E-01 -0.62331621316E-03  0.99872106272E-01  0.51100000000E-03 0. -1.
</event>
<event>
 8    1  0.1150307E+005  0.1043930E+01  0.7957747E-01            NaN
         13   -1    0    0    0    0  0.00000000000E+00  0.00000000000E+00  0.74505805969E-08  0.10566000000E+00  0.10566000000E+00 0. -1.
     999900   -1    0    0    0    0 -0.00000000000E+00 -0.00000000000E+00 -0.74505805969E-08  0.93827000000E+00  0.93827000000E+00 0. -1.
     999902    2    1    2    0    0  0.14989518325E-01 -0.17784513925E-01 -0.58612896292E-02  0.10199439768E+01  0.10196618981E+01 0.  0.
     999903    2    3    3    0    0 -0.48074014816E-01 -0.58998074527E-01  0.10375514794E+00  0.12994884745E+00  0.18157327235E-01 0.  0.
         14    1    1    2    0    0 -0.14989518325E-01  0.17784513925E-01  0.58612896292E-02  0.23986023249E-01  0.00000000000E+00 0. -1.
     999901    1    3    3    0    0  0.63063533142E-01  0.41213560601E-01 -0.10961643757E+00  0.88999512930E+00  0.88000000000E+00 0. -1.
        -11    1    4    4    0    0 -0.25292049120E-01 -0.17131391147E-01  0.42029623568E-01  0.51960780302E-01  0.51100000000E-03 0. -1.
         11    1    4    4    0    0 -0.22781965696E-01 -0.41866683380E-01  0.61725524369E-01  0.77988067150E-01  0.51100000000E-03 0.  1.
</event>
<event>
 8    1  0.1150307E+005  0.1043930E+01  0.7957747E-01            NaN
         13   -1    0    0    0    0  0.00000000000E+00  0.00000000000E+00  0.74505805969E-08  0.10566000000E+00  0.10566000000E+00 0. -1.
     999900   -1    0    0    0    0 -0.00000000000E+00 -0.00000000000E+00 -0.74505805969E-08  0.93827000000E+00  0.93827000000E+00 0. -1.
     999902    2    1    2    0    0  0.86807319652E-02 -0.12045597530E-01 -0.16286747137E-01  0.10218911784E+01  0.10216534984E+01 0.  0.
     999903    2    3    3    0    0  0.99333580731E-01 -0.63156441497E-01  0.57889067026E-01  0.13265987618E+00  0.19788943960E-01 0.  0.
         14    1    1    2    0    0 -0.86807319652E-02  0.12045597530E-01  0.16286747137E-01  0.22038821647E-01  0.00000000000E+00 0. -1.
     999901    1    3    3    0    0 -0.90652848766E-01  0.51110843968E-01 -0.74175814163E-01  0.88923130217E+00  0.88000000000E+00 0. -1.
        -11    1    4    4    0    0  0.66882509242E-01 -0.48759003056E-01  0.48503182397E-01  0.95935031376E-01  0.51100000000E-03 0.  1.
         11    1    4    4    0    0  0.32451071489E-01 -0.14397438441E-01  0.93858846286E-02  0.36724844802E-01  0.51100000000E-03 0. -1.
</event>
<event>
 8    1  0.1150307E+005  0.1043930E+01  0.7957747E-01            NaN
         13   -1    0    0    0    0  0.00000000000E+00  0.00000000000E+00  0.74505805969E-08  0.10566000000E+00  0.10566000000E+00 0. -1.
     999900   -1    0    0    0    0 -0.00000000000E+00 -0.00000000000E+00 -0.74505805969E-08  0.93827000000E+00  0.93827000000E+00 0.  1.
     999902    2    1    2    0    0 -0.70591890891E-03  0.20862000046E-01  0.11100856234E-01  0.10202878686E+01  0.10200139139E+01 0.  0.
     999903    2    3    3    0    0  0.10245656257E+00 -0.52152400720E-01 -0.54567458498E-01  0.12883628391E+00  0.20098766428E-01 0.  0.
         14    1    1    2    0    0  0.70591890891E-03 -0.20862000046E-01 -0.11100856234E-01  0.23642131388E-01  0.00000000000E+00 0.  1.
     999901    1    3    3    0    0 -0.10316248147E+00  0.73014400765E-01  0.65668314732E-01  0.89145158470E+00  0.88000000000E+00 0. -1.
        -11    1    4    4    0    0  0.82833705082E-01 -0.49437964990E-01 -0.40985635125E-01  0.10481230122E+00  0.51100000000E-03 0.  1.
         11    1    4    4    0    0  0.19622857484E-01 -0.27144357292E-02 -0.13581823373E-01  0.24023982691E-01  0.51100000000E-03 0. -1.
</event>
<event>
 8    1  0.1150307E+005  0.1043930E+01  0.7957747E-01            NaN
         13   -1    0    0    0    0  0.00000000000E+00  0.00000000000E+00  0.74505805969E-08  0.10566000000E+00  0.10566000000E+00 0.  1.
     999900   -1    0    0    0    0 -0.00000000000E+00 -0.00000000000E+00 -0.74505805969E-08  0.93827000000E+00  0.93827000000E+00 0. -1.
     999902    2    1    2    0    0 -0.92204856073E-02  0.13330876808E-01  0.16692432925E-01  0.10206627065E+01  0.10203974684E+01 0.  0.
     999903    2    3    3    0    0 -0.41379821396E-01  0.12284172603E+00  0.23294214931E-01  0.13326739856E+00  0.20376452037E-01 0.  0.
         14    1    1    2    0    0  0.92204856073E-02 -0.13330876808E-01 -0.16692432925E-01  0.23267293531E-01  0.00000000000E+00 0.  1.
     999901    1    3    3    0    0  0.32159335789E-01 -0.10951084922E+00 -0.66017820062E-02  0.88739530791E+00  0.88000000000E+00 0. -1.
        -11    1    4    4    0    0 -0.18088901778E-01  0.79919231603E-01  0.93225593583E-02  0.82470983876E-01  0.51100000000E-03 0. -1.
         11    1    4    4    0    0 -0.23290919619E-01  0.42922494423E-01  0.13971655573E-01  0.50796414683E-01  0.51100000000E-03 0.  1.
</event>
<event>
 8    1  0.1150307E+005  0.1043930E+01  0.7957747E-01            NaN
         13   -1    0    0    0    0  0.00000000000E+00  0.00000000000E+00  0.74505805969E-08  0.10566000000E+00  0.10566000000E+00 0.  1.
     999900   -1    0    0    0    0 -0.00000000000E+00 -0.00000000000E+00 -0.74505805969E-08  0.93827000000E+00  0.93827000000E+00 0. -1.
     999902    2    1    2    0    0 -0.13799757348E-01  0.14563605952E-01  0.12240794586E-01  0.10204274688E+01  0.10201567772E+01 0.  0.
     999903    2    3    3    0    0 -0.29719947334E-01 -0.61349323703E-01 -0.10761222535E+00  0.12892257720E+00  0.19839986865E-01 0.  0.
         14    1    1    2    0    0  0.13799757348E-01 -0.14563605952E-01 -0.12240794586E-01  0.23502531210E-01  0.00000000000E+00 0. -1.
     999901    1    3    3    0    0  0.15920189986E-01  0.75912929654E-01  0.11985301994E+00  0.89150489159E+00  0.88000000000E+00 0.  1.
        -11    1    4    4    0    0 -0.14388698551E-01 -0.42948135751E-01 -0.83124476605E-01  0.94665287948E-01  0.51100000000E-03 0. -1.
         11    1    4    4    0    0 -0.15331248784E-01 -0.18401187952E-01 -0.24487748747E-01  0.34257289253E-01  0.51100000000E-03 0.  1.
</event>
<event>
 8    1  0.1170347E+005  0.1043930E+01  0.7957747E-01            NaN
         13   -1    0    0    0    0  0.00000000000E+00  0.00000000000E+00  0.74505805969E-08  0.10566000000E+00  0.10566000000E+00 0.  1.
     999900   -1    0    0    0    0 -0.00000000000E+00 -0.00000000000E+00 -0.74505805969E-08  0.93827000000E+00  0.93827000000E+00 0.  1.
     999902    2    1    2    0    0 -0.78448861537E-02 -0.19097922167E-01 -0.11048080088E-01  0.10205134899E+01  0.10202447992E+01 0.  0.
     999903    2    3    3    0    0  0.64826361993E-01 -0.74064729379E-01 -0.86389931904E-01  0.13260648195E+00  0.20813874533E-01 0.  0.
         14    1    1    2    0    0  0.78448861537E-02  0.19097922167E-01  0.11048080088E-01  0.23416510062E-01  0.00000000000E+00 0.  1.
     999901    1    3    3    0    0 -0.72671248147E-01  0.54966807212E-01  0.75341851816E-01  0.88790700799E+00  0.88000000000E+00 0. -1.
        -11    1    4    4    0    0  0.20866537097E-01 -0.39496307197E-01 -0.39089136340E-01  0.59359854729E-01  0.51100000000E-03 0.  1.
         11    1    4    4    0    0  0.43959824896E-01 -0.34568422182E-01 -0.47300795563E-01  0.73246627219E-01  0.51100000000E-03 0. -1.
</event>
<event>
 8    1  0.1150307E+005  0.1043930E+01  0.7957747E-01            NaN
         13   -1    0    0    0    0  0.00000000000E+00  0.00000000000E+00  0.74505805969E-08  0.10566000000E+00  0.10566000000E+00 0.  1.
     999900   -1    0    0    0    0 -0.00000000000E+00 -0.00000000000E+00 -0.74505805969E-08  0.93827000000E+00  0.93827000000E+00 0. -1.
     999902    2    1    2    0    0  0.18141136644E-01  0.13636869093E-01  0.80756626597E-02  0.10198409700E+01  0.10195564343E+01 0.  0.
     999903    2    3    3    0    0  0.41024316700E-01 -0.72136614327E-01 -0.96955479480E-01  0.12916017917E+00  0.19882182866E-01 0.  0.
         14    1    1    2    0    0 -0.18141136644E-01 -0.13636869093E-01 -0.80756626597E-02  0.24089029968E-01  0.00000000000E+00 0.  1.
     999901    1    3    3    0    0 -0.22883180056E-01  0.85773483419E-01  0.10503114214E+00  0.89068079086E+00  0.88000000000E+00 0.  1.
        -11    1    4    4    0    0  0.18527271972E-01 -0.36667264920E-01 -0.33257841892E-01  0.52859183609E-01  0.51100000000E-03 0. -1.
         11    1    4    4    0    0  0.22497044729E-01 -0.35469349406E-01 -0.63697637587E-01  0.76300995564E-01  0.51100000000E-03 0.  1.
</event>
<event>
 8    1  0.1150307E+005  0.1043930E+01  0.7957747E-01            NaN
         13   -1    0    0    0    0  0.00000000000E+00  0.00000000000E+00  0.74505805969E-08  0.10566000000E+00  0.10566000000E+00 0. -1.
     999900   -1    0    0    0    0 -0.00000000000E+00 -0.00000000000E+00 -0.74505805969E-08  0.93827000000E+00  0.93827000000E+00 0.  1.
     999902    2    1    2    0    0  0.10945735866E-01  0.38482539862E-02 -0.20917589771E-01  0.10200100553E+01  0.10197295471E+01 0.  0.
     999903    2    3    3    0    0  0.74276671956E-01  0.10632625507E+00  0.45604860450E-02  0.13143722176E+00  0.20800209519E-01 0.  0.
         14    1    1    2    0    0 -0.10945735866E-01 -0.38482539862E-02  0.20917589771E-01  0.23919944695E-01  0.00000000000E+00 0. -1.
     999901    1    3    3    0    0 -0.63330936090E-01 -0.10247800108E+00 -0.25478075816E-01  0.88857283355E+00  0.88000000000E+00 0.  1.
        -11    1    4    4    0    0  0.50873851761E-01  0.70440559667E-01  0.12729770204E-01  0.87819869105E-01  0.51100000000E-03 0.  1.
         11    1    4    4    0    0  0.23402820195E-01  0.35885695403E-01 -0.81692841592E-02  0.43617352652E-01  0.51100000000E-03 0. -1.
</event>
<event>
 8    1  0.1150307E+005  0.1043930E+01  0.7957747E-01            NaN
         13   -1    0    0    0    0  0.00000000000E+00  0.00000000000E+00  0.74505805969E-08  0.10566000000E+00  0.10566000000E+00 0.  1.
     999900   -1    0    0    0    0 -0.00000000000E+00 -0.00000000000E+00 -0.74505805969E-08  0.93827000000E+00  0.93827000000E+00 0.  1.
     999902    2    1    2    0    0 -0.17807545586E-01  0.99104744023E-02 -0.12136479199E-01  0.10202103813E+01  0.10199346067E+01 0.  0.
     999903    2    3    3    0    0 -0.84704798564E-01 -0.95952553035E-01  0.19245285940E-01  0.13079088625E+00  0.18817001945E-01 0.  0.
         14    1    1    2    0    0  0.17807545586E-01 -0.99104744023E-02  0.12136479199E-01  0.23719618673E-01  0.00000000000E+00 0.  1.
     999901    1    3    3    0    0  0.66897252978E-01  0.10586302744E+00 -0.31381765139E-01  0.88941949507E+00  0.88000000000E+00 0. -1.
        -11    1    4    4    0    0 -0.50544569918E-01 -0.69338935329E-01  0.16640185475E-01  0.87405940269E-01  0.51100000000E-03 0. -1.
         11    1    4    4    0    0 -0.34160228646E-01 -0.26613617706E-01  0.26051004655E-02  0.43384945984E-01  0.51100000000E-03 0.  1.
</event>
<event>
 8    1  0.1150307E+005  0.1043930E+01  0.7957747E-01            NaN
         13   -1    0    0    0    0  0.00000000000E+00  0.00000000000E+00  0.74505805969E-08  0.10566000000E+00  0.10566000000E+00 0. -1.
     999900   -1    0    0    0    0 -0.00000000000E+00 -0.00000000000E+00 -0.74505805969E-08  0.93827000000E+00  0.93827000000E+00 0. -1.
     999902    2    1    2    0    0 -0.21500373332E-01 -0.34887712605E-02 -0.10434570044E-01  0.10197780264E+01  0.10194919839E+01 0.  0.
     999903    2    3    3    0    0 -0.11823658157E+00 -0.42818867846E-01  0.36344422333E-01  0.13236998910E+00  0.19686348410E-01 0.  0.
         14    1    1    2    0    0  0.21500373332E-01  0.34887712605E-02  0.10434570044E-01  0.24151973632E-01  0.00000000000E+00 0.  1.
     999901    1    3    3    0    0  0.96736208241E-01  0.39330096585E-01 -0.46778992377E-01  0.88740803727E+00  0.88000000000E+00 0. -1.
        -11    1    4    4    0    0 -0.47670890172E-01 -0.73675515926E-02  0.15934908278E-01  0.50803316910E-01  0.51100000000E-03 0.  1.
         11    1    4    4    0    0 -0.70565691400E-01 -0.35451316253E-01  0.20409514055E-01  0.81566672188E-01  0.51100000000E-03 0. -1.
</event>
<event>
 8    1  0.1150307E+005  0.1043930E+01  0.7957747E-01            NaN
         13   -1    0    0    0    0  0.00000000000E+00  0.00000000000E+00  0.74505805969E-08  0.10566000000E+00  0.10566000000E+00 0.  1.
     999900   -1    0    0    0    0 -0.00000000000E+00 -0.00000000000E+00 -0.74505805969E-08  0.93827000000E+00  0.93827000000E+00 0. -1.
     999902    2    1    2    0    0  0.24536394865E-02 -0.15773306684E-01  0.17897392749E-01  0.10199480439E+01  0.10196660620E+01 0.  0.
     999903    2    3    3    0    0  0.68884728032E-01 -0.10057968515E+00 -0.44942831686E-01  0.13115442042E+00  0.17895392005E-01 0.  0.
         14    1    1    2    0    0 -0.24536394865E-02  0.15773306684E-01 -0.17897392749E-01  0.23981956085E-01  0.00000000000E+00 0. -1.
     999901    1    3    3    0    0 -0.66431088545E-01  0.84806378468E-01  0.62840224435E-01  0.88879362349E+00  0.88000000000E+00 0.  1.
        -11    1    4    4    0    0  0.16097942169E-01 -0.19510466268E-01 -0.22120244990E-02  0.25395988059E-01  0.51100000000E-03 0.  1.
         11    1    4    4    0    0  0.52786785862E-01 -0.81069218884E-01 -0.42730807187E-01  0.10575843236E+00  0.51100000000E-03 0. -1.
</event>
<event>
 8    1  0.1150307E+005  0.1043930E+01  0.7957747E-01            NaN
         13   -1    0    0    0    0  0.00000000000E+00  0.00000000000E+00  0.74505805969E-08  0.10566000000E+00  0.10566000000E+00 0.  1.
     999900   -1    0    0    0    0 -0.00000000000E+00 -0.00000000000E+00 -0.74505805969E-08  0.93827000000E+00  0.93827000000E+00 0. -1.
     999902    2    1    2    0    0  0.14760227969E-01 -0.10113110690E-01 -0.15647134149E-01  0.10201608573E+01  0.10198839163E+01 0.  0.
     999903    2    3    3    0    0  0.10598854745E-01 -0.10521570171E+00 -0.76842394010E-01  0.13291417251E+00  0.24057101408E-01 0.  0.
         14    1    1    2    0    0 -0.14760227969E-01  0.10113110690E-01  0.15647134149E-01  0.23769142698E-01  0.00000000000E+00 0.  1.
     999901    1    3    3    0    0  0.41613732239E-02  0.95102591022E-01  0.61195259860E-01  0.88724668479E+00  0.88000000000E+00 0.  1.
        -11    1    4    4    0    0  0.17224106509E-01 -0.75676666675E-01 -0.49040928008E-01  0.91809048928E-01  0.51100000000E-03 0. -1.
         11    1    4    4    0    0 -0.66252517645E-02 -0.29539035036E-01 -0.27801466002E-01  0.41105123582E-01  0.51100000000E-03 0.  1.
</event>
<event>
 8    1  0.1150307E+005  0.1043930E+01  0.7957747E-01            NaN
         13   -1    0    0    0    0  0.00000000000E+00  0.00000000000E+00  0.74505805969E-08  0.10566000000E+00  0.10566000000E+00 0.  1.
     999900   -1    0    0    0    0 -0.00000000000E+00 -0.00000000000E+00 -0.74505805969E-08  0.93827000000E+00  0.93827000000E+00 0.  1.
     999902    2    1    2    0    0 -0.16758286867E-01  0.45982502150E-02  0.19121382427E-01  0.10180918238E+01  0.10177638971E+01 0.  0.
     999903    2    3    3    0    0  0.70186209907E-01  0.50246047126E-01  0.94501342702E-01  0.12942697961E+00  0.19237202618E-01 0.  0.
         14    1    1    2    0    0  0.16758286867E-01 -0.45982502150E-02 -0.19121382427E-01  0.25838176207E-01  0.00000000000E+00 0. -1.
     999901    1    3    3    0    0 -0.86944496775E-01 -0.45647796911E-01 -0.75379960275E-01  0.88866484419E+00  0.88000000000E+00 0.  1.
        -11    1    4    4    0    0  0.45371358043E-01  0.35932402930E-01  0.75139120609E-01  0.94846435241E-01  0.51100000000E-03 0.  1.
         11    1    4    4    0    0  0.24814851865E-01  0.14313644196E-01  0.19362222093E-01  0.34580544366E-01  0.51100000000E-03 0. -1.
</event>
<event>
 8    1  0.1150307E+005  0.1043930E+01  0.7957747E-01            NaN
         13   -1    0    0    0    0  0.00000000000E+00  0.00000000000E+00  0.74505805969E-08  0.10566000000E+00  0.10566000000E+00 0. -1.
     999900   -1    0    0    0    0 -0.00000000000E+00 -0.00000000000E+00 -0.74505805969E-08  0.93827000000E+00  0.93827000000E+00 0. -1.
     999902    2    1    2    0    0 -0.12937829241E-01  0.15559733065E-01 -0.62015144778E-02  0.10227651352E+01  0.10225461214E+01 0.  0.
     999903    2    3    3    0    0 -0.10596481081E+00 -0.77327529734E-01 -0.49033733742E-02  0.13299901537E+00  0.21368365287E-01 0.  0.
         14    1    1    2    0    0  0.12937829241E-01 -0.15559733065E-01  0.62015144778E-02  0.21164864761E-01  0.00000000000E+00 0. -1.
     999901    1    3    3    0    0  0.93026981570E-01  0.92887262799E-01 -0.12981411037E-02  0.88976611987E+00  0.88000000000E+00 0. -1.
        -11    1    4    4    0    0 -0.93662272331E-02 -0.15674176804E-01 -0.18556955852E-02  0.18360576194E-01  0.51100000000E-03 0. -1.
         11    1    4    4    0    0 -0.96598583577E-01 -0.61653352930E-01 -0.30476777890E-02  0.11463843918E+00  0.51100000000E-03 0.  1.
</event>
<event>
 8    1  0.1150307E+005  0.1043930E+01  0.7957747E-01            NaN
         13   -1    0    0    0    0  0.00000000000E+00  0.00000000000E+00  0.74505805969E-08  0.10566000000E+00  0.10566000000E+00 0. -1.
     999900   -1    0    0    0    0 -0.00000000000E+00 -0.00000000000E+00 -0.74505805969E-08  0.93827000000E+00  0.93827000000E+00 0.  1.
     999902    2    1    2    0    0  0.10625776430E-01  0.47139037922E-02  0.21635911595E-01  0.10193690415E+01  0.10190731093E+01 0.  0.
     999903    2    3    3    0    0 -0.11490294386E+00 -0.32836377791E-01 -0.39789054893E-01  0.12755038850E+00  0.20125071526E-01 0.  0.
         14    1    1    2    0    0 -0.10625776430E-01 -0.47139037922E-02 -0.21635911595E-01  0.24560958537E-01  0.00000000000E+00 0.  1.
     999901    1    3    3    0    0  0.12552872029E+00  0.37550281583E-01  0.61424966487E-01  0.89181865296E+00  0.88000000000E+00 0. -1.
        -11    1    4    4    0    0 -0.99475953814E-01 -0.26572804198E-01 -0.26714847736E-01  0.10637444957E+00  0.51100000000E-03 0. -1.
         11    1    4    4    0    0 -0.15426990043E-01 -0.62635735927E-02 -0.13074207157E-01  0.21175938934E-01  0.51100000000E-03 0.  1.
</event>
<event>
 8    1  0.1150307E+005  0.1043930E+01  0.7957747E-01            NaN
         13   -1    0    0    0    0  0.00000000000E+00  0.00000000000E+00  0.74505805969E-08  0.10566000000E+00  0.10566000000E+00 0.  1.
     999900   -1    0    0    0    0 -0.00000000000E+00 -0.00000000000E+00 -0.74505805969E-08  0.93827000000E+00  0.93827000000E+00 0.  1.
     999902    2    1    2    0    0  0.19612945963E-01  0.11150740416E-01  0.10342317346E-01  0.10191112533E+01  0.10188089990E+01 0.  0.
     999903    2    3    3    0    0 -0.59557759392E-01 -0.99400195375E-01  0.49706632693E-01  0.12779814369E+00  0.20834842255E-01 0.  0.
         14    1    1    2    0    0 -0.19612945963E-01 -0.11150740416E-01 -0.10342317346E-01  0.24818746731E-01  0.00000000000E+00 0. -1.
     999901    1    3    3    0    0  0.79170705355E-01  0.11055093579E+00 -0.39364315347E-01  0.89131310958E+00  0.88000000000E+00 0.  1.
        -11    1    4    4    0    0 -0.11937742011E-02 -0.15264001234E-01  0.57341195319E-02  0.16357141508E-01  0.51100000000E-03 0.  1.
         11    1    4    4    0    0 -0.58363985191E-01 -0.84136194141E-01  0.43972513161E-01  0.11144100218E+00  0.51100000000E-03 0. -1.
</event>
<event>
 8    1  0.1150307E+005  0.1043930E+01  0.7957747E-01            NaN
         13   -1    0    0    0    0  0.00000000000E+00  0.00000000000E+00  0.74505805969E-08  0.10566000000E+00  0.10566000000E+00 0. -1.
     999900   -1    0    0    0    0 -0.00000000000E+00 -0.00000000000E+00 -0.74505805969E-08  0.93827000000E+00  0.93827000000E+00 0. -1.
     999902    2    1    2    0    0  0.10541267327E-01 -0.15166118240E-01  0.15011980262E-01  0.10201289704E+01  0.10198512770E+01 0.  0.
     999903    2    3    3    0    0 -0.11393927713E+00 -0.59633492216E-01  0.24418105356E-02  0.13016786873E+00  0.19984977930E-01 0.  0.
         14    1    1    2    0    0 -0.10541267327E-01  0.15166118240E-01 -0.15011980262E-01  0.23801029615E-01  0.00000000000E+00 0.  1.
     999901    1    3    3    0    0  0.12448054446E+00  0.44467373976E-01  0.12570169727E-01  0.88996110166E+00  0.88000000000E+00 0.  1.
        -11    1    4    4    0    0 -0.65044807839E-01 -0.27488550637E-01 -0.67297757040E-02  0.70936580443E-01  0.51100000000E-03 0.  1.
         11    1    4    4    0    0 -0.48894469294E-01 -0.32144941579E-01  0.91715862396E-02  0.59231288284E-01  0.51100000000E-03 0. -1.
</event>
<event>
 8    1  0.1150307E+005  0.1043930E+01  0.7957747E-01            NaN
         13   -1    0    0    0    0  0.00000000000E+00  0.00000000000E+00  0.74505805969E-08  0.10566000000E+00  0.10566000000E+00 0. -1.
     999900   -1    0    0    0    0 -0.00000000000E+00 -0.00000000000E+00 -0.74505805969E-08  0.93827000000E+00  0.93827000000E+00 0. -1.
     999902    2    1    2    0    0 -0.21420296873E-01  0.44706726411E-02 -0.17095574535E-02  0.10219814552E+01  0.10217457395E+01 0.  0.
     999903    2    3    3    0    0  0.21351212690E-01 -0.48599530355E-01 -0.11874913068E+00  0.13161966909E+00  0.20114487771E-01 0.  0.
         14    1    1    2    0    0  0.21420296873E-01 -0.44706726411E-02  0.17095574535E-02  0.21948544797E-01  0.00000000000E+00 0. -1.
     999901    1    3    3    0    0 -0.42771509563E-01  0.53070202996E-01  0.11703957323E+00  0.89036178612E+00  0.88000000000E+00 0.  1.
        -11    1    4    4    0    0  0.23538926189E-01 -0.31093834028E-01 -0.85536106426E-01  0.94008479321E-01  0.51100000000E-03 0.  1.
         11    1    4    4    0    0 -0.21877134998E-02 -0.17505696326E-01 -0.33213024258E-01  0.37611189765E-01  0.51100000000E-03 0. -1.
</event>
<event>
 8    1  0.1150307E+005  0.1043930E+01  0.7957747E-01            NaN
         13   -1    0    0    0    0  0.00000000000E+00  0.00000000000E+00  0.74505805969E-08  0.10566000000E+00  0.10566000000E+00 0.  1.
     999900   -1    0    0    0    0 -0.00000000000E+00 -0.00000000000E+00 -0.74505805969E-08  0.93827000000E+00  0.93827000000E+00 0. -1.
     999902    2    1    2    0    0 -0.10364761573E-01  0.14115451927E-01  0.16091691265E-01  0.10201473005E+01  0.10198700398E+01 0.  0.
     999903    2    3    3    0    0  0.16199826781E-01  0.18043176177E-01 -0.12462457491E+00  0.12856322042E+00  0.20229344486E-01 0.  0.
         14    1    1    2    0    0  0.10364761573E-01 -0.14115451927E-01 -0.16091691265E-01  0.23782699455E-01  0.00000000000E+00 0.  1.
     999901    1    3    3    0    0 -0.26564588354E-01 -0.39277242493E-02  0.14071626617E+00  0.89158408013E+00  0.88000000000E+00 0.  1.
        -11    1    4    4    0    0 -0.22002673733E-02  0.91725038529E-03 -0.44945640100E-01  0.45011711918E-01  0.51100000000E-03 0.  1.
         11    1    4    4    0    0  0.18400094154E-01  0.17125925791E-01 -0.79678934810E-01  0.83551508499E-01  0.51100000000E-03 0. -1.
</event>
<event>
 8    1  0.1150307E+005  0.1043930E+01  0.7957747E-01            NaN
         13   -1    0    0    0    0  0.00000000000E+00  0.00000000000E+00  0.74505805969E-08  0.10566000000E+00  0.10566000000E+00 0. -1.
     999900   -1    0    0    0    0 -0.00000000000E+00 -0.00000000000E+00 -0.74505805969E-08  0.93827000000E+00  0.93827000000E+00 0. -1.
     999902    2    1    2    0    0 -0.18475886978E-01  0.12047073138E-01 -0.95482467898E-02  0.10198954543E+01  0.10196122196E+01 0.  0.
     999903    2    3    3    0    0  0.12113008505E+00 -0.25187283060E-01 -0.25605006949E-01  0.12796830241E+00  0.20331584032E-01 0.  0.
         14    1    1    2    0    0  0.18475886978E-01 -0.12047073138E-01  0.95482467898E-02  0.24034545712E-01  0.00000000000E+00 0. -1.
     999901    1    3    3    0    0 -0.13960597203E+00  0.37234356198E-01  0.16056760159E-01  0.89192715188E+00  0.88000000000E+00 0.  1.
        -11    1    4    4    0    0  0.44222978562E-01 -0.15931668355E-01 -0.17174671872E-01  0.50047181383E-01  0.51100000000E-03 0. -1.
         11    1    4    4    0    0  0.76907106488E-01 -0.92556147048E-02 -0.84303350769E-02  0.77921121029E-01  0.51100000000E-03 0.  1.
</event>
<event>
 8    1  0.1150307E+005  0.1043930E+01  0.7957747E-01            NaN
         13   -1    0    0    0    0  0.00000000000E+00  0.00000000000E+00  0.74505805969E-08  0.10566000000E+00  0.10566000000E+00 0. -1.
     999900   -1    0    0    0    0 -0.00000000000E+00 -0.00000000000E+00 -0.74505805969E-08  0.93827000000E+00  0.93827000000E+00 0. -1.
     999902    2    1    2    0    0  0.47790028935E-02  0.84947105028E-02 -0.21698756177E-01  0.10201427136E+01  0.10198653446E+01 0.  0.
     999903    2    3    3    0    0  0.30284348065E-01  0.51094195549E-01  0.11243158009E+00  0.12859563919E+00  0.19189050562E-01 0.  0.
         14    1    1    2    0    0 -0.47790028935E-02 -0.84947105028E-02  0.21698756177E-01  0.23787286412E-01  0.00000000000E+00 0. -1.
     999901    1    3    3    0    0 -0.25505345171E-01 -0.42599485046E-01 -0.13413033627E+00  0.89154707440E+00  0.88000000000E+00 0. -1.
        -11    1    4    4    0    0  0.17838074511E-01  0.29189845727E-01  0.83451275328E-01  0.90192130869E-01  0.51100000000E-03 0.  1.
         11    1    4    4    0    0  0.12446273554E-01  0.21904349822E-01  0.28980304760E-01  0.38403508323E-01  0.51100000000E-03 0. -1.
</event>
<event>
 8    1  0.1150307E+005  0.1043930E+01  0.7957747E-01            NaN
         13   -1    0    0    0    0  0.00000000000E+00  0.00000000000E+00  0.74505805969E-08  0.10566000000E+00  0.10566000000E+00 0. -1.
     999900   -1    0    0    0    0 -0.00000000000E+00 -0.00000000000E+00 -0.74505805969E-08  0.93827000000E+00  0.93827000000E+00 0.  1.
     999902    2    1    2    0    0  0.95545913055E-02  0.97982172140E-02  0.18956069006E-01  0.10205499267E+01  0.10202820811E+01 0.  0.
     999903    2    3    3    0    0  0.26854092342E-01  0.11140429599E+00 -0.59703976868E-01  0.13104980258E+00  0.21850090659E-01 0.  0.
         14    1    1    2    0    0 -0.95545913055E-02 -0.97982172140E-02 -0.18956069006E-01  0.23380073305E-01  0.00000000000E+00 0.  1.
     999901    1    3    3    0    0 -0.17299501037E-01 -0.10160607878E+00  0.78660045874E-01  0.88950012411E+00  0.88000000000E+00 0. -1.
        -11    1    4    4    0    0 -0.27453701254E-02  0.19494289689E-01 -0.14361727966E-01  0.24373853588E-01  0.51100000000E-03 0.  1.
         11    1    4    4    0    0  0.29599462468E-01  0.91910006304E-01 -0.45342248902E-01  0.10667594899E+00  0.51100000000E-03 0. -1.
</event>
<event>
 8    1  0.1150307E+005  0.1043930E+01  0.7957747E-01            NaN
         13   -1    0    0    0    0  0.00000000000E+00  0.00000000000E+00  0.74505805969E-08  0.10566000000E+00  0.10566000000E+00 0. -1.
     999900   -1    0    0    0    0 -0.00000000000E+00 -0.00000000000E+00 -0.74505805969E-08  0.93827000000E+00  0.93827000000E+00 0.  1.
     999902    2    1    2    0    0 -0.23732975183E-01 -0.34572354497E-03  0.77607500886E-03  0.10201818226E+01  0.10199053757E+01 0.  0.
     999903    2    3    3    0    0 -0.26436225132E-01  0.43328096197E-01  0.11933055695E+00  0.13115433415E+00  0.19633635075E-01 0.  0.
         14    1    1    2    0    0  0.23732975183E-01  0.34572354497E-03 -0.77607500886E-03  0.23748177366E-01  0.00000000000E+00 0. -1.
     999901    1    3    3    0    0  0.27032499488E-02 -0.43673819742E-01 -0.11855448194E+00  0.88902748848E+00  0.88000000000E+00 0.  1.
        -11    1    4    4    0    0 -0.22278863273E-01  0.18029054484E-01  0.58747499680E-01  0.65367609670E-01  0.51100000000E-03 0.  1.
         11    1    4    4    0    0 -0.41573618589E-02  0.25299041713E-01  0.60583057265E-01  0.65786724480E-01  0.51100000000E-03 0. -1.
</event>
<event>
 8    1  0.1150307E+005  0.1043930E+01  0.7957747E-01            NaN
         13   -1    0    0    0    0  0.00000000000E+00  0.00000000000E+00  0.74505805969E-08  0.10566000000E+00  0.10566000000E+00 0. -1.
     999900   -1    0    0    0    0 -0.00000000000E+00 -0.00000000000E+00 -0.74505805969E-08  0.93827000000E+00  0.93827000000E+00 0.  1.
     999902    2    1    2    0    0  0.12013601316E-01 -0.20207033715E-02 -0.19689492785E-01  0.10207764693E+01  0.10205138481E+01 0.  0.
     999903    2    3    3    0    0  0.33138653400E-01  0.32510046939E-01  0.11866193729E+00  0.12904794627E+00  0.20436329769E-01 0.  0.
         14    1    1    2    0    0 -0.12013601316E-01  0.20207033715E-02  0.19689492785E-01  0.23153530720E-01  0.00000000000E+00 0. -1.
     999901    1    3    3    0    0 -0.21125052084E-01 -0.34530750310E-01 -0.13835143007E+00  0.89172852301E+00  0.88000000000E+00 0.  1.
        -11    1    4    4    0    0  0.26245127166E-01  0.11709042505E-01  0.70394674268E-01  0.76036699446E-01  0.51100000000E-03 0.  1.
         11    1    4    4    0    0  0.68935262335E-02  0.20801004433E-01  0.48267263022E-01  0.53011246826E-01  0.51100000000E-03 0. -1.
</event>
<event>
 8    1  0.1150307E+005  0.1043930E+01  0.7957747E-01            NaN
         13   -1    0    0    0    0  0.00000000000E+00  0.00000000000E+00  0.74505805969E-08  0.10566000000E+00  0.10566000000E+00 0.  1.
     999900   -1    0    0    0    0 -0.00000000000E+00 -0.00000000000E+00 -0.74505805969E-08  0.93827000000E+00  0.93827000000E+00 0. -1.
     999902    2    1    2    0    0  0.11118810503E-01 -0.13005785241E-01  0.15018882474E-01  0.10211628037E+01  0.10209089707E+01 0.  0.
     999903    2    3    3    0    0  0.32989645406E-01  0.12388594611E+00  0.12919049226E-01  0.13030810801E+00  0.19423100442E-01 0.  0.
         14    1    1    2    0    0 -0.11118810503E-01  0.13005785241E-01 -0.15018882474E-01  0.22767196303E-01  0.00000000000E+00 0. -1.
     999901    1    3    3    0    0 -0.21870834903E-01 -0.13689173136E+00  0.20998332479E-02  0.89085469569E+00  0.88000000000E+00 0.  1.
        -11    1    4    4    0    0  0.12748662724E-01  0.27563121008E-01  0.94882524538E-02  0.31820466631E-01  0.51100000000E-03 0.  1.
         11    1    4    4    0    0  0.20240982681E-01  0.96322825107E-01  0.34307967721E-02  0.98487641377E-01  0.51100000000E-03 0. -1.
</event>
<event>
 8    1  0.1150307E+005  0.1043930E+01  0.7957747E-01            NaN
         13   -1    0    0    0    0  0.00000000000E+00  0.00000000000E+00  0.74505805969E-08  0.10566000000E+00  0.10566000000E+00 0. -1.
     999900   -1    0    0    0    0 -0.00000000000E+00 -0.00000000000E+00 -0.74505805969E-08  0.93827000000E+00  0.93827000000E+00 0. -1.
     999902    2    1    2    0    0 -0.18910456329E-01  0.54693449762E-02  0.12343777296E-01  0.10206945114E+01  0.10204300062E+01 0.  0.
     999903    2    3    3    0    0 -0.47843105540E-01  0.58585088317E-01 -0.10503757689E+00  0.13084240981E+00  0.19122456040E-01 0.  0.
         14    1    1    2    0    0  0.18910456329E-01 -0.54693449762E-02 -0.12343777296E-01  0.23235488610E-01  0.00000000000E+00 0. -1.
     999901    1    3    3    0    0  0.28932649211E-01 -0.53115743340E-01  0.11738135418E+00  0.88985210158E+00  0.88000000000E+00 0.  1.
        -11    1    4    4    0    0 -0.32490932788E-01  0.42020819296E-01 -0.86998459968E-01  0.10193332686E+00  0.51100000000E-03 0. -1.
         11    1    4    4    0    0 -0.15352172752E-01  0.16564269021E-01 -0.18039116920E-01  0.28909082944E-01  0.51100000000E-03 0.  1.
</event>
<event>
 8    1  0.1150307E+005  0.1043930E+01  0.7957747E-01            NaN
         13   -1    0    0    0    0  0.00000000000E+00  0.00000000000E+00  0.74505805969E-08  0.10566000000E+00  0.10566000000E+00 0. -1.
     999900   -1    0    0    0    0 -0.00000000000E+00 -0.00000000000E+00 -0.74505805969E-08  0.93827000000E+00  0.93827000000E+00 0. -1.
     999902    2    1    2    0    0  0.23218776340E-01  0.11089916596E-02  0.47036629585E-02  0.10202136368E+01  0.10199379387E+01 0.  0.
     999903    2    3    3    0    0 -0.14232800960E-01 -0.12375541969E+00  0.35025439886E-01  0.13009389655E+00  0.13403878285E-01 0.  0.
         14    1    1    2    0    0 -0.23218776340E-01 -0.11089916596E-02 -0.47036629585E-02  0.23716363179E-01  0.00000000000E+00 0.  1.
     999901    1    3    3    0    0  0.37451577300E-01  0.12486441135E+00 -0.30321776928E-01  0.89011974027E+00  0.88000000000E+00 0.  1.
        -11    1    4    4    0    0 -0.25011878449E-02 -0.58478311999E-01  0.21809747873E-01  0.62465151390E-01  0.51100000000E-03 0. -1.
         11    1    4    4    0    0 -0.11731613115E-01 -0.65277107696E-01  0.13215692014E-01  0.67628745159E-01  0.51100000000E-03 0.  1.
</event>
<event>
 8    1  0.1150307E+005  0.1043930E+01  0.7957747E-01            NaN
         13   -1    0    0    0    0  0.00000000000E+00  0.00000000000E+00  0.74505805969E-08  0.10566000000E+00  0.10566000000E+00 0.  1.
     999900   -1    0    0    0    0 -0.00000000000E+00 -0.00000000000E+00 -0.74505805969E-08  0.93827000000E+00  0.93827000000E+00 0.  1.
     999902    2    1    2    0    0  0.15544278955E-01 -0.34046536206E-02 -0.18107867470E-01  0.10198237531E+01  0.10195388057E+01 0.  0.
     999903    2    3    3    0    0 -0.10145465047E+00 -0.70725749839E-01 -0.32539137080E-01  0.12941421755E+00  0.19851107512E-01 0.  0.
         14    1    1    2    0    0 -0.15544278955E-01  0.34046536206E-02  0.18107867470E-01  0.24106246884E-01  0.00000000000E+00 0.  1.
     999901    1    3    3    0    0  0.11699892943E+00  0.67321096218E-01  0.14431269610E-01  0.89040953557E+00  0.88000000000E+00 0. -1.
        -11    1    4    4    0    0 -0.63229177004E-01 -0.42487240180E-01 -0.10067804665E-01  0.76842151287E-01  0.51100000000E-03 0. -1.
         11    1    4    4    0    0 -0.38225473470E-01 -0.28238509658E-01 -0.22471332415E-01  0.52572066263E-01  0.51100000000E-03 0.  1.
</event>
<event>
 8    1  0.1150307E+005  0.1043930E+01  0.7957747E-01            NaN
         13   -1    0    0    0    0  0.00000000000E+00  0.00000000000E+00  0.74505805969E-08  0.10566000000E+00  0.10566000000E+00 0.  1.
     999900   -1    0    0    0    0 -0.00000000000E+00 -0.00000000000E+00 -0.74505805969E-08  0.93827000000E+00  0.93827000000E+00 0.  1.
     999902    2    1    2    0    0 -0.15903442529E-01 -0.15678884393E-01  0.79474736182E-02  0.10202253752E+01  0.10199499532E+01 0.  0.
     999903    2    3    3    0    0 -0.10630773593E+00  0.31775209834E-01  0.69418579214E-01  0.13219185998E+00  0.18567445371E-01 0.  0.
         14    1    1    2    0    0  0.15903442529E-01  0.15678884393E-01 -0.79474736182E-02  0.23704624802E-01  0.00000000000E+00 0.  1.
     999901    1    3    3    0    0  0.90404293398E-01 -0.47454094227E-01 -0.61471105595E-01  0.88803351522E+00  0.88000000000E+00 0. -1.
        -11    1    4    4    0    0 -0.37760981644E-01  0.14936858522E-01  0.35225453341E-01  0.53759605293E-01  0.51100000000E-03 0.  1.
         11    1    4    4    0    0 -0.68546754283E-01  0.16838351312E-01  0.34193125873E-01  0.78432254689E-01  0.51100000000E-03 0. -1.
</event>
<event>
 8    1  0.1150307E+005  0.1043930E+01  0.7957747E-01            NaN
         13   -1    0    0    0    0  0.00000000000E+00  0.00000000000E+00  0.74505805969E-08  0.10566000000E+00  0.10566000000E+00 0.  1.
     999900   -1    0    0    0    0 -0.00000000000E+00 -0.00000000000E+00 -0.74505805969E-08  0.93827000000E+00  0.93827000000E+00 0.  1.
     999902    2    1    2    0    0 -0.73267789014E-02 -0.20869488912E-01 -0.81086602634E-02  0.10203722491E+01  0.10201002691E+01 0.  0.
     999903    2    3    3    0    0  0.46793679712E-01 -0.12119320059E+00 -0.20186468411E-01  0.13293788836E+00  0.19686247061E-01 0.  0.
         14    1    1    2    0    0  0.73267789014E-02  0.20869488912E-01  0.81086602634E-02  0.23557750906E-01  0.00000000000E+00 0.  1.
     999901    1    3    3    0    0 -0.54120458614E-01  0.10032371168E+00  0.12077808148E-01  0.88743436074E+00  0.88000000000E+00 0. -1.
        -11    1    4    4    0    0  0.19879155037E-01 -0.71221316149E-01 -0.18149155075E-01  0.76140065865E-01  0.51100000000E-03 0. -1.
         11    1    4    4    0    0  0.26914524675E-01 -0.49971884442E-01 -0.20373133360E-02  0.56797822492E-01  0.51100000000E-03 0.  1.
</event>
<event>
 8    1  0.1150307E+005  0.1043930E+01  0.7957747E-01            NaN
         13   -1    0    0    0    0  0.00000000000E+00  0.00000000000E+00  0.74505805969E-08  0.10566000000E+00  0.10566000000E+00 0.  1.
     999900   -1    0    0    0    0 -0.00000000000E+00 -0.00000000000E+00 -0.74505805969E-08  0.93827000000E+00  0.93827000000E+00 0. -1.
     999902    2    1    2    0    0 -0.22262653968E-01 -0.43445427768E-02 -0.42670657384E-02  0.10208495177E+01  0.10205885699E+01 0.  0.
     999903    2    3    3    0    0 -0.55456945368E-01  0.72260675952E-01 -0.92752204730E-01  0.13248031497E+00  0.25514393855E-01 0.  0.
         14    1    1    2    0    0  0.22262653968E-01  0.43445427768E-02  0.42670657384E-02  0.23080482310E-01  0.00000000000E+00 0. -1.
     999901    1    3    3    0    0  0.33194291400E-01 -0.76605218729E-01  0.88485138992E-01  0.88836920272E+00  0.88000000000E+00 0.  1.
        -11    1    4    4    0    0 -0.40033784576E-01  0.50395731013E-01 -0.47826981854E-01  0.80187997394E-01  0.51100000000E-03 0. -1.
         11    1    4    4    0    0 -0.15423160792E-01  0.21864944939E-01 -0.44925222877E-01  0.52292317576E-01  0.51100000000E-03 0.  1.
</event>
<event>
 8    1  0.1150307E+005  0.1043930E+01  0.7957747E-01            NaN
         13   -1    0    0    0    0  0.00000000000E+00  0.00000000000E+00  0.74505805969E-08  0.10566000000E+00  0.10566000000E+00 0. -1.
     999900   -1    0    0    0    0 -0.00000000000E+00 -0.00000000000E+00 -0.74505805969E-08  0.93827000000E+00  0.93827000000E+00 0.  1.
     999902    2    1    2    0    0  0.32469528237E-02 -0.20599061893E-01  0.10684926227E-01  0.10204985745E+01  0.10202295373E+01 0.  0.
     999903    2    3    3    0    0  0.87556432175E-01  0.78584655341E-01  0.52256108782E-01  0.12995174174E+00  0.17750419912E-01 0.  0.
         14    1    1    2    0    0 -0.32469528237E-02  0.20599061893E-01 -0.10684926227E-01  0.23431425522E-01  0.00000000000E+00 0.  1.
     999901    1    3    3    0    0 -0.84309479352E-01 -0.99183717234E-01 -0.41571182555E-01  0.89054683273E+00  0.88000000000E+00 0.  1.
        -11    1    4    4    0    0  0.67913928599E-01  0.63634728767E-01  0.33386063836E-01  0.98876543135E-01  0.51100000000E-03 0.  1.
         11    1    4    4    0    0  0.19642503577E-01  0.14949926575E-01  0.18870044946E-01  0.31075198610E-01  0.51100000000E-03 0. -1.
</event>
<event>
 8    1  0.1150307E+005  0.1043930E+01  0.7957747E-01            NaN
         13   -1    0    0    0    0  0.00000000000E+00  0.00000000000E+00  0.74505805969E-08  0.10566000000E+00  0.10566000000E+00 0. -1.
     999900   -1    0    0    0    0 -0.00000000000E+00 -0.00000000000E+00 -0.74505805969E-08  0.93827000000E+00  0.93827000000E+00 0.  1.
     999902    2    1    2    0    0  0.14788160767E-01 -0.15187430248E-01  0.69774900345E-02  0.10216133447E+01  0.10213695673E+01 0.  0.
     999903    2    3    3    0    0 -0.86042295295E-01  0.76741543923E-01  0.56084893628E-01  0.12974493835E+00  0.19892023306E-01 0.  0.
         14    1    1    2    0    0 -0.14788160767E-01  0.15187430248E-01 -0.69774900345E-02  0.22316655296E-01  0.00000000000E+00 0. -1.
     999901    1    3    3    0    0  0.10083045606E+00 -0.91928974170E-01 -0.49107403594E-01  0.89186840635E+00  0.88000000000E+00 0. -1.
        -11    1    4    4    0    0 -0.21032858472E-01  0.20734245867E-01  0.52323024001E-02  0.29998803252E-01  0.51100000000E-03 0.  1.
         11    1    4    4    0    0 -0.65009436824E-01  0.56007298056E-01  0.50852591228E-01  0.99746135099E-01  0.51100000000E-03 0. -1.
</event>
<event>
 8    1  0.1150307E+005  0.1043930E+01  0.7957747E-01            NaN
         13   -1    0    0    0    0  0.00000000000E+00  0.00000000000E+00  0.74505805969E-08  0.10566000000E+00  0.10566000000E+00 0. -1.
     999900   -1    0    0    0    0 -0.00000000000E+00 -0.00000000000E+00 -0.74505805969E-08  0.93827000000E+00  0.93827000000E+00 0. -1.
     999902    2    1    2    0    0  0.11055607703E-01  0.20012484221E-01 -0.70487432054E-02  0.10200048925E+01  0.10197242618E+01 0.  0.
     999903    2    3    3    0    0  0.69159129707E-01  0.16890724552E-01 -0.10952358704E+00  0.13214969135E+00  0.19996074807E-01 0.  0.
         14    1    1    2    0    0 -0.11055607703E-01 -0.20012484221E-01  0.70487432054E-02  0.23925107464E-01  0.00000000000E+00 0. -1.
     999901    1    3    3    0    0 -0.58103522004E-01  0.31217596686E-02  0.10247484384E+00  0.88785520119E+00  0.88000000000E+00 0.  1.
        -11    1    4    4    0    0  0.31896073466E-01  0.17313631374E-04 -0.59654984839E-01  0.67648637381E-01  0.51100000000E-03 0. -1.
         11    1    4    4    0    0  0.37263056241E-01  0.16873410921E-01 -0.49868602204E-01  0.64501053970E-01  0.51100000000E-03 0.  1.
</event>
<event>
 8    1  0.1150307E+005  0.1043930E+01  0.7957747E-01            NaN
         13   -1    0    0    0    0  0.00000000000E+00  0.00000000000E+00  0.74505805969E-08  0.10566000000E+00  0.10566000000E+00 0. -1.
     999900   -1    0    0    0    0 -0.00000000000E+00 -0.00000000000E+00 -0.74505805969E-08  0.93827000000E+00  0.93827000000E+00 0.  1.
     999902    2    1    2    0    0  0.13755356195E-01  0.62579632915E-03  0.19066923002E-01  0.10204108802E+01  0.10201398019E+01 0.  0.
     999903    2    3    3    0    0  0.70090142107E-01 -0.25982840071E-01 -0.10399514466E+00  0.12966630391E+00  0.20263865771E-01 0.  0.
         14    1    1    2    0    0 -0.13755356195E-01 -0.62579632915E-03 -0.19066923002E-01  0.23519119837E-01  0.00000000000E+00 0.  1.
     999901    1    3    3    0    0 -0.56334785911E-01  0.26608636400E-01  0.12306206767E+00  0.89074457626E+00  0.88000000000E+00 0.  1.
        -11    1    4    4    0    0  0.54697128833E-01 -0.15261491387E-01 -0.64483839001E-01  0.85925058250E-01  0.51100000000E-03 0.  1.
         11    1    4    4    0    0  0.15393013273E-01 -0.10721348685E-01 -0.39511305664E-01  0.43741245656E-01  0.51100000000E-03 0. -1.
</event>
<event>
 8    1  0.1150307E+005  0.1043930E+01  0.7957747E-01            NaN
         13   -1    0    0    0    0  0.00000000000E+00  0.00000000000E+00  0.74505805969E-08  0.10566000000E+00  0.10566000000E+00 0. -1.
     999900   -1    0    0    0    0 -0.00000000000E+00 -0.00000000000E+00 -0.74505805969E-08  0.93827000000E+00  0.93827000000E+00 0. -1.
     999902    2    1    2    0    0  0.53653988991E-03  0.15256126275E-03 -0.23613181989E-01  0.10203102304E+01  0.10200367998E+01 0.  0.
     999903    2    3    3    0    0 -0.84864950660E-01  0.92126124643E-01  0.26285734279E-01  0.13000553385E+00  0.22830162319E-01 0.  0.
         14    1    1    2    0    0 -0.53653988991E-03 -0.15256126275E-03  0.23613181989E-01  0.23619769551E-01  0.00000000000E+00 0. -1.
     999901    1    3    3    0    0  0.85401490550E-01 -0.91973563380E-01 -0.49898916268E-01  0.89030469660E+00  0.88000000000E+00 0.  1.
        -11    1    4    4    0    0 -0.66817510750E-01  0.83027494251E-01  0.26361464656E-01  0.10978767000E+00  0.51100000000E-03 0.  1.
         11    1    4    4    0    0 -0.18047439911E-01  0.90986303916E-02 -0.75730377503E-04  0.20217863844E-01  0.51100000000E-03 0. -1.
</event>
<event>
 8    1  0.1150307E+005  0.1043930E+01  0.7957747E-01            NaN
         13   -1    0    0    0    0  0.00000000000E+00  0.00000000000E+00  0.74505805969E-08  0.10566000000E+00  0.10566000000E+00 0.  1.
     999900   -1    0    0    0    0 -0.00000000000E+00 -0.00000000000E+00 -0.74505805969E-08  0.93827000000E+00  0.93827000000E+00 0. -1.
     999902    2    1    2    0    0  0.10378459856E-01  0.14388438347E-01 -0.14255780484E-01  0.10211711146E+01  0.10209174690E+01 0.  0.
     999903    2    3    3    0    0 -0.11166982516E+00 -0.13839806546E-01 -0.63908506045E-01  0.13091384233E+00  0.19810271933E-01 0.  0.
         14    1    1    2    0    0 -0.10378459856E-01 -0.14388438347E-01  0.14255780484E-01  0.22758885391E-01  0.00000000000E+00 0.  1.
     999901    1    3    3    0    0  0.12204828501E+00  0.28228244893E-01  0.49652725562E-01  0.89025727228E+00  0.88000000000E+00 0.  1.
        -11    1    4    4    0    0 -0.15115073111E-01 -0.72128321559E-02 -0.14933998387E-01  0.22444950695E-01  0.51100000000E-03 0.  1.
         11    1    4    4    0    0 -0.96554752045E-01 -0.66269743905E-02 -0.48974507658E-01  0.10846889164E+00  0.51100000000E-03 0. -1.
</event>
<event>
 8    1  0.1150307E+005  0.1043930E+01  0.7957747E-01            NaN
         13   -1    0    0    0    0  0.00000000000E+00  0.00000000000E+00  0.74505805969E-08  0.10566000000E+00  0.10566000000E+00 0. -1.
     999900   -1    0    0    0    0 -0.00000000000E+00 -0.00000000000E+00 -0.74505805969E-08  0.93827000000E+00  0.93827000000E+00 0.  1.
     999902    2    1    2    0    0  0.16507448812E-01  0.11564440373E-01  0.11585165009E-01  0.10206824583E+01  0.10204176755E+01 0.  0.
     999903    2    3    3    0    0  0.61010401275E-01 -0.83792336996E-01 -0.76038075620E-01  0.13009205857E+00  0.19968223666E-01 0.  0.
         14    1    1    2    0    0 -0.16507448812E-01 -0.11564440373E-01 -0.11585165009E-01  0.23247541713E-01  0.00000000000E+00 0.  1.
     999901    1    3    3    0    0 -0.44502952462E-01  0.95356777369E-01  0.87623240628E-01  0.89059039972E+00  0.88000000000E+00 0. -1.
        -11    1    4    4    0    0  0.26613329270E-01 -0.25911522100E-01 -0.18377789757E-01  0.41444909817E-01  0.51100000000E-03 0. -1.
         11    1    4    4    0    0  0.34397072005E-01 -0.57880814896E-01 -0.57660285862E-01  0.88647148754E-01  0.51100000000E-03 0.  1.
</event>
<event>
 8    1  0.1417462E+005  0.1043930E+01  0.7957747E-01            NaN
         13   -1    0    0    0    0  0.00000000000E+00  0.00000000000E+00  0.74505805969E-08  0.10566000000E+00  0.10566000000E+00 0.  1.
     999900   -1    0    0    0    0 -0.00000000000E+00 -0.00000000000E+00 -0.74505805969E-08  0.93827000000E+00  0.93827000000E+00 0. -1.
     999902    2    1    2    0    0 -0.20444880601E-01 -0.50309961224E-02 -0.11819297658E-01  0.10197846099E+01  0.10194987252E+01 0.  0.
     999903    2    3    3    0    0  0.76349524929E-01 -0.96342035827E-01 -0.35256466017E-01  0.12947221319E+00  0.20223693256E-01 0.  0.
         14    1    1    2    0    0  0.20444880601E-01  0.50309961224E-02  0.11819297658E-01  0.24145390075E-01  0.00000000000E+00 0.  1.
     999901    1    3    3    0    0 -0.96794405529E-01  0.91311039705E-01  0.23437168359E-01  0.89031239673E+00  0.88000000000E+00 0.  1.
        -11    1    4    4    0    0  0.32869790162E-01 -0.56992765773E-01 -0.21717335999E-01  0.69285656955E-01  0.51100000000E-03 0. -1.
         11    1    4    4    0    0  0.43479734766E-01 -0.39349270054E-01 -0.13539130018E-01  0.60186556238E-01  0.51100000000E-03 0.  1.
</event>
<event>
 8    1  0.1150307E+005  0.1043930E+01  0.7957747E-01            NaN
         13   -1    0    0    0    0  0.00000000000E+00  0.00000000000E+00  0.74505805969E-08  0.10566000000E+00  0.10566000000E+00 0. -1.
     999900   -1    0    0    0    0 -0.00000000000E+00 -0.00000000000E+00 -0.74505805969E-08  0.93827000000E+00  0.93827000000E+00 0.  1.
     999902    2    1    2    0    0  0.13210026278E-01  0.16041772208E-01 -0.90331651484E-02  0.10212707564E+01  0.10210193517E+01 0.  0.
     999903    2    3    3    0    0 -0.10507625993E+00 -0.66174000600E-01  0.27640523083E-01  0.12880448909E+00  0.20163807605E-01 0.  0.
         14    1    1    2    0    0 -0.13210026278E-01 -0.16041772208E-01  0.90331651484E-02  0.22659243642E-01  0.00000000000E+00 0.  1.
     999901    1    3    3    0    0  0.11828628621E+00  0.82215772808E-01 -0.36673688231E-01  0.89246626727E+00  0.88000000000E+00 0.  1.
        -11    1    4    4    0    0 -0.76128342635E-02 -0.40932502363E-02  0.76036485804E-02  0.11523304029E-01  0.51100000000E-03 0.  1.
         11    1    4    4    0    0 -0.97463425666E-01 -0.62080750363E-01  0.20036874502E-01  0.11728118506E+00  0.51100000000E-03 0. -1.
</event>
<event>
 8    1  0.1150307E+005  0.1043930E+01  0.7957747E-01            NaN
         13   -1    0    0    0    0  0.00000000000E+00  0.00000000000E+00  0.74505805969E-08  0.10566000000E+00  0.10566000000E+00 0.  1.
     999900   -1    0    0    0    0 -0.00000000000E+00 -0.00000000000E+00 -0.74505805969E-08  0.93827000000E+00  0.93827000000E+00 0. -1.
     999902    2    1    2    0    0  0.13116673065E-01  0.84052191063E-02 -0.13919955245E-01  0.10230383755E+01  0.10228250377E+01 0.  0.
     999903    2    3    3    0    0  0.31188555079E-01 -0.12597000162E+00  0.15148118428E-01  0.13218022417E+00  0.20024457382E-01 0.  0.
         14    1    1    2    0    0 -0.13116673065E-01 -0.84052191063E-02  0.13919955245E-01  0.20891624507E-01  0.00000000000E+00 0.  1.
     999901    1    3    3    0    0 -0.18071882015E-01  0.13437522073E+00 -0.29068073673E-01  0.89085815132E+00  0.88000000000E+00 0. -1.
        -11    1    4    4    0    0  0.18601129970E-01 -0.49050305760E-01  0.13706693818E-01  0.54222404113E-01  0.51100000000E-03 0.  1.
         11    1    4    4    0    0  0.12587425109E-01 -0.76919695864E-01  0.14414246096E-02  0.77957820061E-01  0.51100000000E-03 0. -1.
</event>
<event>
 8    1  0.1150307E+005  0.1043930E+01  0.7957747E-01            NaN
         13   -1    0    0    0    0  0.00000000000E+00  0.00000000000E+00  0.74505805969E-08  0.10566000000E+00  0.10566000000E+00 0. -1.
     999900   -1    0    0    0    0 -0.00000000000E+00 -0.00000000000E+00 -0.74505805969E-08  0.93827000000E+00  0.93827000000E+00 0. -1.
     999902    2    1    2    0    0  0.21465723648E-01  0.82934032899E-02  0.65286227576E-02  0.10200097001E+01  0.10197291835E+01 0.  0.
     999903    2    3    3    0    0 -0.20141296074E-01 -0.24922536296E-01  0.12500563131E+00  0.13047541509E+00  0.19251531427E-01 0.  0.
         14    1    1    2    0    0 -0.21465723648E-01 -0.82934032899E-02 -0.65286227576E-02  0.23920299851E-01  0.00000000000E+00 0.  1.
     999901    1    3    3    0    0  0.41607019722E-01  0.33215939586E-01 -0.11847700855E+00  0.88953428505E+00  0.88000000000E+00 0. -1.
        -11    1    4    4    0    0 -0.18010894857E-01 -0.11649545620E-01  0.52204323129E-01  0.56441622240E-01  0.51100000000E-03 0.  1.
         11    1    4    4    0    0 -0.21304012175E-02 -0.13272990676E-01  0.72801308179E-01  0.74033792854E-01  0.51100000000E-03 0. -1.
</event>
<event>
 8    1  0.1150307E+005  0.1043930E+01  0.7957747E-01            NaN
         13   -1    0    0    0    0  0.00000000000E+00  0.00000000000E+00  0.74505805969E-08  0.10566000000E+00  0.10566000000E+00 0. -1.
     999900   -1    0    0    0    0 -0.00000000000E+00 -0.00000000000E+00 -0.74505805969E-08  0.93827000000E+00  0.93827000000E+00 0.  1.
     999902    2    1    2    0    0 -0.20366232929E-01 -0.12353035796E-01 -0.68787163377E-02  0.10191369027E+01  0.10188352805E+01 0.  0.
     999903    2    3    3    0    0  0.19064394437E-01 -0.12221548392E+00 -0.37700660578E-01  0.13089452351E+00  0.20296818278E-01 0.  0.
         14    1    1    2    0    0  0.20366232929E-01  0.12353035796E-01  0.68787163377E-02  0.24793097337E-01  0.00000000000E+00 0. -1.
     999901    1    3    3    0    0 -0.39430627366E-01  0.10986244812E+00  0.30821944240E-01  0.88824237916E+00  0.88000000000E+00 0.  1.
        -11    1    4    4    0    0  0.11409955742E-01 -0.22952281715E-01 -0.51494422878E-02  0.26149038278E-01  0.51100000000E-03 0.  1.
         11    1    4    4    0    0  0.76544386946E-02 -0.99263202201E-01 -0.32551218290E-01  0.10474548523E+00  0.51100000000E-03 0. -1.
</event>
<event>
 8    1  0.1150307E+005  0.1043930E+01  0.7957747E-01            NaN
         13   -1    0    0    0    0  0.00000000000E+00  0.00000000000E+00  0.74505805969E-08  0.10566000000E+00  0.10566000000E+00 0. -1.
     999900   -1    0    0    0    0 -0.00000000000E+00 -0.00000000000E+00 -0.74505805969E-08  0.93827000000E+00  0.93827000000E+00 0.  1.
     999902    2    1    2    0    0  0.62055227394E-02  0.20755271832E-01 -0.85243960557E-02  0.10206500698E+01  0.10203845402E+01 0.  0.
     999903    2    3    3    0    0 -0.11347572488E+00  0.91305918407E-02  0.59334156228E-01  0.12988437821E+00  0.19730731495E-01 0.  0.
         14    1    1    2    0    0 -0.62055227394E-02 -0.20755271832E-01  0.85243960557E-02  0.23279930185E-01  0.00000000000E+00 0.  1.
     999901    1    3    3    0    0  0.11968124762E+00  0.11624679991E-01 -0.67858552283E-01  0.89076569160E+00  0.88000000000E+00 0. -1.
        -11    1    4    4    0    0 -0.29964977533E-01  0.10691621535E-01  0.13053654435E-01  0.34392872295E-01  0.51100000000E-03 0. -1.
         11    1    4    4    0    0 -0.83510747343E-01 -0.15610296942E-02  0.46280501793E-01  0.95491505919E-01  0.51100000000E-03 0.  1.
</event>
<event>
 8    1  0.1150307E+005  0.1043930E+01  0.7957747E-01            NaN
         13   -1    0    0    0    0  0.00000000000E+00  0.00000000000E+00  0.74505805969E-08  0.10566000000E+00  0.10566000000E+00 0.  1.
     999900   -1    0    0    0    0 -0.00000000000E+00 -0.00000000000E+00 -0.74505805969E-08  0.93827000000E+00  0.93827000000E+00 0. -1.
     999902    2    1    2    0    0 -0.13518601582E-01  0.19297815798E-01 -0.15555916533E-02  0.10203169073E+01  0.10200436329E+01 0.  0.
     999903    2    3    3    0    0  0.83101269008E-01  0.38959034792E-01 -0.90406360346E-01  0.13036386242E+00  0.19944907400E-01 0.  0.
         14    1    1    2    0    0  0.13518601582E-01 -0.19297815798E-01  0.15555916533E-02  0.23613092739E-01  0.00000000000E+00 0.  1.
     999901    1    3    3    0    0 -0.96619870591E-01 -0.19661218994E-01  0.88850768693E-01  0.88995304484E+00  0.88000000000E+00 0.  1.
        -11    1    4    4    0    0  0.24253237501E-01  0.21767524613E-01 -0.32651315360E-01  0.46134739327E-01  0.51100000000E-03 0.  1.
         11    1    4    4    0    0  0.58848031508E-01  0.17191510179E-01 -0.57755044986E-01  0.84229123092E-01  0.51100000000E-03 0. -1.
</event>
<event>
 7    1  0.1150307E+005  0.1043930E+01  0.7957747E-01            NaN
         13   -1    0    0    0    0  0.00000000000E+00  0.00000000000E+00  0.74505805969E-08  0.10566000000E+00  0.10566000000E+00 0.  1.
     999900   -1    0    0    0    0 -0.00000000000E+00 -0.00000000000E+00 -0.74505805969E-08  0.93827000000E+00  0.93827000000E+00 0.  1.
     999903    2    1    2    0    0 -0.85537298028E-01 -0.67520535384E-01  0.47824142103E-02  0.11121694057E+00  0.21695260572E-01 0.  0.
         14    1    1    2    0    0 -0.23539616807E-01  0.15998591563E-02  0.35493662302E-01  0.42620102913E-01  0.00000000000E+00 0.  1.
     999901    1    1    2    0    0  0.10907691483E+00  0.65920676227E-01 -0.40276076513E-01  0.89009295652E+00  0.88000000000E+00 0.  1.
        -11    1    3    3    0    0 -0.21179116073E-01 -0.15467164451E-01 -0.80823674277E-02  0.27447657787E-01  0.51100000000E-03 0.  1.
         11    1    3    3    0    0 -0.64358181955E-01 -0.52053370933E-01  0.12864781638E-01  0.83769282781E-01  0.51100000000E-03 0. -1.
</event>
<event>
 8    1  0.1448228E+005  0.1043930E+01  0.7957747E-01            NaN
         13   -1    0    0    0    0  0.00000000000E+00  0.00000000000E+00  0.74505805969E-08  0.10566000000E+00  0.10566000000E+00 0.  1.
     999900   -1    0    0    0    0 -0.00000000000E+00 -0.00000000000E+00 -0.74505805969E-08  0.93827000000E+00  0.93827000000E+00 0. -1.
     999902    2    1    2    0    0  0.22376607882E-01  0.97138798213E-03  0.91970875925E-02  0.10197175529E+01  0.10194300589E+01 0.  0.
     999903    2    3    3    0    0  0.86601153847E-01 -0.45343271629E-01 -0.85144315695E-01  0.13113995899E+00  0.19808135192E-01 0.  0.
         14    1    1    2    0    0 -0.22376607882E-01 -0.97138798213E-03 -0.91970875925E-02  0.24212447111E-01  0.00000000000E+00 0. -1.
     999901    1    3    3    0    0 -0.64224545965E-01  0.46314659611E-01  0.94341403288E-01  0.88857759390E+00  0.88000000000E+00 0.  1.
        -11    1    4    4    0    0  0.42395056941E-01 -0.33317957969E-01 -0.46444236993E-01  0.71167095256E-01  0.51100000000E-03 0.  1.
         11    1    4    4    0    0  0.44206096906E-01 -0.12025313660E-01 -0.38700078702E-01  0.59972863737E-01  0.51100000000E-03 0. -1.
</event>
<event>
 8    1  0.1150307E+005  0.1043930E+01  0.7957747E-01            NaN
         13   -1    0    0    0    0  0.00000000000E+00  0.00000000000E+00  0.74505805969E-08  0.10566000000E+00  0.10566000000E+00 0. -1.
     999900   -1    0    0    0    0 -0.00000000000E+00 -0.00000000000E+00 -0.74505805969E-08  0.93827000000E+00  0.93827000000E+00 0.  1.
     999902    2    1    2    0    0  0.13603369791E-01 -0.19756107236E-01 -0.32267096728E-02  0.10197273741E+01  0.10194401162E+01 0.  0.
     999903    2    3    3    0    0  0.12830080145E+00  0.16636571849E-01  0.97530390311E-02  0.13144340953E+00  0.21080250565E-01 0.  0.
         14    1    1    2    0    0 -0.13603369791E-01  0.19756107236E-01  0.32267096728E-02  0.24202625851E-01  0.00000000000E+00 0.  1.
     999901    1    3    3    0    0 -0.11469743166E+00 -0.36392679085E-01 -0.12979748704E-01  0.88828396462E+00  0.88000000000E+00 0.  1.
        -11    1    4    4    0    0  0.33287440557E-01  0.11362416265E-03 -0.56893481480E-02  0.33774197439E-01  0.51100000000E-03 0.  1.
         11    1    4    4    0    0  0.95013360890E-01  0.16522947686E-01  0.15442387179E-01  0.97669212092E-01  0.51100000000E-03 0. -1.
</event>
<event>
 8    1  0.1150307E+005  0.1043930E+01  0.7957747E-01            NaN
         13   -1    0    0    0    0  0.00000000000E+00  0.00000000000E+00  0.74505805969E-08  0.10566000000E+00  0.10566000000E+00 0. -1.
     999900   -1    0    0    0    0 -0.00000000000E+00 -0.00000000000E+00 -0.74505805969E-08  0.93827000000E+00  0.93827000000E+00 0. -1.
     999902    2    1    2    0    0  0.15110371465E-01  0.98783338503E-02 -0.15621370152E-01  0.10200567511E+01  0.10197773500E+01 0.  0.
     999903    2    3    3    0    0 -0.61100661310E-02 -0.12697036593E+00  0.72479330733E-02  0.12893337100E+00  0.20309477884E-01 0.  0.
         14    1    1    2    0    0 -0.15110371465E-01 -0.98783338503E-02  0.15621370152E-01  0.23873248855E-01  0.00000000000E+00 0. -1.
     999901    1    3    3    0    0  0.21220437596E-01  0.13684869978E+00 -0.22869303225E-01  0.89112338014E+00  0.88000000000E+00 0. -1.
        -11    1    4    4    0    0  0.62419952913E-02 -0.49560809893E-01  0.76787018483E-02  0.50541665638E-01  0.51100000000E-03 0. -1.
         11    1    4    4    0    0 -0.12352061422E-01 -0.77409556038E-01 -0.43076877496E-03  0.78391705366E-01  0.51100000000E-03 0.  1.
</event>
<event>
 8    1  0.1150307E+005  0.1043930E+01  0.7957747E-01            NaN
         13   -1    0    0    0    0  0.00000000000E+00  0.00000000000E+00  0.74505805969E-08  0.10566000000E+00  0.10566000000E+00 0.  1.
     999900   -1    0    0    0    0 -0.00000000000E+00 -0.00000000000E+00 -0.74505805969E-08  0.93827000000E+00  0.93827000000E+00 0.  1.
     999902    2    1    2    0    0 -0.12762924338E-01  0.17864370181E-01  0.83150910000E-02  0.10204530177E+01  0.10201829212E+01 0.  0.
     999903    2    3    3    0    0 -0.98660972958E-02 -0.11720168438E+00  0.47204971395E-01  0.12929441593E+00  0.25596131937E-01 0.  0.
         14    1    1    2    0    0  0.12762924338E-01 -0.17864370181E-01 -0.83150910000E-02  0.23476982301E-01  0.00000000000E+00 0. -1.
     999901    1    3    3    0    0 -0.28968270426E-02  0.13506605456E+00 -0.38889880395E-01  0.89115860176E+00  0.88000000000E+00 0.  1.
        -11    1    4    4    0    0  0.67532826436E-02 -0.66761633508E-01  0.29600195815E-01  0.73342724577E-01  0.51100000000E-03 0. -1.
         11    1    4    4    0    0 -0.16619379939E-01 -0.50440050872E-01  0.17604775580E-01  0.55951691358E-01  0.51100000000E-03 0.  1.
</event>
<event>
 8    1  0.1150307E+005  0.1043930E+01  0.7957747E-01            NaN
         13   -1    0    0    0    0  0.00000000000E+00  0.00000000000E+00  0.74505805969E-08  0.10566000000E+00  0.10566000000E+00 0. -1.
     999900   -1    0    0    0    0 -0.00000000000E+00 -0.00000000000E+00 -0.74505805969E-08  0.93827000000E+00  0.93827000000E+00 0. -1.
     999902    2    1    2    0    0  0.21741959327E-01 -0.58311276065E-02 -0.78712126540E-02  0.10200831798E+01  0.10198044042E+01 0.  0.
     999903    2    3    3    0    0 -0.50104603268E-01 -0.66795383316E-01 -0.98260366853E-01  0.13044911559E+00  0.19742785060E-01 0.  0.
         14    1    1    2    0    0 -0.21741959327E-01  0.58311276065E-02  0.78712126540E-02  0.23846820191E-01  0.00000000000E+00 0.  1.
     999901    1    3    3    0    0  0.71846562595E-01  0.60964255710E-01  0.90389154199E-01  0.88963406422E+00  0.88000000000E+00 0.  1.
        -11    1    4    4    0    0 -0.32615081408E-01 -0.50158018845E-01 -0.56960314251E-01  0.82609375438E-01  0.51100000000E-03 0. -1.
         11    1    4    4    0    0 -0.17489521860E-01 -0.16637364471E-01 -0.41300052602E-01  0.47839740147E-01  0.51100000000E-03 0.  1.
</event>
<event>
 8    1  0.1150307E+005  0.1043930E+01  0.7957747E-01            NaN
         13   -1    0    0    0    0  0.00000000000E+00  0.00000000000E+00  0.74505805969E-08  0.10566000000E+00  0.10566000000E+00 0. -1.
     999900   -1    0    0    0    0 -0.00000000000E+00 -0.00000000000E+00 -0.74505805969E-08  0.93827000000E+00  0.93827000000E+00 0. -1.
     999902    2    1    2    0    0 -0.12218228712E-02 -0.20623690462E-01 -0.14219136926E-01  0.10188498622E+01  0.10185411274E+01 0.  0.
     999903    2    3    3    0    0 -0.19578743245E-01  0.15483027919E-01  0.12314853711E+00  0.12727229991E+00  0.20239189497E-01 0.  0.
         14    1    1    2    0    0  0.12218228712E-02  0.20623690462E-01  0.14219136926E-01  0.25080137845E-01  0.00000000000E+00 0. -1.
     999901    1    3    3    0    0  0.18356920374E-01 -0.36106718381E-01 -0.13736767403E+00  0.89157756225E+00  0.88000000000E+00 0. -1.
        -11    1    4    4    0    0 -0.19376734766E-01  0.29780657691E-02  0.76490075599E-01  0.78964039360E-01  0.51100000000E-03 0. -1.
         11    1    4    4    0    0 -0.20200847870E-03  0.12504962150E-01  0.46658461507E-01  0.48308260546E-01  0.51100000000E-03 0.  1.
</event>
<event>
 8    1  0.1150307E+005  0.1043930E+01  0.7957747E-01            NaN
         13   -1    0    0    0    0  0.00000000000E+00  0.00000000000E+00  0.74505805969E-08  0.10566000000E+00  0.10566000000E+00 0.  1.
     999900   -1    0    0    0    0 -0.00000000000E+00 -0.00000000000E+00 -0.74505805969E-08  0.93827000000E+00  0.93827000000E+00 0.  1.
     999902    2    1    2    0    0  0.23235492825E-01  0.29860582867E-02 -0.25638154756E-02  0.10203635446E+01  0.10200913613E+01 0.  0.
     999903    2    3    3    0    0  0.12729821523E+00  0.32152766024E-01 -0.14450120755E-01  0.13367248718E+00  0.20515649505E-01 0.  0.
         14    1    1    2    0    0 -0.23235492825E-01 -0.29860582867E-02  0.25638154756E-02  0.23566455412E-01  0.00000000000E+00 0.  1.
     999901    1    3    3    0    0 -0.10406272241E+00 -0.29166707737E-01  0.11886305280E-01  0.88669105741E+00  0.88000000000E+00 0.  1.
        -11    1    4    4    0    0  0.10726306918E+00  0.28196164796E-01 -0.46265154818E-02  0.11100475434E+00  0.51100000000E-03 0.  1.
         11    1    4    4    0    0  0.20035146054E-01  0.39566012278E-02 -0.98236052736E-02  0.22667732843E-01  0.51100000000E-03 0. -1.
</event>
<event>
 8    1  0.1150307E+005  0.1043930E+01  0.7957747E-01            NaN
         13   -1    0    0    0    0  0.00000000000E+00  0.00000000000E+00  0.74505805969E-08  0.10566000000E+00  0.10566000000E+00 0. -1.
     999900   -1    0    0    0    0 -0.00000000000E+00 -0.00000000000E+00 -0.74505805969E-08  0.93827000000E+00  0.93827000000E+00 0.  1.
     999902    2    1    2    0    0 -0.13586787206E-01 -0.17044228880E-01  0.45247624087E-02  0.10216683738E+01  0.10214258104E+01 0.  0.
     999903    2    3    3    0    0  0.79157266955E-01  0.56828717928E-01 -0.82884242914E-01  0.12942456967E+00  0.19635310502E-01 0.  0.
         14    1    1    2    0    0  0.13586787206E-01  0.17044228880E-01 -0.45247624087E-02  0.22261626166E-01  0.00000000000E+00 0.  1.
     999901    1    3    3    0    0 -0.92744054161E-01 -0.73872946808E-01  0.87409005322E-01  0.89224380416E+00  0.88000000000E+00 0.  1.
        -11    1    4    4    0    0  0.57839048951E-01  0.51075336549E-01 -0.61393153341E-01  0.98607433723E-01  0.51100000000E-03 0.  1.
         11    1    4    4    0    0  0.21318218005E-01  0.57533813784E-02 -0.21491089572E-01  0.30817135950E-01  0.51100000000E-03 0. -1.
</event>
<event>
 8    1  0.1150307E+005  0.1043930E+01  0.7957747E-01            NaN
         13   -1    0    0    0    0  0.00000000000E+00  0.00000000000E+00  0.74505805969E-08  0.10566000000E+00  0.10566000000E+00 0. -1.
     999900   -1    0    0    0    0 -0.00000000000E+00 -0.00000000000E+00 -0.74505805969E-08  0.93827000000E+00  0.93827000000E+00 0.  1.
     999902    2    1    2    0    0 -0.11367563659E-02 -0.39986158987E-02  0.23189054055E-01  0.10203712782E+01  0.10200992756E+01 0.  0.
     999903    2    3    3    0    0 -0.10510044778E+00  0.62241800110E-01  0.44370437323E-01  0.13152658265E+00  0.20257354952E-01 0.  0.
         14    1    1    2    0    0  0.11367563659E-02  0.39986158987E-02 -0.23189054055E-01  0.23558721785E-01  0.00000000000E+00 0.  1.
     999901    1    3    3    0    0  0.10396369141E+00 -0.66240416009E-01 -0.21181383267E-01  0.88884469557E+00  0.88000000000E+00 0.  1.
        -11    1    4    4    0    0 -0.58824775783E-01  0.44787378973E-01  0.31859979648E-01  0.80508278986E-01  0.51100000000E-03 0.  1.
         11    1    4    4    0    0 -0.46275671997E-01  0.17454421137E-01  0.12510457675E-01  0.51018303659E-01  0.51100000000E-03 0. -1.
</event>
<event>
 8    1  0.1150307E+005  0.1043930E+01  0.7957747E-01            NaN
         13   -1    0    0    0    0  0.00000000000E+00  0.00000000000E+00  0.74505805969E-08  0.10566000000E+00  0.10566000000E+00 0.  1.
     999900   -1    0    0    0    0 -0.00000000000E+00 -0.00000000000E+00 -0.74505805969E-08  0.93827000000E+00  0.93827000000E+00 0.  1.
     999902    2    1    2    0    0 -0.69684924007E-02 -0.22332900433E-01 -0.34153129942E-02  0.10202871852E+01  0.10200132144E+01 0.  0.
     999903    2    3    3    0    0  0.62266579221E-01 -0.67435168419E-01 -0.92994838067E-01  0.13188851287E+00  0.17941880929E-01 0.  0.
         14    1    1    2    0    0  0.69684924007E-02  0.22332900433E-01  0.34153129942E-02  0.23642814785E-01  0.00000000000E+00 0.  1.
     999901    1    3    3    0    0 -0.69235071621E-01  0.45102267986E-01  0.89579525073E-01  0.88839867235E+00  0.88000000000E+00 0. -1.
        -11    1    4    4    0    0  0.80698984798E-02 -0.82165268075E-02 -0.21474678443E-01  0.24373295006E-01  0.51100000000E-03 0. -1.
         11    1    4    4    0    0  0.54196680741E-01 -0.59218641612E-01 -0.71520159624E-01  0.10751521786E+00  0.51100000000E-03 0.  1.
</event>
<event>
 8    1  0.1150307E+005  0.1043930E+01  0.7957747E-01            NaN
         13   -1    0    0    0    0  0.00000000000E+00  0.00000000000E+00  0.74505805969E-08  0.10566000000E+00  0.10566000000E+00 0.  1.
     999900   -1    0    0    0    0 -0.00000000000E+00 -0.00000000000E+00 -0.74505805969E-08  0.93827000000E+00  0.93827000000E+00 0.  1.
     999902    2    1    2    0    0 -0.13127177467E-01 -0.14204252050E-01 -0.12720620500E-01  0.10207805346E+01  0.10205180067E+01 0.  0.
     999903    2    3    3    0    0  0.33709720613E-01  0.20673794443E-01  0.12077795262E+00  0.12879844831E+00  0.20927862042E-01 0.  0.
         14    1    1    2    0    0  0.13127177467E-01  0.14204252050E-01  0.12720620500E-01  0.23149465446E-01  0.00000000000E+00 0. -1.
     999901    1    3    3    0    0 -0.46836898080E-01 -0.34878046492E-01 -0.13349857312E+00  0.89198208624E+00  0.88000000000E+00 0.  1.
        -11    1    4    4    0    0  0.18458348144E-01  0.15443897129E-01  0.42212542321E-01  0.48594078085E-01  0.51100000000E-03 0. -1.
         11    1    4    4    0    0  0.15251372469E-01  0.52298973142E-02  0.78565410294E-01  0.80204370228E-01  0.51100000000E-03 0.  1.
</event>
<event>
 8    1  0.1150307E+005  0.1043930E+01  0.7957747E-01            NaN
         13   -1    0    0    0    0  0.00000000000E+00  0.00000000000E+00  0.74505805969E-08  0.10566000000E+00  0.10566000000E+00 0. -1.
     999900   -1    0    0    0    0 -0.00000000000E+00 -0.00000000000E+00 -0.74505805969E-08  0.93827000000E+00  0.93827000000E+00 0. -1.
     999902    2    1    2    0    0 -0.12082673193E-01 -0.18549908735E-01  0.87586429147E-02  0.10201223556E+01  0.10198445060E+01 0.  0.
     999903    2    3    3    0    0 -0.82940599030E-01  0.94862220223E-01  0.23029498218E-01  0.12990507092E+00  0.21609855864E-01 0.  0.
         14    1    1    2    0    0  0.12082673193E-01  0.18549908735E-01 -0.87586429147E-02  0.23807644387E-01  0.00000000000E+00 0.  1.
     999901    1    3    3    0    0  0.70857925837E-01 -0.11341212896E+00 -0.14270855304E-01  0.89021728469E+00  0.88000000000E+00 0. -1.
        -11    1    4    4    0    0 -0.14894551462E-01  0.28493992049E-01  0.23880538915E-03  0.32157011602E-01  0.51100000000E-03 0.  1.
         11    1    4    4    0    0 -0.68046047568E-01  0.66368228173E-01  0.22790692829E-01  0.97748059321E-01  0.51100000000E-03 0. -1.
</event>
<event>
 8    1  0.1150307E+005  0.1043930E+01  0.7957747E-01            NaN
         13   -1    0    0    0    0  0.00000000000E+00  0.00000000000E+00  0.74505805969E-08  0.10566000000E+00  0.10566000000E+00 0. -1.
     999900   -1    0    0    0    0 -0.00000000000E+00 -0.00000000000E+00 -0.74505805969E-08  0.93827000000E+00  0.93827000000E+00 0.  1.
     999902    2    1    2    0    0  0.58937998185E-02 -0.21456492440E-02  0.23067280989E-01  0.10200251859E+01  0.10197450366E+01 0.  0.
     999903    2    3    3    0    0  0.51890962621E-01 -0.57109546237E-03 -0.11538888374E+00  0.12801154933E+00  0.19477271844E-01 0.  0.
         14    1    1    2    0    0 -0.58937998185E-02  0.21456492440E-02 -0.23067280989E-01  0.23904814143E-01  0.00000000000E+00 0.  1.
     999901    1    3    3    0    0 -0.45997162802E-01 -0.15745537816E-02  0.13845616473E+00  0.89201363653E+00  0.88000000000E+00 0. -1.
        -11    1    4    4    0    0  0.30976574741E-01 -0.97507141750E-02 -0.63844430204E-01  0.71630977926E-01  0.51100000000E-03 0.  1.
         11    1    4    4    0    0  0.20914387880E-01  0.91796187127E-02 -0.51544453535E-01  0.56380571400E-01  0.51100000000E-03 0. -1.
</event>
<event>
 8    1  0.1150307E+005  0.1043930E+01  0.7957747E-01            NaN
         13   -1    0    0    0    0  0.00000000000E+00  0.00000000000E+00  0.74505805969E-08  0.10566000000E+00  0.10566000000E+00 0. -1.
     999900   -1    0    0    0    0 -0.00000000000E+00 -0.00000000000E+00 -0.74505805969E-08  0.93827000000E+00  0.93827000000E+00 0. -1.
     999902    2    1    2    0    0  0.14931531092E-01 -0.11987997985E-01  0.13896107775E-01  0.10202706567E+01  0.10199962982E+01 0.  0.
     999903    2    3    3    0    0 -0.78084628926E-01  0.41843834745E-01 -0.89776684119E-01  0.12769129322E+00  0.19927307204E-01 0.  0.
         14    1    1    2    0    0 -0.14931531092E-01  0.11987997985E-01 -0.13896107775E-01  0.23659343350E-01  0.00000000000E+00 0.  1.
     999901    1    3    3    0    0  0.93016160019E-01 -0.53831832730E-01  0.10367279189E+00  0.89257936343E+00  0.88000000000E+00 0.  1.
        -11    1    4    4    0    0 -0.38503939213E-01  0.11116452190E-01 -0.47323013116E-01  0.62014978316E-01  0.51100000000E-03 0.  1.
         11    1    4    4    0    0 -0.39580689713E-01  0.30727382555E-01 -0.42453671004E-01  0.65676314905E-01  0.51100000000E-03 0. -1.
</event>
<event>
 7    1  0.1150307E+005  0.1043930E+01  0.7957747E-01            NaN
         13   -1    0    0    0    0  0.00000000000E+00  0.00000000000E+00  0.74505805969E-08  0.10566000000E+00  0.10566000000E+00 0. -1.
     999900   -1    0    0    0    0 -0.00000000000E+00 -0.00000000000E+00 -0.74505805969E-08  0.93827000000E+00  0.93827000000E+00 0. -1.
     999902    2    1    2    0    0  0.54683549911E-02  0.22990996521E-01  0.63944231970E-02  0.10194478131E+01  0.10191537991E+01 0.  0.
         14    1    1    2    0    0 -0.54683549911E-02 -0.22990996521E-01 -0.63944231970E-02  0.24482186899E-01  0.00000000000E+00 0. -1.
     999901    1    3    3    0    0  0.90926439308E-01 -0.23627600136E-01  0.84336203369E-01  0.88900982900E+00  0.88000000000E+00 0.  1.
        -11    1    3    3    0    0 -0.88695327414E-01  0.44814663888E-01 -0.69685127573E-01  0.12137336335E+00  0.51100000000E-03 0. -1.
         11    1    3    3    0    0  0.32372430971E-02  0.18039327696E-02 -0.82566525998E-02  0.90646207565E-02  0.51100000000E-03 0.  1.
</event>
<event>
 8    1  0.1150307E+005  0.1043930E+01  0.7957747E-01            NaN
         13   -1    0    0    0    0  0.00000000000E+00  0.00000000000E+00  0.74505805969E-08  0.10566000000E+00  0.10566000000E+00 0.  1.
     999900   -1    0    0    0    0 -0.00000000000E+00 -0.00000000000E+00 -0.74505805969E-08  0.93827000000E+00  0.93827000000E+00 0. -1.
     999902    2    1    2    0    0 -0.23401455230E-01 -0.40168476948E-02 -0.56949398583E-02  0.10195128848E+01  0.10192204506E+01 0.  0.
     999903    2    3    3    0    0 -0.96160569133E-01 -0.75709339926E-01  0.45265015650E-01  0.13214000992E+00  0.20815892281E-01 0.  0.
         14    1    1    2    0    0  0.23401455230E-01  0.40168476948E-02  0.56949398583E-02  0.24417115151E-01  0.00000000000E+00 0.  1.
     999901    1    3    3    0    0  0.72759113902E-01  0.71692492231E-01 -0.50959955508E-01  0.88737287493E+00  0.88000000000E+00 0.  1.
        -11    1    4    4    0    0 -0.29343849006E-01 -0.19951015289E-01  0.23069981339E-01  0.42327173843E-01  0.51100000000E-03 0.  1.
         11    1    4    4    0    0 -0.66816720127E-01 -0.55758324636E-01  0.22195034311E-01  0.89812836075E-01  0.51100000000E-03 0. -1.
</event>
<event>
 8    1  0.1150307E+005  0.1043930E+01  0.7957747E-01            NaN
         13   -1    0    0    0    0  0.00000000000E+00  0.00000000000E+00  0.74505805969E-08  0.10566000000E+00  0.10566000000E+00 0.  1.
     999900   -1    0    0    0    0 -0.00000000000E+00 -0.00000000000E+00 -0.74505805969E-08  0.93827000000E+00  0.93827000000E+00 0. -1.
     999902    2    1    2    0    0  0.78794042537E-02 -0.10789188228E-02 -0.15974923684E-01  0.10260849092E+01  0.10259297216E+01 0.  0.
     999903    2    3    3    0    0 -0.78393830018E-01  0.15193541975E-01  0.10501574249E+00  0.13347827403E+00  0.20290568399E-01 0.  0.
         14    1    1    2    0    0 -0.78794042537E-02  0.10789188228E-02  0.15974923684E-01  0.17845090751E-01  0.00000000000E+00 0.  1.
     999901    1    3    3    0    0  0.86273234272E-01 -0.16272460798E-01 -0.12099066617E+00  0.89260663522E+00  0.88000000000E+00 0. -1.
        -11    1    4    4    0    0 -0.55812340122E-01  0.15914499875E-01  0.86973428259E-01  0.10456063772E+00  0.51100000000E-03 0.  1.
         11    1    4    4    0    0 -0.22581489897E-01 -0.72095789924E-03  0.18042314227E-01  0.28917636313E-01  0.51100000000E-03 0. -1.
</event>
<event>
 8    1  0.1150307E+005  0.1043930E+01  0.7957747E-01            NaN
         13   -1    0    0    0    0  0.00000000000E+00  0.00000000000E+00  0.74505805969E-08  0.10566000000E+00  0.10566000000E+00 0.  1.
     999900   -1    0    0    0    0 -0.00000000000E+00 -0.00000000000E+00 -0.74505805969E-08  0.93827000000E+00  0.93827000000E+00 0. -1.
     999902    2    1    2    0    0 -0.18564591112E-01 -0.16149484935E-02  0.15101341437E-01  0.10199445333E+01  0.10196624678E+01 0.  0.
     999903    2    3    3    0    0 -0.34331396862E-01 -0.89367732059E-01  0.89228431111E-01  0.13233878259E+00  0.19662251027E-01 0.  0.
         14    1    1    2    0    0  0.18564591112E-01  0.16149484935E-02 -0.15101341437E-01  0.23985466745E-01  0.00000000000E+00 0. -1.
     999901    1    3    3    0    0  0.15766805750E-01  0.87752783565E-01 -0.74127089674E-01  0.88760575066E+00  0.88000000000E+00 0.  1.
        -11    1    4    4    0    0 -0.18141650097E-01 -0.22785777108E-01  0.24206402786E-01  0.37875086317E-01  0.51100000000E-03 0.  1.
         11    1    4    4    0    0 -0.16189746764E-01 -0.66581954951E-01  0.65022028325E-01  0.94463696275E-01  0.51100000000E-03 0. -1.
</event>
<event>
 8    1  0.1150307E+005  0.1043930E+01  0.7957747E-01            NaN
         13   -1    0    0    0    0  0.00000000000E+00  0.00000000000E+00  0.74505805969E-08  0.10566000000E+00  0.10566000000E+00 0.  1.
     999900   -1    0    0    0    0 -0.00000000000E+00 -0.00000000000E+00 -0.74505805969E-08  0.93827000000E+00  0.93827000000E+00 0.  1.
     999902    2    1    2    0    0  0.12431289199E-01 -0.88974566141E-02 -0.18329097545E-01  0.10200625011E+01  0.10197832361E+01 0.  0.
     999903    2    3    3    0    0  0.59578923942E-01 -0.10334246107E+00 -0.55399446716E-01  0.13297909518E+00  0.19622146186E-01 0.  0.
         14    1    1    2    0    0 -0.12431289199E-01  0.88974566141E-02  0.18329097545E-01  0.23867498867E-01  0.00000000000E+00 0.  1.
     999901    1    3    3    0    0 -0.47147634743E-01  0.94445004454E-01  0.37070349171E-01  0.88708340595E+00  0.88000000000E+00 0.  1.
        -11    1    4    4    0    0  0.33571843964E-01 -0.55063089163E-01 -0.19281694933E-01  0.67313129297E-01  0.51100000000E-03 0. -1.
         11    1    4    4    0    0  0.26007079977E-01 -0.48279371906E-01 -0.36117751783E-01  0.65665965883E-01  0.51100000000E-03 0.  1.
</event>
<event>
 8    1  0.1150307E+005  0.1043930E+01  0.7957747E-01            NaN
         13   -1    0    0    0    0  0.00000000000E+00  0.00000000000E+00  0.74505805969E-08  0.10566000000E+00  0.10566000000E+00 0. -1.
     999900   -1    0    0    0    0 -0.00000000000E+00 -0.00000000000E+00 -0.74505805969E-08  0.93827000000E+00  0.93827000000E+00 0. -1.
     999902    2    1    2    0    0  0.17347823728E-01 -0.12661296645E-01  0.81734778941E-02  0.10209504186E+01  0.10206917733E+01 0.  0.
     999903    2    3    3    0    0 -0.47527604139E-01 -0.40282521728E-01  0.11439976883E+00  0.13176214938E+00  0.19809144096E-01 0.  0.
         14    1    1    2    0    0 -0.17347823728E-01  0.12661296645E-01 -0.81734778941E-02  0.22979581408E-01  0.00000000000E+00 0.  1.
     999901    1    3    3    0    0  0.64875427867E-01  0.27621225083E-01 -0.10622629093E+00  0.88918826921E+00  0.88000000000E+00 0. -1.
        -11    1    4    4    0    0 -0.15645918592E-01 -0.10637004897E-01  0.54635619843E-01  0.57820867499E-01  0.51100000000E-03 0.  1.
         11    1    4    4    0    0 -0.31881685547E-01 -0.29645516831E-01  0.59764148985E-01  0.73941281882E-01  0.51100000000E-03 0. -1.
</event>
<event>
 8    1  0.1150307E+005  0.1043930E+01  0.7957747E-01            NaN
         13   -1    0    0    0    0  0.00000000000E+00  0.00000000000E+00  0.74505805969E-08  0.10566000000E+00  0.10566000000E+00 0.  1.
     999900   -1    0    0    0    0 -0.00000000000E+00 -0.00000000000E+00 -0.74505805969E-08  0.93827000000E+00  0.93827000000E+00 0. -1.
     999902    2    1    2    0    0 -0.11350491854E-01 -0.20514855594E-01 -0.40902263102E-02  0.10201303589E+01  0.10198526983E+01 0.  0.
     999903    2    3    3    0    0 -0.72707051117E-01  0.96986665350E-01 -0.40845748340E-01  0.12944399255E+00  0.19865636490E-01 0.  0.
         14    1    1    2    0    0  0.11350491854E-01  0.20514855594E-01  0.40902263102E-02  0.23799641103E-01  0.00000000000E+00 0.  1.
     999901    1    3    3    0    0  0.61356559263E-01 -0.11750152094E+00  0.36755522030E-01  0.89068636634E+00  0.88000000000E+00 0.  1.
        -11    1    4    4    0    0 -0.63515684018E-01  0.93293044024E-01 -0.38525224184E-01  0.11925723542E+00  0.51100000000E-03 0. -1.
         11    1    4    4    0    0 -0.91913670987E-02  0.36936213259E-02 -0.23205241561E-02  0.10186757139E-01  0.51100000000E-03 0.  1.
</event>
<event>
 8    1  0.1150307E+005  0.1043930E+01  0.7957747E-01            NaN
         13   -1    0    0    0    0  0.00000000000E+00  0.00000000000E+00  0.74505805969E-08  0.10566000000E+00  0.10566000000E+00 0.  1.
     999900   -1    0    0    0    0 -0.00000000000E+00 -0.00000000000E+00 -0.74505805969E-08  0.93827000000E+00  0.93827000000E+00 0. -1.
     999902    2    1    2    0    0  0.29795740189E-02 -0.20339628112E-01  0.13030015548E-01  0.10195915605E+01  0.10193010304E+01 0.  0.
     999903    2    3    3    0    0 -0.64477969206E-01 -0.10687114357E+00 -0.36547312176E-01  0.13139330855E+00  0.18698814503E-01 0.  0.
         14    1    1    2    0    0 -0.29795740189E-02  0.20339628112E-01 -0.13030015548E-01  0.24338439520E-01  0.00000000000E+00 0.  1.
     999901    1    3    3    0    0  0.67457543225E-01  0.86531515458E-01  0.49577327724E-01  0.88819825193E+00  0.88000000000E+00 0.  1.
        -11    1    4    4    0    0 -0.82189081139E-02 -0.27759073826E-01 -0.55060463554E-02  0.29473620370E-01  0.51100000000E-03 0.  1.
         11    1    4    4    0    0 -0.56259061092E-01 -0.79112069745E-01 -0.31041265821E-01  0.10191968818E+00  0.51100000000E-03 0. -1.
</event>
<event>
 8    1  0.1150307E+005  0.1043930E+01  0.7957747E-01            NaN
         13   -1    0    0    0    0  0.00000000000E+00  0.00000000000E+00  0.74505805969E-08  0.10566000000E+00  0.10566000000E+00 0. -1.
     999900   -1    0    0    0    0 -0.00000000000E+00 -0.00000000000E+00 -0.74505805969E-08  0.93827000000E+00  0.93827000000E+00 0.  1.
     999902    2    1    2    0    0 -0.22454777957E-01  0.71664686647E-02 -0.92264511658E-03  0.10203413035E+01  0.10200686002E+01 0.  0.
     999903    2    3    3    0    0  0.80637857323E-01  0.21997244983E-01 -0.96322498365E-01  0.12907861759E+00  0.19922926704E-01 0.  0.
         14    1    1    2    0    0  0.22454777957E-01 -0.71664686647E-02  0.92264511658E-03  0.23588696450E-01  0.00000000000E+00 0.  1.
     999901    1    3    3    0    0 -0.10309263528E+00 -0.14830776318E-01  0.95399853248E-01  0.89126268595E+00  0.88000000000E+00 0. -1.
        -11    1    4    4    0    0  0.46344596608E-01  0.15168092485E-01 -0.69984782602E-01  0.85299610674E-01  0.51100000000E-03 0.  1.
         11    1    4    4    0    0  0.34293260715E-01  0.68291524981E-02 -0.26337715763E-01  0.43779006921E-01  0.51100000000E-03 0. -1.
</event>
<event>
 8    1  0.1150307E+005  0.1043930E+01  0.7957747E-01            NaN
         13   -1    0    0    0    0  0.00000000000E+00  0.00000000000E+00  0.74505805969E-08  0.10566000000E+00  0.10566000000E+00 0. -1.
     999900   -1    0    0    0    0 -0.00000000000E+00 -0.00000000000E+00 -0.74505805969E-08  0.93827000000E+00  0.93827000000E+00 0.  1.
     999902    2    1    2    0    0 -0.17703689465E-01 -0.39842612135E-02 -0.15272102670E-01  0.10202122413E+01  0.10199365104E+01 0.  0.
     999903    2    3    3    0    0 -0.15103992287E-01 -0.73742118960E-01 -0.10745269114E+00  0.13264805881E+00  0.19580500005E-01 0.  0.
         14    1    1    2    0    0  0.17703689465E-01  0.39842612135E-02  0.15272102670E-01  0.23717758707E-01  0.00000000000E+00 0. -1.
     999901    1    3    3    0    0 -0.25996971785E-02  0.69757857747E-01  0.92180588468E-01  0.88756418249E+00  0.88000000000E+00 0. -1.
        -11    1    4    4    0    0  0.42624046509E-02 -0.21807937708E-01 -0.34179868977E-01  0.40771053515E-01  0.51100000000E-03 0. -1.
         11    1    4    4    0    0 -0.19366396938E-01 -0.51934181252E-01 -0.73272822162E-01  0.91877005291E-01  0.51100000000E-03 0.  1.
</event>
<event>
 8    1  0.1150307E+005  0.1043930E+01  0.7957747E-01            NaN
         13   -1    0    0    0    0  0.00000000000E+00  0.00000000000E+00  0.74505805969E-08  0.10566000000E+00  0.10566000000E+00 0.  1.
     999900   -1    0    0    0    0 -0.00000000000E+00 -0.00000000000E+00 -0.74505805969E-08  0.93827000000E+00  0.93827000000E+00 0.  1.
     999902    2    1    2    0    0 -0.16309075874E-01  0.18323104776E-01  0.47212713219E-03  0.10193954320E+01  0.10191001431E+01 0.  0.
     999903    2    3    3    0    0 -0.12099423333E+00 -0.32751043249E-01  0.31640913854E-01  0.13117302510E+00  0.22203147360E-01 0.  0.
         14    1    1    2    0    0  0.16309075874E-01 -0.18323104776E-01 -0.47212713219E-03  0.24534568033E-01  0.00000000000E+00 0.  1.
     999901    1    3    3    0    0  0.10468515746E+00  0.51074148025E-01 -0.31168786721E-01  0.88822240686E+00  0.88000000000E+00 0. -1.
        -11    1    4    4    0    0 -0.66663255085E-01 -0.18410996268E-01  0.28769146699E-01  0.74905802745E-01  0.51100000000E-03 0. -1.
         11    1    4    4    0    0 -0.54330978245E-01 -0.14340046981E-01  0.28717671542E-02  0.56267222359E-01  0.51100000000E-03 0.  1.
</event>
<event>
 8    1  0.1150307E+005  0.1043930E+01  0.7957747E-01            NaN
         13   -1    0    0    0    0  0.00000000000E+00  0.00000000000E+00  0.74505805969E-08  0.10566000000E+00  0.10566000000E+00 0.  1.
     999900   -1    0    0    0    0 -0.00000000000E+00 -0.00000000000E+00 -0.74505805969E-08  0.93827000000E+00  0.93827000000E+00 0. -1.
     999902    2    1    2    0    0 -0.11831415967E-01 -0.19831829751E-02  0.20860163012E-01  0.10198662966E+01  0.10195823661E+01 0.  0.
     999903    2    3    3    0    0 -0.10899851057E+00  0.48757738001E-01 -0.48332749222E-01  0.13036995351E+00  0.20056864430E-01 0.  0.
         14    1    1    2    0    0  0.11831415967E-01  0.19831829751E-02 -0.20860163012E-01  0.24063703359E-01  0.00000000000E+00 0. -1.
     999901    1    3    3    0    0  0.97167094600E-01 -0.50740920976E-01  0.69192912234E-01  0.88949634313E+00  0.88000000000E+00 0.  1.
        -11    1    4    4    0    0 -0.34920565893E-01  0.57332491415E-02 -0.13045029916E-01  0.37719358353E-01  0.51100000000E-03 0. -1.
         11    1    4    4    0    0 -0.74077944674E-01  0.43024488860E-01 -0.35287719306E-01  0.92650595160E-01  0.51100000000E-03 0.  1.
</event>
<event>
 8    1  0.1150307E+005  0.1043930E+01  0.7957747E-01            NaN
         13   -1    0    0    0    0  0.00000000000E+00  0.00000000000E+00  0.74505805969E-08  0.10566000000E+00  0.10566000000E+00 0.  1.
     999900   -1    0    0    0    0 -0.00000000000E+00 -0.00000000000E+00 -0.74505805969E-08  0.93827000000E+00  0.93827000000E+00 0. -1.
     999902    2    1    2    0    0  0.15796088998E-01 -0.89586488418E-02 -0.14284391315E-01  0.10208255058E+01  0.10205640086E+01 0.  0.
     999903    2    3    3    0    0 -0.98777775264E-01  0.47883673980E-02  0.80751962604E-01  0.12821805603E+00  0.11790380810E-01 0.  0.
         14    1    1    2    0    0 -0.15796088998E-01  0.89586488418E-02  0.14284391315E-01  0.23104494194E-01  0.00000000000E+00 0.  1.
     999901    1    3    3    0    0  0.11457386426E+00 -0.13747016240E-01 -0.95036353919E-01  0.89260744977E+00  0.88000000000E+00 0.  1.
        -11    1    4    4    0    0 -0.35290461098E-01  0.69049745523E-02  0.32058866661E-01  0.48178079774E-01  0.51100000000E-03 0.  1.
         11    1    4    4    0    0 -0.63487314166E-01 -0.21166071543E-02  0.48693095942E-01  0.80039976258E-01  0.51100000000E-03 0. -1.
</event>
<event>
 8    1  0.1150307E+005  0.1043930E+01  0.7957747E-01            NaN
         13   -1    0    0    0    0  0.00000000000E+00  0.00000000000E+00  0.74505805969E-08  0.10566000000E+00  0.10566000000E+00 0.  1.
     999900   -1    0    0    0    0 -0.00000000000E+00 -0.00000000000E+00 -0.74505805969E-08  0.93827000000E+00  0.93827000000E+00 0. -1.
     999902    2    1    2    0    0 -0.88619023520E-02  0.20863518324E-01 -0.10112739182E-01  0.10191088960E+01  0.10188065836E+01 0.  0.
     999903    2    3    3    0    0  0.43013166741E-01 -0.11189557238E+00  0.35204191033E-01  0.12648936724E+00  0.19735078574E-01 0.  0.
         14    1    1    2    0    0  0.88619023520E-02 -0.20863518324E-01  0.10112739182E-01  0.24821104003E-01  0.00000000000E+00 0.  1.
     999901    1    3    3    0    0 -0.51875069093E-01  0.13275909071E+00 -0.45316930215E-01  0.89261952876E+00  0.88000000000E+00 0. -1.
        -11    1    4    4    0    0  0.16374813291E-01 -0.59685557063E-01  0.10046006164E-01  0.62703138622E-01  0.51100000000E-03 0.  1.
         11    1    4    4    0    0  0.26638353451E-01 -0.52210015318E-01  0.25158184869E-01  0.63786228615E-01  0.51100000000E-03 0. -1.
</event>
<event>
 8    1  0.1150307E+005  0.1043930E+01  0.7957747E-01            NaN
         13   -1    0    0    0    0  0.00000000000E+00  0.00000000000E+00  0.74505805969E-08  0.10566000000E+00  0.10566000000E+00 0.  1.
     999900   -1    0    0    0    0 -0.00000000000E+00 -0.00000000000E+00 -0.74505805969E-08  0.93827000000E+00  0.93827000000E+00 0. -1.
     999902    2    1    2    0    0 -0.16176263919E-01  0.14681023880E-01  0.94730817737E-03  0.10220644708E+01  0.10218305540E+01 0.  0.
     999903    2    3    3    0    0 -0.63944107399E-01 -0.11248382904E-01 -0.11369714883E+00  0.13296523415E+00  0.23180527430E-01 0.  0.
         14    1    1    2    0    0  0.16176263919E-01 -0.14681023880E-01 -0.94730817737E-03  0.21865529248E-01  0.00000000000E+00 0.  1.
     999901    1    3    3    0    0  0.47767843481E-01  0.25929406783E-01  0.11464445700E+00  0.88909923660E+00  0.88000000000E+00 0.  1.
        -11    1    4    4    0    0 -0.23605110651E-01 -0.13700063194E-01 -0.58475626984E-01  0.64533348375E-01  0.51100000000E-03 0.  1.
         11    1    4    4    0    0 -0.40338996748E-01  0.24516802903E-02 -0.55221521843E-01  0.68431885774E-01  0.51100000000E-03 0. -1.
</event>
<event>
 8    1  0.1150307E+005  0.1043930E+01  0.7957747E-01            NaN
         13   -1    0    0    0    0  0.00000000000E+00  0.00000000000E+00  0.74505805969E-08  0.10566000000E+00  0.10566000000E+00 0. -1.
     999900   -1    0    0    0    0 -0.00000000000E+00 -0.00000000000E+00 -0.74505805969E-08  0.93827000000E+00  0.93827000000E+00 0. -1.
     999902    2    1    2    0    0  0.14493566257E-01 -0.33155600499E-02 -0.18053261477E-01  0.10205424680E+01  0.10202744496E+01 0.  0.
     999903    2    3    3    0    0 -0.74504230098E-01  0.64753193407E-01 -0.83836198756E-01  0.13100249828E+00  0.19730432735E-01 0.  0.
         14    1    1    2    0    0 -0.14493566257E-01  0.33155600499E-02  0.18053261477E-01  0.23387531962E-01  0.00000000000E+00 0. -1.
     999901    1    3    3    0    0  0.88997796355E-01 -0.68068753457E-01  0.65782937279E-01  0.88953996975E+00  0.88000000000E+00 0. -1.
        -11    1    4    4    0    0 -0.49648066224E-01  0.54616799074E-01 -0.61943084045E-01  0.96359389801E-01  0.51100000000E-03 0.  1.
         11    1    4    4    0    0 -0.24856163874E-01  0.10136394333E-01 -0.21893114711E-01  0.34643108483E-01  0.51100000000E-03 0. -1.
</event>
<event>
 8    1  0.1150307E+005  0.1043930E+01  0.7957747E-01            NaN
         13   -1    0    0    0    0  0.00000000000E+00  0.00000000000E+00  0.74505805969E-08  0.10566000000E+00  0.10566000000E+00 0.  1.
     999900   -1    0    0    0    0 -0.00000000000E+00 -0.00000000000E+00 -0.74505805969E-08  0.93827000000E+00  0.93827000000E+00 0.  1.
     999902    2    1    2    0    0 -0.52108903146E-02 -0.10833715463E-01 -0.20480726333E-01  0.10201816754E+01  0.10199052250E+01 0.  0.
     999903    2    3    3    0    0 -0.27507574448E-02  0.92512392850E-01  0.85741773926E-01  0.12778619700E+00  0.20286716138E-01 0.  0.
         14    1    1    2    0    0  0.52108903146E-02  0.10833715463E-01  0.20480726333E-01  0.23748324567E-01  0.00000000000E+00 0.  1.
     999901    1    3    3    0    0 -0.24601328698E-02 -0.10334610831E+00 -0.10622250026E+00  0.89239547843E+00  0.88000000000E+00 0.  1.
        -11    1    4    4    0    0 -0.17709992800E-02  0.39910351579E-01  0.23757667616E-01  0.46482905386E-01  0.51100000000E-03 0.  1.
         11    1    4    4    0    0 -0.97975816475E-03  0.52602041271E-01  0.61984106310E-01  0.81303291618E-01  0.51100000000E-03 0. -1.
</event>
<event>
 8    1  0.1150307E+005  0.1043930E+01  0.7957747E-01            NaN
         13   -1    0    0    0    0  0.00000000000E+00  0.00000000000E+00  0.74505805969E-08  0.10566000000E+00  0.10566000000E+00 0.  1.
     999900   -1    0    0    0    0 -0.00000000000E+00 -0.00000000000E+00 -0.74505805969E-08  0.93827000000E+00  0.93827000000E+00 0. -1.
     999902    2    1    2    0    0  0.61800070644E-02 -0.39791906170E-02 -0.22768579862E-01  0.10200043929E+01  0.10197237503E+01 0.  0.
     999903    2    3    3    0    0  0.85512820143E-01 -0.65425508687E-01 -0.75010650579E-01  0.13276227310E+00  0.20156484350E-01 0.  0.
         14    1    1    2    0    0 -0.61800070644E-02  0.39791906170E-02  0.22768579862E-01  0.23925607081E-01  0.00000000000E+00 0.  1.
     999901    1    3    3    0    0 -0.79332813079E-01  0.61446318070E-01  0.52242070717E-01  0.88724211982E+00  0.88000000000E+00 0.  1.
        -11    1    4    4    0    0  0.31754296821E-01 -0.23412084876E-01 -0.16081455363E-01  0.42606753131E-01  0.51100000000E-03 0. -1.
         11    1    4    4    0    0  0.53758523322E-01 -0.42013423811E-01 -0.58929195216E-01  0.90155519964E-01  0.51100000000E-03 0.  1.
</event>
<event>
 8    1  0.1150307E+005  0.1043930E+01  0.7957747E-01            NaN
         13   -1    0    0    0    0  0.00000000000E+00  0.00000000000E+00  0.74505805969E-08  0.10566000000E+00  0.10566000000E+00 0.  1.
     999900   -1    0    0    0    0 -0.00000000000E+00 -0.00000000000E+00 -0.74505805969E-08  0.93827000000E+00  0.93827000000E+00 0.  1.
     999902    2    1    2    0    0  0.16487720590E-01 -0.21458421070E-01 -0.59403927264E-02  0.10162244585E+01  0.10158467173E+01 0.  0.
     999903    2    3    3    0    0 -0.61782731990E-01 -0.91757125352E-02  0.10690147043E+00  0.12548857464E+00  0.20448919615E-01 0.  0.
         14    1    1    2    0    0 -0.16487720590E-01  0.21458421070E-01  0.59403927264E-02  0.27705541518E-01  0.00000000000E+00 0.  1.
     999901    1    3    3    0    0  0.78270452580E-01 -0.12282708534E-01 -0.11284186316E+00  0.89073588384E+00  0.88000000000E+00 0. -1.
        -11    1    4    4    0    0 -0.29742479572E-01 -0.14601453948E-01  0.50780149703E-01  0.60635816753E-01  0.51100000000E-03 0. -1.
         11    1    4    4    0    0 -0.32040252418E-01  0.54257414127E-02  0.56121320727E-01  0.64852757891E-01  0.51100000000E-03 0.  1.
</event>
<event>
 8    1  0.1150307E+005  0.1043930E+01  0.7957747E-01            NaN
         13   -1    0    0    0    0  0.00000000000E+00  0.00000000000E+00  0.74505805969E-08  0.10566000000E+00  0.10566000000E+00 0.  1.
     999900   -1    0    0    0    0 -0.00000000000E+00 -0.00000000000E+00 -0.74505805969E-08  0.93827000000E+00  0.93827000000E+00 0. -1.
     999902    2    1    2    0    0 -0.28556522377E-02  0.20895197916E-01 -0.11381648755E-01  0.10199653182E+01  0.10196837472E+01 0.  0.
     999903    2    3    3    0    0  0.52056161194E-01  0.29929691608E-01  0.11295324972E+00  0.12948449509E+00  0.20054114006E-01 0.  0.
         14    1    1    2    0    0  0.28556522377E-02 -0.20895197916E-01  0.11381648755E-01  0.23964681805E-01  0.00000000000E+00 0.  1.
     999901    1    3    3    0    0 -0.54911813432E-01 -0.90344936919E-02 -0.12433489848E+00  0.89048082310E+00  0.88000000000E+00 0. -1.
        -11    1    4    4    0    0  0.37428443596E-01  0.12578553611E-01  0.59508328016E-01  0.71418559390E-01  0.51100000000E-03 0.  1.
         11    1    4    4    0    0  0.14627717598E-01  0.17351137997E-01  0.53444921707E-01  0.58065935704E-01  0.51100000000E-03 0. -1.
</event>
<event>
 8    1  0.1150307E+005  0.1043930E+01  0.7957747E-01            NaN
         13   -1    0    0    0    0  0.00000000000E+00  0.00000000000E+00  0.74505805969E-08  0.10566000000E+00  0.10566000000E+00 0.  1.
     999900   -1    0    0    0    0 -0.00000000000E+00 -0.00000000000E+00 -0.74505805969E-08  0.93827000000E+00  0.93827000000E+00 0. -1.
     999902    2    1    2    0    0 -0.18077053297E-01 -0.12569020524E-01 -0.76153148271E-02  0.10206329368E+01  0.10203670117E+01 0.  0.
     999903    2    3    3    0    0 -0.92605573451E-01  0.43190715536E-01 -0.82047750012E-01  0.13259924608E+00  0.20236023243E-01 0.  0.
         14    1    1    2    0    0  0.18077053297E-01  0.12569020524E-01  0.76153148271E-02  0.23297063179E-01  0.00000000000E+00 0.  1.
     999901    1    3    3    0    0  0.74528520154E-01 -0.55759736060E-01  0.74432435185E-01  0.88803369074E+00  0.88000000000E+00 0.  1.
        -11    1    4    4    0    0 -0.63499759533E-01  0.31614613992E-01 -0.68005226239E-01  0.98268383498E-01  0.51100000000E-03 0. -1.
         11    1    4    4    0    0 -0.29105813918E-01  0.11576101544E-01 -0.14042523773E-01  0.34330862583E-01  0.51100000000E-03 0.  1.
</event>
<event>
 8    1  0.1150307E+005  0.1043930E+01  0.7957747E-01            NaN
         13   -1    0    0    0    0  0.00000000000E+00  0.00000000000E+00  0.74505805969E-08  0.10566000000E+00  0.10566000000E+00 0. -1.
     999900   -1    0    0    0    0 -0.00000000000E+00 -0.00000000000E+00 -0.74505805969E-08  0.93827000000E+00  0.93827000000E+00 0.  1.
     999902    2    1    2    0    0  0.80671400282E-02 -0.23223629510E-01  0.37428812222E-02  0.10190618502E+01  0.10187583765E+01 0.  0.
     999903    2    3    3    0    0 -0.97766626129E-01  0.70531168949E-01 -0.34442887891E-01  0.12695821199E+00  0.19977889996E-01 0.  0.
         14    1    1    2    0    0 -0.80671400282E-02  0.23223629510E-01 -0.37428812222E-02  0.24868149824E-01  0.00000000000E+00 0.  1.
     999901    1    3    3    0    0  0.10583376616E+00 -0.93754798458E-01  0.38185769114E-01  0.89210363818E+00  0.88000000000E+00 0.  1.
        -11    1    4    4    0    0 -0.38795419835E-01  0.31967913288E-01 -0.47544760083E-02  0.50496517140E-01  0.51100000000E-03 0.  1.
         11    1    4    4    0    0 -0.58971206294E-01  0.38563255661E-01 -0.29688411883E-01  0.76461694854E-01  0.51100000000E-03 0. -1.
</event>
<event>
 8    1  0.1150307E+005  0.1043930E+01  0.7957747E-01            NaN
         13   -1    0    0    0    0  0.00000000000E+00  0.00000000000E+00  0.74505805969E-08  0.10566000000E+00  0.10566000000E+00 0.  1.
     999900   -1    0    0    0    0 -0.00000000000E+00 -0.00000000000E+00 -0.74505805969E-08  0.93827000000E+00  0.93827000000E+00 0. -1.
     999902    2    1    2    0    0  0.11155357635E-01 -0.11574938116E-01 -0.17291966547E-01  0.10203199745E+01  0.10200467720E+01 0.  0.
     999903    2    3    3    0    0  0.11079831617E+00 -0.69104262420E-01  0.93488462768E-02  0.13243029936E+00  0.19967907032E-01 0.  0.
         14    1    1    2    0    0 -0.11155357635E-01  0.11574938116E-01  0.17291966547E-01  0.23610025485E-01  0.00000000000E+00 0. -1.
     999901    1    3    3    0    0 -0.99642958533E-01  0.57529324304E-01 -0.26640812824E-01  0.88788967516E+00  0.88000000000E+00 0. -1.
        -11    1    4    4    0    0  0.59574638846E-01 -0.33365407121E-01  0.14329408614E-01  0.69770918428E-01  0.51100000000E-03 0. -1.
         11    1    4    4    0    0  0.51223677322E-01 -0.35738855299E-01 -0.49805623377E-02  0.62659380931E-01  0.51100000000E-03 0.  1.
</event>
<event>
 8    1  0.1150307E+005  0.1043930E+01  0.7957747E-01            NaN
         13   -1    0    0    0    0  0.00000000000E+00  0.00000000000E+00  0.74505805969E-08  0.10566000000E+00  0.10566000000E+00 0. -1.
     999900   -1    0    0    0    0 -0.00000000000E+00 -0.00000000000E+00 -0.74505805969E-08  0.93827000000E+00  0.93827000000E+00 0.  1.
     999902    2    1    2    0    0  0.28264391978E-02  0.21190323593E-01 -0.10671224822E-01  0.10200366199E+01  0.10197567418E+01 0.  0.
     999903    2    3    3    0    0  0.85914489077E-01  0.56475946540E-01 -0.81350117371E-01  0.13259974607E+00  0.19849914103E-01 0.  0.
         14    1    1    2    0    0 -0.28264391978E-02 -0.21190323593E-01  0.10671224822E-01  0.23893380081E-01  0.00000000000E+00 0. -1.
     999901    1    3    3    0    0 -0.83088049879E-01 -0.35285622947E-01  0.70678892549E-01  0.88743687385E+00  0.88000000000E+00 0. -1.
        -11    1    4    4    0    0  0.72248946028E-01  0.37733264638E-01 -0.63038183103E-01  0.10304262765E+00  0.51100000000E-03 0.  1.
         11    1    4    4    0    0  0.13665543049E-01  0.18742681902E-01 -0.18311934268E-01  0.29557118421E-01  0.51100000000E-03 0. -1.
</event>
<event>
 8    1  0.1150307E+005  0.1043930E+01  0.7957747E-01            NaN
         13   -1    0    0    0    0  0.00000000000E+00  0.00000000000E+00  0.74505805969E-08  0.10566000000E+00  0.10566000000E+00 0.  1.
     999900   -1    0    0    0    0 -0.00000000000E+00 -0.00000000000E+00 -0.74505805969E-08  0.93827000000E+00  0.93827000000E+00 0. -1.
     999902    2    1    2    0    0 -0.99179314667E-02 -0.10971734674E-01 -0.15496034813E-01  0.10225087157E+01  0.10222843060E+01 0.  0.
     999903    2    3    3    0    0  0.80641492345E-01 -0.86276024367E-01 -0.59109197025E-01  0.13359147927E+00  0.20153994485E-01 0.  0.
         14    1    1    2    0    0  0.99179314667E-02  0.10971734674E-01  0.15496034813E-01  0.21421284305E-01  0.00000000000E+00 0.  1.
     999901    1    3    3    0    0 -0.90559423811E-01  0.75304289693E-01  0.43613162212E-01  0.88891723642E+00  0.88000000000E+00 0.  1.
        -11    1    4    4    0    0  0.17810237017E-01 -0.89372673441E-02 -0.68804161687E-02  0.21087449771E-01  0.51100000000E-03 0. -1.
         11    1    4    4    0    0  0.62831255328E-01 -0.77338757023E-01 -0.52228780856E-01  0.11250402950E+00  0.51100000000E-03 0.  1.
</event>
<event>
 8    1  0.1150307E+005  0.1043930E+01  0.7957747E-01            NaN
         13   -1    0    0    0    0  0.00000000000E+00  0.00000000000E+00  0.74505805969E-08  0.10566000000E+00  0.10566000000E+00 0.  1.
     999900   -1    0    0    0    0 -0.00000000000E+00 -0.00000000000E+00 -0.74505805969E-08  0.93827000000E+00  0.93827000000E+00 0. -1.
     999902    2    1    2    0    0 -0.14605150415E-02 -0.17624966616E-01  0.15847785560E-01  0.10201828979E+01  0.10199064762E+01 0.  0.
     999903    2    3    3    0    0 -0.11851016765E+00 -0.12994816659E-01  0.52549279436E-01  0.13166218392E+00  0.18973107510E-01 0.  0.
         14    1    1    2    0    0  0.14605150415E-02  0.17624966616E-01 -0.15847785560E-01  0.23747102130E-01  0.00000000000E+00 0. -1.
     999901    1    3    3    0    0  0.11704965261E+00 -0.46301499573E-02 -0.36701493876E-01  0.88852071395E+00  0.88000000000E+00 0. -1.
        -11    1    4    4    0    0 -0.14997132560E-01 -0.56097786801E-02  0.12900643591E-01  0.20568697769E-01  0.51100000000E-03 0. -1.
         11    1    4    4    0    0 -0.10351303509E+00 -0.73850379785E-02  0.39648635845E-01  0.11109348615E+00  0.51100000000E-03 0.  1.
</event>
<event>
 8    1  0.1150307E+005  0.1043930E+01  0.7957747E-01            NaN
         13   -1    0    0    0    0  0.00000000000E+00  0.00000000000E+00  0.74505805969E-08  0.10566000000E+00  0.10566000000E+00 0. -1.
     999900   -1    0    0    0    0 -0.00000000000E+00 -0.00000000000E+00 -0.74505805969E-08  0.93827000000E+00  0.93827000000E+00 0. -1.
     999902    2    1    2    0    0  0.50578569102E-02 -0.22282301463E-01  0.61298468774E-02  0.10202729102E+01  0.10199986046E+01 0.  0.
     999903    2    3    3    0    0  0.34349840829E-01 -0.12713640580E+00  0.90068512163E-02  0.13355949501E+00  0.20333177202E-01 0.  0.
         14    1    1    2    0    0 -0.50578569102E-02  0.22282301463E-01 -0.61298468774E-02  0.23657089798E-01  0.00000000000E+00 0.  1.
     999901    1    3    3    0    0 -0.29291983919E-01  0.10485410434E+00 -0.28770043389E-02  0.88671341519E+00  0.88000000000E+00 0. -1.
        -11    1    4    4    0    0  0.25731457040E-01 -0.59423688188E-01  0.83647510853E-02  0.65295580103E-01  0.51100000000E-03 0.  1.
         11    1    4    4    0    0  0.86183837890E-02 -0.67712717612E-01  0.64210013095E-03  0.68263914912E-01  0.51100000000E-03 0. -1.
</event>
<event>
 8    1  0.1150307E+005  0.1043930E+01  0.7957747E-01            NaN
         13   -1    0    0    0    0  0.00000000000E+00  0.00000000000E+00  0.74505805969E-08  0.10566000000E+00  0.10566000000E+00 0. -1.
     999900   -1    0    0    0    0 -0.00000000000E+00 -0.00000000000E+00 -0.74505805969E-08  0.93827000000E+00  0.93827000000E+00 0. -1.
     999902    2    1    2    0    0 -0.45814862643E-02  0.21894969864E-01 -0.70809846877E-02  0.10204668360E+01  0.10201970610E+01 0.  0.
     999903    2    3    3    0    0 -0.11283349878E-01  0.11493483943E+00 -0.63881637029E-01  0.13371566095E+00  0.21486813027E-01 0.  0.
         14    1    1    2    0    0  0.45814862643E-02 -0.21894969864E-01  0.70809846877E-02  0.23463164021E-01  0.00000000000E+00 0. -1.
     999901    1    3    3    0    0  0.67018636135E-02 -0.93039869569E-01  0.56800652341E-01  0.88675117503E+00  0.88000000000E+00 0.  1.
        -11    1    4    4    0    0  0.55099883667E-02  0.25599243126E-01 -0.18868398516E-01  0.32279386673E-01  0.51100000000E-03 0. -1.
         11    1    4    4    0    0 -0.16793338245E-01  0.89335596308E-01 -0.45013238513E-01  0.10143627428E+00  0.51100000000E-03 0.  1.
</event>
<event>
 8    1  0.1150307E+005  0.1043930E+01  0.7957747E-01            NaN
         13   -1    0    0    0    0  0.00000000000E+00  0.00000000000E+00  0.74505805969E-08  0.10566000000E+00  0.10566000000E+00 0. -1.
     999900   -1    0    0    0    0 -0.00000000000E+00 -0.00000000000E+00 -0.74505805969E-08  0.93827000000E+00  0.93827000000E+00 0.  1.
     999902    2    1    2    0    0  0.45674432722E-02 -0.17358911445E-01 -0.65349011274E-03  0.10259683633E+01  0.10258111240E+01 0.  0.
     999903    2    3    3    0    0  0.87822181371E-01 -0.10155664642E+00  0.21767826935E-01  0.13775480480E+00  0.21818798863E-01 0.  0.
         14    1    1    2    0    0 -0.45674432722E-02  0.17358911445E-01  0.65349011274E-03  0.17961636728E-01  0.00000000000E+00 0. -1.
     999901    1    3    3    0    0 -0.83254738099E-01  0.84197734975E-01 -0.22421317048E-01  0.88821355847E+00  0.88000000000E+00 0.  1.
        -11    1    4    4    0    0  0.15110072595E-01 -0.24049281063E-01 -0.31951659691E-02  0.28585877983E-01  0.51100000000E-03 0. -1.
         11    1    4    4    0    0  0.72712108776E-01 -0.77507365358E-01  0.24962992904E-01  0.10916892682E+00  0.51100000000E-03 0.  1.
</event>
<event>
 8    1  0.1150307E+005  0.1043930E+01  0.7957747E-01            NaN
         13   -1    0    0    0    0  0.00000000000E+00  0.00000000000E+00  0.74505805969E-08  0.10566000000E+00  0.10566000000E+00 0. -1.
     999900   -1    0    0    0    0 -0.00000000000E+00 -0.00000000000E+00 -0.74505805969E-08  0.93827000000E+00  0.93827000000E+00 0. -1.
     999902    2    1    2    0    0 -0.22212570407E-01  0.33276774979E-02  0.58318130666E-02  0.10207247901E+01  0.10204609818E+01 0.  0.
     999903    2    3    3    0    0 -0.10727714962E+00 -0.75982080874E-01  0.30377883324E-02  0.13306842250E+00  0.20403761041E-01 0.  0.
         14    1    1    2    0    0  0.22212570407E-01 -0.33276774979E-02 -0.58318130666E-02  0.23205209874E-01  0.00000000000E+00 0. -1.
     999901    1    3    3    0    0  0.85064579213E-01  0.79309758372E-01  0.27940247341E-02  0.88765636762E+00  0.88000000000E+00 0.  1.
        -11    1    4    4    0    0 -0.75881954840E-01 -0.58065953843E-01 -0.62119534220E-02  0.95752679087E-01  0.51100000000E-03 0. -1.
         11    1    4    4    0    0 -0.31395194780E-01 -0.17916127031E-01  0.92497417544E-02  0.37315743415E-01  0.51100000000E-03 0.  1.
</event>
<event>
 8    1  0.1150307E+005  0.1043930E+01  0.7957747E-01            NaN
         13   -1    0    0    0    0  0.00000000000E+00  0.00000000000E+00  0.74505805969E-08  0.10566000000E+00  0.10566000000E+00 0. -1.
     999900   -1    0    0    0    0 -0.00000000000E+00 -0.00000000000E+00 -0.74505805969E-08  0.93827000000E+00  0.93827000000E+00 0.  1.
     999902    2    1    2    0    0 -0.16156883062E-02 -0.16075739142E-01 -0.17028437836E-01  0.10204564504E+01  0.10201864337E+01 0.  0.
     999903    2    3    3    0    0 -0.10070264304E+00  0.77360663470E-01  0.15204497330E-01  0.12939666110E+00  0.19662771822E-01 0.  0.
         14    1    1    2    0    0  0.16156883062E-02  0.16075739142E-01  0.17028437836E-01  0.23473549642E-01  0.00000000000E+00 0. -1.
     999901    1    3    3    0    0  0.99086954734E-01 -0.93436402612E-01 -0.32232935166E-01  0.89105978926E+00  0.88000000000E+00 0. -1.
        -11    1    4    4    0    0 -0.87760847361E-01  0.72657796528E-01  0.90176179349E-02  0.11429217069E+00  0.51100000000E-03 0.  1.
         11    1    4    4    0    0 -0.12941795679E-01  0.47028669416E-02  0.61868793956E-02  0.15104490409E-01  0.51100000000E-03 0. -1.
</event>
<event>
 8    1  0.1150307E+005  0.1043930E+01  0.7957747E-01            NaN
         13   -1    0    0    0    0  0.00000000000E+00  0.00000000000E+00  0.74505805969E-08  0.10566000000E+00  0.10566000000E+00 0.  1.
     999900   -1    0    0    0    0 -0.00000000000E+00 -0.00000000000E+00 -0.74505805969E-08  0.93827000000E+00  0.93827000000E+00 0. -1.
     999902    2    1    2    0    0 -0.16574316172E-02  0.22107562559E-01 -0.57942511113E-02  0.10210157087E+01  0.10207585476E+01 0.  0.
     999903    2    3    3    0    0 -0.10736522273E+00 -0.52135788916E-01  0.47341724094E-01  0.12999963461E+00  0.20328173101E-01 0.  0.
         14    1    1    2    0    0  0.16574316172E-02 -0.22107562559E-01  0.57942511113E-02  0.22914291344E-01  0.00000000000E+00 0.  1.
     999901    1    3    3    0    0  0.10570779111E+00  0.74243351475E-01 -0.53135975205E-01  0.89101607404E+00  0.88000000000E+00 0. -1.
        -11    1    4    4    0    0 -0.35216426950E-01 -0.11717316634E-01  0.23497319032E-01  0.43930369438E-01  0.51100000000E-03 0. -1.
         11    1    4    4    0    0 -0.72148795780E-01 -0.40418472282E-01  0.23844405061E-01  0.86069265176E-01  0.51100000000E-03 0.  1.
</event>
<event>
 8    1  0.1327347E+005  0.1043930E+01  0.7957747E-01            NaN
         13   -1    0    0    0    0  0.00000000000E+00  0.00000000000E+00  0.74505805969E-08  0.10566000000E+00  0.10566000000E+00 0.  1.
     999900   -1    0    0    0    0 -0.00000000000E+00 -0.00000000000E+00 -0.74505805969E-08  0.93827000000E+00  0.93827000000E+00 0.  1.
     999902    2    1    2    0    0 -0.33530633099E-01 -0.13932175003E-01  0.60426130159E-02  0.10071207345E+01  0.10064478386E+01 0.  0.
     999903    2    3    3    0    0  0.43038087369E-02 -0.85826323986E-01 -0.80087420679E-01  0.11919134745E+00  0.20196576359E-01 0.  0.
         14    1    1    2    0    0  0.33530633099E-01  0.13932175003E-01 -0.60426130159E-02  0.36809265523E-01  0.00000000000E+00 0.  1.
     999901    1    3    3    0    0 -0.37834441835E-01  0.71894148983E-01  0.86130033694E-01  0.88792938703E+00  0.88000000000E+00 0. -1.
        -11    1    4    4    0    0  0.12457722313E-01 -0.53166032127E-01 -0.49344284544E-01  0.73599873339E-01  0.51100000000E-03 0. -1.
         11    1    4    4    0    0 -0.81539135761E-02 -0.32660291859E-01 -0.30743136135E-01  0.45591474108E-01  0.51100000000E-03 0.  1.
</event>
<event>
 8    1  0.1150307E+005  0.1043930E+01  0.7957747E-01            NaN
         13   -1    0    0    0    0  0.00000000000E+00  0.00000000000E+00  0.74505805969E-08  0.10566000000E+00  0.10566000000E+00 0. -1.
     999900   -1    0    0    0    0 -0.00000000000E+00 -0.00000000000E+00 -0.74505805969E-08  0.93827000000E+00  0.93827000000E+00 0.  1.
     999902    2    1    2    0    0 -0.25308401829E-01 -0.36995524472E-02  0.15557951748E-01  0.10139925359E+01  0.10135504976E+01 0.  0.
     999903    2    3    3    0    0 -0.11775405648E+00  0.11811923432E-01 -0.44357215414E-01  0.12698823370E+00  0.12365661580E-01 0.  0.
         14    1    1    2    0    0  0.25308401829E-01  0.36995524472E-02 -0.15557951748E-01  0.29937464055E-01  0.00000000000E+00 0.  1.
     999901    1    3    3    0    0  0.92445654650E-01 -0.15511475879E-01  0.59915167162E-01  0.88700430225E+00  0.88000000000E+00 0. -1.
        -11    1    4    4    0    0 -0.27893041347E-01  0.30833087148E-02 -0.50540447182E-02  0.28518994324E-01  0.51100000000E-03 0.  1.
         11    1    4    4    0    0 -0.89861015131E-01  0.87286147171E-02 -0.39303170696E-01  0.98469239375E-01  0.51100000000E-03 0. -1.
</event>
<event>
 8    1  0.1150307E+005  0.1043930E+01  0.7957747E-01            NaN
         13   -1    0    0    0    0  0.00000000000E+00  0.00000000000E+00  0.74505805969E-08  0.10566000000E+00  0.10566000000E+00 0.  1.
     999900   -1    0    0    0    0 -0.00000000000E+00 -0.00000000000E+00 -0.74505805969E-08  0.93827000000E+00  0.93827000000E+00 0. -1.
     999902    2    1    2    0    0  0.59034711194E-02  0.22462590692E-01 -0.37039851758E-02  0.10204111042E+01  0.10201400312E+01 0.  0.
     999903    2    3    3    0    0  0.75003326553E-01 -0.76784213041E-01  0.69094762102E-01  0.12916233106E+00  0.19685203827E-01 0.  0.
         14    1    1    2    0    0 -0.59034711194E-02 -0.22462590692E-01  0.37039851758E-02  0.23518895766E-01  0.00000000000E+00 0.  1.
     999901    1    3    3    0    0 -0.69099855433E-01  0.99246803733E-01 -0.72798747278E-01  0.89124877317E+00  0.88000000000E+00 0. -1.
        -11    1    4    4    0    0  0.39845720999E-01 -0.52637120388E-01  0.47657820890E-01  0.81424056259E-01  0.51100000000E-03 0. -1.
         11    1    4    4    0    0  0.35157605553E-01 -0.24147092653E-01  0.21436941212E-01  0.47738274805E-01  0.51100000000E-03 0.  1.
</event>
<event>
 8    1  0.1150307E+005  0.1043930E+01  0.7957747E-01            NaN
         13   -1    0    0    0    0  0.00000000000E+00  0.00000000000E+00  0.74505805969E-08  0.10566000000E+00  0.10566000000E+00 0. -1.
     999900   -1    0    0    0    0 -0.00000000000E+00 -0.00000000000E+00 -0.74505805969E-08  0.93827000000E+00  0.93827000000E+00 0. -1.
     999902    2    1    2    0    0 -0.19892912503E-01  0.11430503322E-01  0.63736187527E-03  0.10209780806E+01  0.10207200647E+01 0.  0.
     999903    2    3    3    0    0  0.10747069538E+00  0.49678340663E-01  0.48642596273E-01  0.12969311595E+00  0.20888136752E-01 0.  0.
         14    1    1    2    0    0  0.19892912503E-01 -0.11430503322E-01 -0.63736187527E-03  0.22951919401E-01  0.00000000000E+00 0. -1.
     999901    1    3    3    0    0 -0.12736360788E+00 -0.38247837341E-01 -0.48005234398E-01  0.89128496465E+00  0.88000000000E+00 0. -1.
        -11    1    4    4    0    0  0.57844507053E-01  0.22309067565E-01  0.15013003256E-01  0.63791322918E-01  0.51100000000E-03 0.  1.
         11    1    4    4    0    0  0.49626188326E-01  0.27369273098E-01  0.33629593017E-01  0.65901793034E-01  0.51100000000E-03 0. -1.
</event>
<event>
 8    1  0.1150307E+005  0.1043930E+01  0.7957747E-01            NaN
         13   -1    0    0    0    0  0.00000000000E+00  0.00000000000E+00  0.74505805969E-08  0.10566000000E+00  0.10566000000E+00 0. -1.
     999900   -1    0    0    0    0 -0.00000000000E+00 -0.00000000000E+00 -0.74505805969E-08  0.93827000000E+00  0.93827000000E+00 0.  1.
     999902    2    1    2    0    0 -0.22843081123E-02  0.23206981346E-01 -0.50459530801E-02  0.10200711717E+01  0.10197921119E+01 0.  0.
     999903    2    3    3    0    0  0.69680425664E-01  0.62382836807E-02  0.10745397724E+00  0.12983351018E+00  0.20398657740E-01 0.  0.
         14    1    1    2    0    0  0.22843081123E-02 -0.23206981346E-01  0.50459530801E-02  0.23858828329E-01  0.00000000000E+00 0. -1.
     999901    1    3    3    0    0 -0.71964733776E-01  0.16968697665E-01 -0.11249993032E+00  0.89023766149E+00  0.88000000000E+00 0.  1.
        -11    1    4    4    0    0  0.46795492284E-01  0.11615111706E-02  0.86654096824E-01  0.98490409806E-01  0.51100000000E-03 0. -1.
         11    1    4    4    0    0  0.22884933380E-01  0.50767725102E-02  0.20799880417E-01  0.31343100378E-01  0.51100000000E-03 0.  1.
</event>
<event>
 8    1  0.1150307E+005  0.1043930E+01  0.7957747E-01            NaN
         13   -1    0    0    0    0  0.00000000000E+00  0.00000000000E+00  0.74505805969E-08  0.10566000000E+00  0.10566000000E+00 0.  1.
     999900   -1    0    0    0    0 -0.00000000000E+00 -0.00000000000E+00 -0.74505805969E-08  0.93827000000E+00  0.93827000000E+00 0.  1.
     999902    2    1    2    0    0 -0.12812455988E-02 -0.33144169349E-02  0.23536984501E-01  0.10201262904E+01  0.10198485338E+01 0.  0.
     999903    2    3    3    0    0  0.12613747534E+00 -0.25389409291E-01  0.81770454721E-02  0.13054281292E+00  0.20476258046E-01 0.  0.
         14    1    1    2    0    0  0.12812455988E-02  0.33144169349E-02 -0.23536984501E-01  0.23803709570E-01  0.00000000000E+00 0. -1.
     999901    1    3    3    0    0 -0.12741872094E+00  0.22074992357E-01  0.15359939029E-01  0.88958347751E+00  0.88000000000E+00 0.  1.
        -11    1    4    4    0    0  0.35158717657E-01  0.17861412511E-02 -0.34063101301E-03  0.35209414626E-01  0.51100000000E-03 0. -1.
         11    1    4    4    0    0  0.90978757681E-01 -0.27175550543E-01  0.85176764851E-02  0.95333398293E-01  0.51100000000E-03 0.  1.
</event>
<event>
 8    1  0.1150307E+005  0.1043930E+01  0.7957747E-01            NaN
         13   -1    0    0    0    0  0.00000000000E+00  0.00000000000E+00  0.74505805969E-08  0.10566000000E+00  0.10566000000E+00 0.  1.
     999900   -1    0    0    0    0 -0.00000000000E+00 -0.00000000000E+00 -0.74505805969E-08  0.93827000000E+00  0.93827000000E+00 0.  1.
     999902    2    1    2    0    0 -0.22721462793E-02  0.88965611251E-02  0.22243986578E-01  0.10198653706E+01  0.10195814179E+01 0.  0.
     999903    2    3    3    0    0  0.62208254306E-01  0.22852868399E-01 -0.10759181739E+00  0.12789573180E+00  0.19728115608E-01 0.  0.
         14    1    1    2    0    0  0.22721462793E-02 -0.88965611251E-02 -0.22243986578E-01  0.24064629385E-01  0.00000000000E+00 0. -1.
     999901    1    3    3    0    0 -0.64480400586E-01 -0.13956307274E-01  0.12983580397E+00  0.89196963881E+00  0.88000000000E+00 0. -1.
        -11    1    4    4    0    0  0.61724209735E-01  0.19123511697E-01 -0.96206416013E-01  0.11589444495E+00  0.51100000000E-03 0. -1.
         11    1    4    4    0    0  0.48404457176E-03  0.37293567016E-02 -0.11385401379E-01  0.12001286852E-01  0.51100000000E-03 0.  1.
</event>
<event>
 8    1  0.1150307E+005  0.1043930E+01  0.7957747E-01            NaN
         13   -1    0    0    0    0  0.00000000000E+00  0.00000000000E+00  0.74505805969E-08  0.10566000000E+00  0.10566000000E+00 0. -1.
     999900   -1    0    0    0    0 -0.00000000000E+00 -0.00000000000E+00 -0.74505805969E-08  0.93827000000E+00  0.93827000000E+00 0.  1.
     999902    2    1    2    0    0 -0.16736129645E-01 -0.86934940025E-02 -0.14711725827E-01  0.10200111842E+01  0.10197307027E+01 0.  0.
     999903    2    3    3    0    0  0.63462937711E-01 -0.63472542745E-01  0.89826217458E-01  0.12851759689E+00  0.19791796859E-01 0.  0.
         14    1    1    2    0    0  0.16736129645E-01  0.86934940025E-02  0.14711725827E-01  0.23918815820E-01  0.00000000000E+00 0.  1.
     999901    1    3    3    0    0 -0.80199067356E-01  0.54779048743E-01 -0.10453794329E+00  0.89149358729E+00  0.88000000000E+00 0.  1.
        -11    1    4    4    0    0  0.45759847127E-01 -0.32226794985E-01  0.53224241939E-01  0.77237367738E-01  0.51100000000E-03 0. -1.
         11    1    4    4    0    0  0.17703090584E-01 -0.31245747760E-01  0.36601975519E-01  0.51280229155E-01  0.51100000000E-03 0.  1.
</event>
<event>
 8    1  0.1150307E+005  0.1043930E+01  0.7957747E-01            NaN
         13   -1    0    0    0    0  0.00000000000E+00  0.00000000000E+00  0.74505805969E-08  0.10566000000E+00  0.10566000000E+00 0. -1.
     999900   -1    0    0    0    0 -0.00000000000E+00 -0.00000000000E+00 -0.74505805969E-08  0.93827000000E+00  0.93827000000E+00 0. -1.
     999902    2    1    2    0    0  0.14362932856E-01 -0.48602647226E-03 -0.19144061770E-01  0.10199920560E+01  0.10197111204E+01 0.  0.
     999903    2    3    3    0    0  0.85485496403E-01 -0.86962568123E-01 -0.47582760580E-01  0.13244184847E+00  0.20160996275E-01 0.  0.
         14    1    1    2    0    0 -0.14362932856E-01  0.48602647226E-03  0.19144061770E-01  0.23937944001E-01  0.00000000000E+00 0. -1.
     999901    1    3    3    0    0 -0.71122563548E-01  0.86476541651E-01  0.28438698810E-01  0.88755020753E+00  0.88000000000E+00 0.  1.
        -11    1    4    4    0    0  0.64952728932E-01 -0.71036383841E-01 -0.29131945915E-01  0.10056816703E+00  0.51100000000E-03 0. -1.
         11    1    4    4    0    0  0.20532767471E-01 -0.15926184282E-01 -0.18450814665E-01  0.31873681441E-01  0.51100000000E-03 0.  1.
</event>
<event>
 8    1  0.1150307E+005  0.1043930E+01  0.7957747E-01            NaN
         13   -1    0    0    0    0  0.00000000000E+00  0.00000000000E+00  0.74505805969E-08  0.10566000000E+00  0.10566000000E+00 0.  1.
     999900   -1    0    0    0    0 -0.00000000000E+00 -0.00000000000E+00 -0.74505805969E-08  0.93827000000E+00  0.93827000000E+00 0. -1.
     999902    2    1    2    0    0  0.21203954561E-01  0.14828583974E-01 -0.25391455208E-03  0.10180541606E+01  0.10177252649E+01 0.  0.
     999903    2    3    3    0    0 -0.52937514661E-01  0.20772008259E-01  0.11253285919E+00  0.12774346311E+00  0.20515632676E-01 0.  0.
         14    1    1    2    0    0 -0.21203954561E-01 -0.14828583974E-01  0.25391455208E-03  0.25875839393E-01  0.00000000000E+00 0.  1.
     999901    1    3    3    0    0  0.74141469221E-01 -0.59434242852E-02 -0.11278677374E+00  0.89031069750E+00  0.88000000000E+00 0. -1.
        -11    1    4    4    0    0 -0.60477698098E-02  0.59756798516E-02  0.34294141625E-01  0.35336009114E-01  0.51100000000E-03 0.  1.
         11    1    4    4    0    0 -0.46889744851E-01  0.14796328408E-01  0.78238717564E-01  0.92407453994E-01  0.51100000000E-03 0. -1.
</event>
<event>
 8    1  0.1150307E+005  0.1043930E+01  0.7957747E-01            NaN
         13   -1    0    0    0    0  0.00000000000E+00  0.00000000000E+00  0.74505805969E-08  0.10566000000E+00  0.10566000000E+00 0. -1.
     999900   -1    0    0    0    0 -0.00000000000E+00 -0.00000000000E+00 -0.74505805969E-08  0.93827000000E+00  0.93827000000E+00 0. -1.
     999902    2    1    2    0    0 -0.46817590900E-03  0.22302414757E-01 -0.68819714036E-02  0.10205852271E+01  0.10203181990E+01 0.  0.
     999903    2    3    3    0    0  0.62280345821E-01 -0.74903711534E-01  0.81506617985E-01  0.12862169043E+00  0.20268275608E-01 0.  0.
         14    1    1    2    0    0  0.46817590900E-03 -0.22302414757E-01  0.68819714036E-02  0.23344772928E-01  0.00000000000E+00 0. -1.
     999901    1    3    3    0    0 -0.62748521730E-01  0.97206126291E-01 -0.88388589389E-01  0.89196353664E+00  0.88000000000E+00 0. -1.
        -11    1    4    4    0    0  0.22313320582E-01 -0.42172406855E-01  0.35938130699E-01  0.59734466889E-01  0.51100000000E-03 0.  1.
         11    1    4    4    0    0  0.39967025239E-01 -0.32731304679E-01  0.45568487286E-01  0.68887223539E-01  0.51100000000E-03 0. -1.
</event>
<event>
 8    1  0.1150307E+005  0.1043930E+01  0.7957747E-01            NaN
         13   -1    0    0    0    0  0.00000000000E+00  0.00000000000E+00  0.74505805969E-08  0.10566000000E+00  0.10566000000E+00 0. -1.
     999900   -1    0    0    0    0 -0.00000000000E+00 -0.00000000000E+00 -0.74505805969E-08  0.93827000000E+00  0.93827000000E+00 0. -1.
     999902    2    1    2    0    0  0.11849069903E-01  0.14381723855E-01  0.13660402964E-01  0.10208249995E+01  0.10205634907E+01 0.  0.
     999903    2    3    3    0    0 -0.73902878554E-01  0.92902706507E-01  0.54732202374E-01  0.13222732109E+00  0.19897289548E-01 0.  0.
         14    1    1    2    0    0 -0.11849069903E-01 -0.14381723855E-01 -0.13660402964E-01  0.23105000492E-01  0.00000000000E+00 0.  1.
     999901    1    3    3    0    0  0.85751948457E-01 -0.78520982652E-01 -0.41071799410E-01  0.88859767842E+00  0.88000000000E+00 0. -1.
        -11    1    4    4    0    0 -0.84953007000E-02  0.18313952583E-01  0.15855640877E-01  0.25675542094E-01  0.51100000000E-03 0. -1.
         11    1    4    4    0    0 -0.65407577854E-01  0.74588753924E-01  0.38876561497E-01  0.10655177900E+00  0.51100000000E-03 0.  1.
</event>
<event>
 8    1  0.1150307E+005  0.1043930E+01  0.7957747E-01            NaN
         13   -1    0    0    0    0  0.00000000000E+00  0.00000000000E+00  0.74505805969E-08  0.10566000000E+00  0.10566000000E+00 0.  1.
     999900   -1    0    0    0    0 -0.00000000000E+00 -0.00000000000E+00 -0.74505805969E-08  0.93827000000E+00  0.93827000000E+00 0.  1.
     999902    2    1    2    0    0  0.49952288262E-02 -0.94378210187E-02 -0.20837665549E-01  0.10205156223E+01  0.10202469810E+01 0.  0.
     999903    2    3    3    0    0 -0.72556194756E-01 -0.87987412910E-01  0.58903999645E-01  0.13004215564E+00  0.20858927164E-01 0.  0.
         14    1    1    2    0    0 -0.49952288262E-02  0.94378210187E-02  0.20837665549E-01  0.23414377680E-01  0.00000000000E+00 0.  1.
     999901    1    3    3    0    0  0.77551423582E-01  0.78549591891E-01 -0.79741665194E-01  0.89047346668E+00  0.88000000000E+00 0.  1.
        -11    1    4    4    0    0 -0.52142374594E-01 -0.61400381911E-01  0.30611819432E-01  0.86175279152E-01  0.51100000000E-03 0. -1.
         11    1    4    4    0    0 -0.20413820162E-01 -0.26587030999E-01  0.28292180213E-01  0.43866876492E-01  0.51100000000E-03 0.  1.
</event>
<event>
 8    1  0.1150307E+005  0.1043930E+01  0.7957747E-01            NaN
         13   -1    0    0    0    0  0.00000000000E+00  0.00000000000E+00  0.74505805969E-08  0.10566000000E+00  0.10566000000E+00 0.  1.
     999900   -1    0    0    0    0 -0.00000000000E+00 -0.00000000000E+00 -0.74505805969E-08  0.93827000000E+00  0.93827000000E+00 0. -1.
     999902    2    1    2    0    0 -0.11857541240E-01  0.13207520390E-01  0.46943144279E-03  0.10261744306E+01  0.10260208096E+01 0.  0.
     999903    2    3    3    0    0  0.10233045836E+00  0.72914090405E-01  0.46357190745E-01  0.13560749868E+00  0.21270102895E-01 0.  0.
         14    1    1    2    0    0  0.11857541240E-01 -0.13207520390E-01 -0.46943144279E-03  0.17755569408E-01  0.00000000000E+00 0. -1.
     999901    1    3    3    0    0 -0.11418799960E+00 -0.59706570015E-01 -0.45887759302E-01  0.89056693191E+00  0.88000000000E+00 0. -1.
        -11    1    4    4    0    0  0.41867782600E-01  0.19843129810E-01  0.23599686157E-01  0.51998724294E-01  0.51100000000E-03 0.  1.
         11    1    4    4    0    0  0.60462675762E-01  0.53070960595E-01  0.22757504588E-01  0.83608774389E-01  0.51100000000E-03 0. -1.
</event>
<event>
 8    1  0.1150307E+005  0.1043930E+01  0.7957747E-01            NaN
         13   -1    0    0    0    0  0.00000000000E+00  0.00000000000E+00  0.74505805969E-08  0.10566000000E+00  0.10566000000E+00 0.  1.
     999900   -1    0    0    0    0 -0.00000000000E+00 -0.00000000000E+00 -0.74505805969E-08  0.93827000000E+00  0.93827000000E+00 0. -1.
     999902    2    1    2    0    0  0.80623585321E-02  0.13444783134E-01  0.17544610293E-01  0.10204017793E+01  0.10201304887E+01 0.  0.
     999903    2    3    3    0    0 -0.98938777483E-01 -0.11616722873E-01  0.82879275661E-01  0.13116281216E+00  0.20270150959E-01 0.  0.
         14    1    1    2    0    0 -0.80623585321E-02 -0.13444783134E-01 -0.17544610293E-01  0.23528220692E-01  0.00000000000E+00 0. -1.
     999901    1    3    3    0    0  0.10700113602E+00  0.25061506006E-01 -0.65334665368E-01  0.88923896715E+00  0.88000000000E+00 0. -1.
        -11    1    4    4    0    0 -0.87065309576E-01 -0.63559426992E-02  0.78629600419E-01  0.11748889872E+00  0.51100000000E-03 0.  1.
         11    1    4    4    0    0 -0.11873467907E-01 -0.52607801734E-02  0.42496752424E-02  0.13673913443E-01  0.51100000000E-03 0. -1.
</event>
<event>
 8    1  0.1150307E+005  0.1043930E+01  0.7957747E-01            NaN
         13   -1    0    0    0    0  0.00000000000E+00  0.00000000000E+00  0.74505805969E-08  0.10566000000E+00  0.10566000000E+00 0.  1.
     999900   -1    0    0    0    0 -0.00000000000E+00 -0.00000000000E+00 -0.74505805969E-08  0.93827000000E+00  0.93827000000E+00 0.  1.
     999902    2    1    2    0    0  0.72599493395E-02 -0.21657084877E-01 -0.69159854464E-02  0.10200643962E+01  0.10197851761E+01 0.  0.
     999903    2    3    3    0    0  0.10283456185E+00 -0.14082353728E-01 -0.78377613306E-01  0.13197732426E+00  0.22398751148E-01 0.  0.
         14    1    1    2    0    0 -0.72599493395E-02  0.21657084877E-01  0.69159854464E-02  0.23865603795E-01  0.00000000000E+00 0. -1.
     999901    1    3    3    0    0 -0.95574612509E-01 -0.75747311496E-02  0.71461627859E-01  0.88808707195E+00  0.88000000000E+00 0. -1.
        -11    1    4    4    0    0  0.69564678474E-01 -0.11373979876E-01 -0.65410805921E-01  0.96163644698E-01  0.51100000000E-03 0.  1.
         11    1    4    4    0    0  0.33269883374E-01 -0.27083738516E-02 -0.12966807385E-01  0.35813679557E-01  0.51100000000E-03 0. -1.
</event>
<event>
 8    1  0.1150307E+005  0.1043930E+01  0.7957747E-01            NaN
         13   -1    0    0    0    0  0.00000000000E+00  0.00000000000E+00  0.74505805969E-08  0.10566000000E+00  0.10566000000E+00 0. -1.
     999900   -1    0    0    0    0 -0.00000000000E+00 -0.00000000000E+00 -0.74505805969E-08  0.93827000000E+00  0.93827000000E+00 0. -1.
     999902    2    1    2    0    0  0.14037344177E-03 -0.84451485819E-02 -0.23786319115E-01  0.10186885813E+01  0.10183758130E+01 0.  0.
     999903    2    3    3    0    0 -0.11292052758E+00 -0.53732353917E-01 -0.30757686221E-01  0.13027297011E+00  0.19667233492E-01 0.  0.
         14    1    1    2    0    0 -0.14037344177E-03  0.84451485819E-02  0.23786319115E-01  0.25241418667E-01  0.00000000000E+00 0. -1.
     999901    1    3    3    0    0  0.11306090102E+00  0.45287205335E-01  0.69713671058E-02  0.88841561122E+00  0.88000000000E+00 0.  1.
        -11    1    4    4    0    0 -0.28292437053E-01 -0.44799030171E-02 -0.79868773931E-02  0.29741937679E-01  0.51100000000E-03 0.  1.
         11    1    4    4    0    0 -0.84628090526E-01 -0.49252450900E-01 -0.22770808828E-01  0.10053103243E+00  0.51100000000E-03 0. -1.
</event>
<event>
 8    1  0.1150307E+005  0.1043930E+01  0.7957747E-01            NaN
         13   -1    0    0    0    0  0.00000000000E+00  0.00000000000E+00  0.74505805969E-08  0.10566000000E+00  0.10566000000E+00 0.  1.
     999900   -1    0    0    0    0 -0.00000000000E+00 -0.00000000000E+00 -0.74505805969E-08  0.93827000000E+00  0.93827000000E+00 0. -1.
     999902    2    1    2    0    0  0.35267860350E-02  0.21669583775E-01  0.61357855683E-02  0.10211340147E+01  0.10208795321E+01 0.  0.
     999903    2    3    3    0    0 -0.11135158000E-01 -0.10540333167E+00 -0.70040608288E-01  0.12862892149E+00  0.20145931708E-01 0.  0.
         14    1    1    2    0    0 -0.35267860350E-02 -0.21669583775E-01 -0.61357855683E-02  0.22795985288E-01  0.00000000000E+00 0.  1.
     999901    1    3    3    0    0  0.14661944035E-01  0.12707291544E+00  0.76176393856E-01  0.89250509322E+00  0.88000000000E+00 0.  1.
        -11    1    4    4    0    0  0.37504643483E-02 -0.36313222218E-01 -0.17062596601E-01  0.40300240874E-01  0.51100000000E-03 0.  1.
         11    1    4    4    0    0 -0.14885622348E-01 -0.69090109451E-01 -0.52978011686E-01  0.88328680619E-01  0.51100000000E-03 0. -1.
</event>
<event>
 8    1  0.1150307E+005  0.1043930E+01  0.7957747E-01            NaN
         13   -1    0    0    0    0  0.00000000000E+00  0.00000000000E+00  0.74505805969E-08  0.10566000000E+00  0.10566000000E+00 0. -1.
     999900   -1    0    0    0    0 -0.00000000000E+00 -0.00000000000E+00 -0.74505805969E-08  0.93827000000E+00  0.93827000000E+00 0.  1.
     999902    2    1    2    0    0 -0.17509512886E-01  0.15632444000E-01  0.15769979395E-02  0.10204046250E+01  0.10201334008E+01 0.  0.
     999903    2    3    3    0    0  0.64117950160E-01 -0.68430402639E-01  0.85409570665E-01  0.12868857985E+00  0.21728421125E-01 0.  0.
         14    1    1    2    0    0  0.17509512886E-01 -0.15632444000E-01 -0.15769979395E-02  0.23525375011E-01  0.00000000000E+00 0.  1.
     999901    1    3    3    0    0 -0.81627463046E-01  0.84062846639E-01 -0.83832572725E-01  0.89171604514E+00  0.88000000000E+00 0.  1.
        -11    1    4    4    0    0  0.48969614037E-01 -0.37464633687E-01  0.51614599080E-01  0.80411130047E-01  0.51100000000E-03 0.  1.
         11    1    4    4    0    0  0.15148336124E-01 -0.30965768952E-01  0.33794971585E-01  0.48277449803E-01  0.51100000000E-03 0. -1.
</event>
<event>
 8    1  0.1150307E+005  0.1043930E+01  0.7957747E-01            NaN
         13   -1    0    0    0    0  0.00000000000E+00  0.00000000000E+00  0.74505805969E-08  0.10566000000E+00  0.10566000000E+00 0.  1.
     999900   -1    0    0    0    0 -0.00000000000E+00 -0.00000000000E+00 -0.74505805969E-08  0.93827000000E+00  0.93827000000E+00 0.  1.
     999902    2    1    2    0    0  0.21141053311E-01  0.74466891045E-03 -0.16366829511E-02  0.10227126157E+01  0.10224925021E+01 0.  0.
     999903    2    3    3    0    0 -0.45876594296E-01  0.38138984109E-01 -0.11606295302E+00  0.13199208083E+00  0.19800412234E-01 0.  0.
         14    1    1    2    0    0 -0.21141053311E-01 -0.74466891045E-03  0.16366829511E-02  0.21217384334E-01  0.00000000000E+00 0.  1.
     999901    1    3    3    0    0  0.67017647607E-01 -0.37394315199E-01  0.11442627007E+00  0.89072053484E+00  0.88000000000E+00 0. -1.
        -11    1    4    4    0    0 -0.39501767277E-01  0.24049556357E-01 -0.96824875199E-01  0.10730372015E+00  0.51100000000E-03 0.  1.
         11    1    4    4    0    0 -0.63748270186E-02  0.14089427753E-01 -0.19238077820E-01  0.24688360681E-01  0.51100000000E-03 0. -1.
</event>
<event>
 8    1  0.1150307E+005  0.1043930E+01  0.7957747E-01            NaN
         13   -1    0    0    0    0  0.00000000000E+00  0.00000000000E+00  0.74505805969E-08  0.10566000000E+00  0.10566000000E+00 0.  1.
     999900   -1    0    0    0    0 -0.00000000000E+00 -0.00000000000E+00 -0.74505805969E-08  0.93827000000E+00  0.93827000000E+00 0. -1.
     999902    2    1    2    0    0 -0.10584731321E-01 -0.10912968244E-01 -0.20273930954E-01  0.10185890906E+01  0.10182738206E+01 0.  0.
     999903    2    3    3    0    0 -0.45138106373E-01 -0.10007462502E+00  0.65386390568E-01  0.12927394541E+00  0.19595756445E-01 0.  0.
         14    1    1    2    0    0  0.10584731321E-01  0.10912968244E-01  0.20273930954E-01  0.25340909403E-01  0.00000000000E+00 0.  1.
     999901    1    3    3    0    0  0.34553375053E-01  0.89161656781E-01 -0.85660321523E-01  0.88931514518E+00  0.88000000000E+00 0. -1.
        -11    1    4    4    0    0 -0.14836895499E-01 -0.34689603531E-01  0.12027077143E-01  0.39603203997E-01  0.51100000000E-03 0. -1.
         11    1    4    4    0    0 -0.30301210874E-01 -0.65385021493E-01  0.53359313426E-01  0.89670741418E-01  0.51100000000E-03 0.  1.
</event>
<event>
 8    1  0.1150307E+005  0.1043930E+01  0.7957747E-01            NaN
         13   -1    0    0    0    0  0.00000000000E+00  0.00000000000E+00  0.74505805969E-08  0.10566000000E+00  0.10566000000E+00 0. -1.
     999900   -1    0    0    0    0 -0.00000000000E+00 -0.00000000000E+00 -0.74505805969E-08  0.93827000000E+00  0.93827000000E+00 0.  1.
     999902    2    1    2    0    0 -0.23938490195E-02  0.10398679920E-01  0.21528711506E-01  0.10199019232E+01  0.10196188427E+01 0.  0.
     999903    2    3    3    0    0 -0.98942309157E-02  0.58282374933E-01  0.11788021248E+00  0.13331706219E+00  0.19569454353E-01 0.  0.
         14    1    1    2    0    0  0.23938490195E-02 -0.10398679920E-01 -0.21528711506E-01  0.24028076834E-01  0.00000000000E+00 0.  1.
     999901    1    3    3    0    0  0.75003818962E-02 -0.47883695013E-01 -0.96351500970E-01  0.88658486098E+00  0.88000000000E+00 0.  1.
        -11    1    4    4    0    0 -0.26184957693E-02  0.34313260733E-01  0.86942625761E-01  0.93506885722E-01  0.51100000000E-03 0. -1.
         11    1    4    4    0    0 -0.72757351464E-02  0.23969114201E-01  0.30937586716E-01  0.39810176466E-01  0.51100000000E-03 0.  1.
</event>
<event>
 8    1  0.1150307E+005  0.1043930E+01  0.7957747E-01            NaN
         13   -1    0    0    0    0  0.00000000000E+00  0.00000000000E+00  0.74505805969E-08  0.10566000000E+00  0.10566000000E+00 0. -1.
     999900   -1    0    0    0    0 -0.00000000000E+00 -0.00000000000E+00 -0.74505805969E-08  0.93827000000E+00  0.93827000000E+00 0. -1.
     999902    2    1    2    0    0  0.94922168657E-02 -0.96491154542E-02  0.17419798716E-01  0.10218696963E+01  0.10216315477E+01 0.  0.
     999903    2    3    3    0    0 -0.22073060646E-02 -0.39645696350E-01 -0.12236384214E+00  0.13025535149E+00  0.20417964882E-01 0.  0.
         14    1    1    2    0    0 -0.94922168657E-02  0.96491154542E-02 -0.17419798716E-01  0.22060303655E-01  0.00000000000E+00 0.  1.
     999901    1    3    3    0    0  0.11699522930E-01  0.29996580895E-01  0.13978364085E+00  0.89161434486E+00  0.88000000000E+00 0.  1.
        -11    1    4    4    0    0 -0.28379142576E-02 -0.41221460588E-01 -0.10558349589E+00  0.11338164885E+00  0.51100000000E-03 0.  1.
         11    1    4    4    0    0  0.63060819295E-03  0.15757642385E-02 -0.16780346244E-01  0.16873702637E-01  0.51100000000E-03 0. -1.
</event>
<event>
 8    1  0.1150307E+005  0.1043930E+01  0.7957747E-01            NaN
         13   -1    0    0    0    0  0.00000000000E+00  0.00000000000E+00  0.74505805969E-08  0.10566000000E+00  0.10566000000E+00 0.  1.
     999900   -1    0    0    0    0 -0.00000000000E+00 -0.00000000000E+00 -0.74505805969E-08  0.93827000000E+00  0.93827000000E+00 0. -1.
     999902    2    1    2    0    0 -0.54385945475E-02 -0.14251350943E-01 -0.17100658618E-01  0.10210146811E+01  0.10207574968E+01 0.  0.
     999903    2    3    3    0    0  0.11163604249E+00  0.60714347103E-01 -0.16541474235E-01  0.13010130755E+00  0.22447537218E-01 0.  0.
         14    1    1    2    0    0  0.54385945475E-02  0.14251350943E-01  0.17100658618E-01  0.22915318883E-01  0.00000000000E+00 0.  1.
     999901    1    3    3    0    0 -0.11707463704E+00 -0.74965698045E-01 -0.55918438236E-03  0.89091337357E+00  0.88000000000E+00 0. -1.
        -11    1    4    4    0    0  0.68641083136E-01  0.40399956263E-01 -0.20902805214E-01  0.82346482299E-01  0.51100000000E-03 0. -1.
         11    1    4    4    0    0  0.42994959359E-01  0.20314390840E-01  0.43613309788E-02  0.47754825247E-01  0.51100000000E-03 0.  1.
</event>
<event>
 7    1  0.1150307E+005  0.1043930E+01  0.7957747E-01            NaN
         13   -1    0    0    0    0  0.00000000000E+00  0.00000000000E+00  0.74505805969E-08  0.10566000000E+00  0.10566000000E+00 0. -1.
     999900   -1    0    0    0    0 -0.00000000000E+00 -0.00000000000E+00 -0.74505805969E-08  0.93827000000E+00  0.93827000000E+00 0.  1.
     999903    2    1    2    0    0 -0.19596949485E-01 -0.37972502951E-01 -0.10197028606E+00  0.11195188624E+00  0.17587898793E-01 0.  0.
         14    1    1    2    0    0 -0.23305214360E-02  0.14449641417E-01 -0.37646243338E-01  0.40391374138E-01  0.00000000000E+00 0.  1.
     999901    1    1    2    0    0  0.21927470921E-01  0.23522861533E-01  0.13961652940E+00  0.89158673963E+00  0.88000000000E+00 0. -1.
        -11    1    3    3    0    0 -0.99825326254E-02 -0.11710063524E-01 -0.19366390995E-01  0.24740549034E-01  0.51100000000E-03 0.  1.
         11    1    3    3    0    0 -0.96144168597E-02 -0.26262439427E-01 -0.82603895062E-01  0.87211337203E-01  0.51100000000E-03 0. -1.
</event>
<event>
 8    1  0.1150307E+005  0.1043930E+01  0.7957747E-01            NaN
         13   -1    0    0    0    0  0.00000000000E+00  0.00000000000E+00  0.74505805969E-08  0.10566000000E+00  0.10566000000E+00 0.  1.
     999900   -1    0    0    0    0 -0.00000000000E+00 -0.00000000000E+00 -0.74505805969E-08  0.93827000000E+00  0.93827000000E+00 0.  1.
     999902    2    1    2    0    0 -0.11865046967E-01 -0.11381361336E-01 -0.18011452145E-01  0.10195429720E+01  0.10192512667E+01 0.  0.
     999903    2    3    3    0    0 -0.10553020163E+00 -0.57014462524E-01 -0.53279811750E-01  0.13269495893E+00  0.19543320915E-01 0.  0.
         14    1    1    2    0    0  0.11865046967E-01  0.11381361336E-01  0.18011452145E-01  0.24387027982E-01  0.00000000000E+00 0.  1.
     999901    1    3    3    0    0  0.93665154668E-01  0.45633101187E-01  0.35268359604E-01  0.88684801308E+00  0.88000000000E+00 0.  1.
        -11    1    4    4    0    0 -0.94689817096E-01 -0.45997281665E-01 -0.51293434034E-01  0.11710332565E+00  0.51100000000E-03 0.  1.
         11    1    4    4    0    0 -0.10840384539E-01 -0.11017180859E-01 -0.19863777153E-02  0.15591633284E-01  0.51100000000E-03 0. -1.
</event>
<event>
 8    1  0.1150307E+005  0.1043930E+01  0.7957747E-01            NaN
         13   -1    0    0    0    0  0.00000000000E+00  0.00000000000E+00  0.74505805969E-08  0.10566000000E+00  0.10566000000E+00 0. -1.
     999900   -1    0    0    0    0 -0.00000000000E+00 -0.00000000000E+00 -0.74505805969E-08  0.93827000000E+00  0.93827000000E+00 0. -1.
     999902    2    1    2    0    0  0.29178562268E-02 -0.14150610844E-01  0.13516233379E-01  0.10241451008E+01  0.10239539761E+01 0.  0.
     999903    2    3    3    0    0 -0.83435738698E-01  0.71691698834E-01  0.73307221599E-01  0.13375147560E+00  0.20354024520E-01 0.  0.
         14    1    1    2    0    0 -0.29178562268E-02  0.14150610844E-01 -0.13516233379E-01  0.19784899216E-01  0.00000000000E+00 0.  1.
     999901    1    3    3    0    0  0.86353594924E-01 -0.85842309678E-01 -0.59790988220E-01  0.89039362518E+00  0.88000000000E+00 0.  1.
        -11    1    4    4    0    0 -0.55763884684E-01  0.54160139464E-01  0.60771746226E-01  0.98673186845E-01  0.51100000000E-03 0.  1.
         11    1    4    4    0    0 -0.27671854014E-01  0.17531559370E-01  0.12535475374E-01  0.35078288760E-01  0.51100000000E-03 0. -1.
</event>
<event>
 8    1  0.1150307E+005  0.1043930E+01  0.7957747E-01            NaN
         13   -1    0    0    0    0  0.00000000000E+00  0.00000000000E+00  0.74505805969E-08  0.10566000000E+00  0.10566000000E+00 0. -1.
     999900   -1    0    0    0    0 -0.00000000000E+00 -0.00000000000E+00 -0.74505805969E-08  0.93827000000E+00  0.93827000000E+00 0.  1.
     999902    2    1    2    0    0  0.14992272403E-01  0.13961641378E-01 -0.22394219689E-03  0.10234423010E+01  0.10232372147E+01 0.  0.
     999903    2    3    3    0    0 -0.72659556220E-01 -0.10444765664E+00  0.22227599175E-01  0.13091349099E+00  0.21343661136E-01 0.  0.
         14    1    1    2    0    0 -0.14992272403E-01 -0.13961641378E-01  0.22394219689E-03  0.20487699039E-01  0.00000000000E+00 0. -1.
     999901    1    3    3    0    0  0.87651828623E-01  0.11840929802E+00 -0.22451541372E-01  0.89252880997E+00  0.88000000000E+00 0. -1.
        -11    1    4    4    0    0 -0.34141565566E-01 -0.67160007984E-01  0.14932691759E-01  0.76807288560E-01  0.51100000000E-03 0.  1.
         11    1    4    4    0    0 -0.38517990654E-01 -0.37287648655E-01  0.72949074165E-02  0.54106202431E-01  0.51100000000E-03 0. -1.
</event>
<event>
 8    1  0.1150307E+005  0.1043930E+01  0.7957747E-01            NaN
         13   -1    0    0    0    0  0.00000000000E+00  0.00000000000E+00  0.74505805969E-08  0.10566000000E+00  0.10566000000E+00 0.  1.
     999900   -1    0    0    0    0 -0.00000000000E+00 -0.00000000000E+00 -0.74505805969E-08  0.93827000000E+00  0.93827000000E+00 0. -1.
     999902    2    1    2    0    0 -0.19575878840E-01 -0.46726685229E-03  0.72232564282E-02  0.10230587565E+01  0.10228458391E+01 0.  0.
     999903    2    3    3    0    0 -0.58055089185E-01 -0.21910754262E-01  0.11828656154E+00  0.13498469964E+00  0.19459803754E-01 0.  0.
         14    1    1    2    0    0  0.19575878840E-01  0.46726685229E-03 -0.72232564282E-02  0.20871243472E-01  0.00000000000E+00 0. -1.
     999901    1    3    3    0    0  0.38479210345E-01  0.21443487409E-01 -0.11106330511E+00  0.88807405689E+00  0.88000000000E+00 0. -1.
        -11    1    4    4    0    0 -0.29012666560E-01 -0.39576690513E-02  0.39998320745E-01  0.49573427848E-01  0.51100000000E-03 0.  1.
         11    1    4    4    0    0 -0.29042422625E-01 -0.17953085210E-01  0.78288240796E-01  0.85411271788E-01  0.51100000000E-03 0. -1.
</event>
<event>
 8    1  0.1150307E+005  0.1043930E+01  0.7957747E-01            NaN
         13   -1    0    0    0    0  0.00000000000E+00  0.00000000000E+00  0.74505805969E-08  0.10566000000E+00  0.10566000000E+00 0.  1.
     999900   -1    0    0    0    0 -0.00000000000E+00 -0.00000000000E+00 -0.74505805969E-08  0.93827000000E+00  0.93827000000E+00 0. -1.
     999902    2    1    2    0    0  0.41042308548E-02 -0.30877296603E-01  0.10555866310E-01  0.10110411194E+01  0.10105060448E+01 0.  0.
     999903    2    3    3    0    0 -0.10755150501E+00 -0.11478873164E-01  0.54055945357E-01  0.12270809675E+00  0.20883989565E-01 0.  0.
         14    1    1    2    0    0 -0.41042308548E-02  0.30877296603E-01 -0.10555866310E-01  0.32888880644E-01  0.00000000000E+00 0. -1.
     999901    1    3    3    0    0  0.11165573586E+00 -0.19398423439E-01 -0.43500079047E-01  0.88833302261E+00  0.88000000000E+00 0. -1.
        -11    1    4    4    0    0 -0.25996984260E-01  0.35326697359E-02  0.61978496428E-02  0.26962889446E-01  0.51100000000E-03 0. -1.
         11    1    4    4    0    0 -0.81554520747E-01 -0.15011542900E-01  0.47858095714E-01  0.95745207300E-01  0.51100000000E-03 0.  1.
</event>
<event>
 8    1  0.1150307E+005  0.1043930E+01  0.7957747E-01            NaN
         13   -1    0    0    0    0  0.00000000000E+00  0.00000000000E+00  0.74505805969E-08  0.10566000000E+00  0.10566000000E+00 0.  1.
     999900   -1    0    0    0    0 -0.00000000000E+00 -0.00000000000E+00 -0.74505805969E-08  0.93827000000E+00  0.93827000000E+00 0. -1.
     999902    2    1    2    0    0  0.20710317233E-01  0.10280565572E-01 -0.29296360870E-02  0.10206235623E+01  0.10203574207E+01 0.  0.
     999903    2    3    3    0    0 -0.66441477225E-01  0.65075416826E-01  0.88885055389E-01  0.12987789238E+00  0.17844721526E-01 0.  0.
         14    1    1    2    0    0 -0.20710317233E-01 -0.10280565572E-01  0.29296360870E-02  0.23306437651E-01  0.00000000000E+00 0.  1.
     999901    1    3    3    0    0  0.87151794458E-01 -0.54794851253E-01 -0.91814691476E-01  0.89074566997E+00  0.88000000000E+00 0. -1.
        -11    1    4    4    0    0 -0.39156830753E-01  0.49315425457E-01  0.55075071667E-01  0.83658790469E-01  0.51100000000E-03 0. -1.
         11    1    4    4    0    0 -0.27284646472E-01  0.15759991369E-01  0.33809983722E-01  0.46219101910E-01  0.51100000000E-03 0.  1.
</event>
<event>
 8    1  0.1150307E+005  0.1043930E+01  0.7957747E-01            NaN
         13   -1    0    0    0    0  0.00000000000E+00  0.00000000000E+00  0.74505805969E-08  0.10566000000E+00  0.10566000000E+00 0.  1.
     999900   -1    0    0    0    0 -0.00000000000E+00 -0.00000000000E+00 -0.74505805969E-08  0.93827000000E+00  0.93827000000E+00 0. -1.
     999902    2    1    2    0    0  0.20242918228E-01  0.10806834469E-01 -0.58180419442E-02  0.10202569558E+01  0.10199822757E+01 0.  0.
     999903    2    3    3    0    0 -0.48011921327E-01  0.11363024512E+00  0.37670734832E-01  0.13058136852E+00  0.20382157555E-01 0.  0.
         14    1    1    2    0    0 -0.20242918228E-01 -0.10806834469E-01  0.58180419442E-02  0.23673044200E-01  0.00000000000E+00 0.  1.
     999901    1    3    3    0    0  0.68254839555E-01 -0.10282341065E+00 -0.43488776776E-01  0.88967558728E+00  0.88000000000E+00 0. -1.
        -11    1    4    4    0    0 -0.15636190590E-01  0.62498917896E-01  0.21769657361E-01  0.68005766645E-01  0.51100000000E-03 0. -1.
         11    1    4    4    0    0 -0.32375730737E-01  0.51131327220E-01  0.15901077470E-01  0.62575601873E-01  0.51100000000E-03 0.  1.
</event>
<event>
 8    1  0.1150307E+005  0.1043930E+01  0.7957747E-01            NaN
         13   -1    0    0    0    0  0.00000000000E+00  0.00000000000E+00  0.74505805969E-08  0.10566000000E+00  0.10566000000E+00 0. -1.
     999900   -1    0    0    0    0 -0.00000000000E+00 -0.00000000000E+00 -0.74505805969E-08  0.93827000000E+00  0.93827000000E+00 0. -1.
     999902    2    1    2    0    0  0.12616092833E-01  0.25413341939E-03  0.20527294869E-01  0.10198343527E+01  0.10195496588E+01 0.  0.
     999903    2    3    3    0    0  0.65708087440E-01  0.84331688476E-01 -0.70418700956E-01  0.12957654215E+00  0.20047453602E-01 0.  0.
         14    1    1    2    0    0 -0.12616092833E-01 -0.25413341939E-03 -0.20527294869E-01  0.24095647258E-01  0.00000000000E+00 0.  1.
     999901    1    3    3    0    0 -0.53091994607E-01 -0.84077555057E-01  0.90945995825E-01  0.89025781059E+00  0.88000000000E+00 0.  1.
        -11    1    4    4    0    0  0.35301780559E-01  0.60710544599E-01 -0.43900666599E-01  0.82822192588E-01  0.51100000000E-03 0.  1.
         11    1    4    4    0    0  0.30406306882E-01  0.23621143877E-01 -0.26518034357E-01  0.46754349566E-01  0.51100000000E-03 0. -1.
</event>
<event>
 8    1  0.1150307E+005  0.1043930E+01  0.7957747E-01            NaN
         13   -1    0    0    0    0  0.00000000000E+00  0.00000000000E+00  0.74505805969E-08  0.10566000000E+00  0.10566000000E+00 0. -1.
     999900   -1    0    0    0    0 -0.00000000000E+00 -0.00000000000E+00 -0.74505805969E-08  0.93827000000E+00  0.93827000000E+00 0.  1.
     999902    2    1    2    0    0  0.11441197885E-02  0.14291831050E-01  0.18719089642E-01  0.10203509890E+01  0.10200785121E+01 0.  0.
     999903    2    3    3    0    0  0.12334074902E+00 -0.18183479677E-01 -0.29968886870E-01  0.12998186266E+00  0.21297209609E-01 0.  0.
         14    1    1    2    0    0 -0.11441197885E-02 -0.14291831050E-01 -0.18719089642E-01  0.23579011045E-01  0.00000000000E+00 0.  1.
     999901    1    3    3    0    0 -0.12219662924E+00  0.32475310727E-01  0.48687976512E-01  0.89036912630E+00  0.88000000000E+00 0. -1.
        -11    1    4    4    0    0  0.27058199053E-01  0.13446436788E-02 -0.13826733662E-01  0.30420287431E-01  0.51100000000E-03 0.  1.
         11    1    4    4    0    0  0.96282549971E-01 -0.19528123356E-01 -0.16142153208E-01  0.99561575229E-01  0.51100000000E-03 0. -1.
</event>
<event>
 8    1  0.1150307E+005  0.1043930E+01  0.7957747E-01            NaN
         13   -1    0    0    0    0  0.00000000000E+00  0.00000000000E+00  0.74505805969E-08  0.10566000000E+00  0.10566000000E+00 0.  1.
     999900   -1    0    0    0    0 -0.00000000000E+00 -0.00000000000E+00 -0.74505805969E-08  0.93827000000E+00  0.93827000000E+00 0.  1.
     999902    2    1    2    0    0  0.15994361644E-01  0.16563015305E-01 -0.58019567564E-02  0.10201851946E+01  0.10199088271E+01 0.  0.
     999903    2    3    3    0    0  0.20062039332E-01  0.50860187534E-01 -0.11874884568E+00  0.13229452469E+00  0.20280749835E-01 0.  0.
         14    1    1    2    0    0 -0.15994361644E-01 -0.16563015305E-01  0.58019567564E-02  0.23744805381E-01  0.00000000000E+00 0.  1.
     999901    1    3    3    0    0 -0.40676776881E-02 -0.34297172229E-01  0.11294688893E+00  0.88789066993E+00  0.88000000000E+00 0. -1.
        -11    1    4    4    0    0 -0.12200702386E-02  0.23761631866E-01 -0.45694536247E-01  0.51520437539E-01  0.51100000000E-03 0. -1.
         11    1    4    4    0    0  0.21282109571E-01  0.27098555668E-01 -0.73054309437E-01  0.80774087153E-01  0.51100000000E-03 0.  1.
</event>
<event>
 8    1  0.1150307E+005  0.1043930E+01  0.7957747E-01            NaN
         13   -1    0    0    0    0  0.00000000000E+00  0.00000000000E+00  0.74505805969E-08  0.10566000000E+00  0.10566000000E+00 0. -1.
     999900   -1    0    0    0    0 -0.00000000000E+00 -0.00000000000E+00 -0.74505805969E-08  0.93827000000E+00  0.93827000000E+00 0.  1.
     999902    2    1    2    0    0  0.13514160326E-01  0.11341673185E-01 -0.16446233336E-01  0.10198106163E+01  0.10195253545E+01 0.  0.
     999903    2    3    3    0    0 -0.19804921566E-01 -0.11209982474E+00 -0.58556203599E-01  0.12957401053E+00  0.20049678298E-01 0.  0.
         14    1    1    2    0    0 -0.13514160326E-01 -0.11341673185E-01  0.16446233336E-01  0.24119383717E-01  0.00000000000E+00 0. -1.
     999901    1    3    3    0    0  0.33319081892E-01  0.12344149792E+00  0.42109970263E-01  0.89023660575E+00  0.88000000000E+00 0.  1.
        -11    1    4    4    0    0 -0.14137743292E-01 -0.65695551800E-01 -0.45070764747E-01  0.80916106355E-01  0.51100000000E-03 0.  1.
         11    1    4    4    0    0 -0.56671782737E-02 -0.46404272940E-01 -0.13485438851E-01  0.48657904175E-01  0.51100000000E-03 0. -1.
</event>
<event>
 8    1  0.1150307E+005  0.1043930E+01  0.7957747E-01            NaN
         13   -1    0    0    0    0  0.00000000000E+00  0.00000000000E+00  0.74505805969E-08  0.10566000000E+00  0.10566000000E+00 0. -1.
     999900   -1    0    0    0    0 -0.00000000000E+00 -0.00000000000E+00 -0.74505805969E-08  0.93827000000E+00  0.93827000000E+00 0.  1.
     999902    2    1    2    0    0  0.11637937518E-01  0.54078606178E-02  0.18255629662E-01  0.10216151045E+01  0.10213713660E+01 0.  0.
     999903    2    3    3    0    0  0.12255635636E+00 -0.47401051902E-01 -0.46533600352E-02  0.13278638159E+00  0.18537776860E-01 0.  0.
         14    1    1    2    0    0 -0.11637937518E-01 -0.54078606178E-02 -0.18255629662E-01  0.22314895485E-01  0.00000000000E+00 0.  1.
     999901    1    3    3    0    0 -0.11091841884E+00  0.52808912520E-01  0.22908989697E-01  0.88882872292E+00  0.88000000000E+00 0. -1.
        -11    1    4    4    0    0  0.65105234238E-01 -0.25652401489E-01  0.67556417719E-02  0.70303890675E-01  0.51100000000E-03 0.  1.
         11    1    4    4    0    0  0.57451122125E-01 -0.21748650414E-01 -0.11409001807E-01  0.62482490919E-01  0.51100000000E-03 0. -1.
</event>
<event>
 8    1  0.1150307E+005  0.1043930E+01  0.7957747E-01            NaN
         13   -1    0    0    0    0  0.00000000000E+00  0.00000000000E+00  0.74505805969E-08  0.10566000000E+00  0.10566000000E+00 0. -1.
     999900   -1    0    0    0    0 -0.00000000000E+00 -0.00000000000E+00 -0.74505805969E-08  0.93827000000E+00  0.93827000000E+00 0. -1.
     999902    2    1    2    0    0  0.20376101994E-01  0.11890552621E-01 -0.36446410697E-02  0.10200583812E+01  0.10197790187E+01 0.  0.
     999903    2    3    3    0    0 -0.11124359571E+00  0.61919515565E-01  0.17731501824E-02  0.12884797150E+00  0.19735544161E-01 0.  0.
         14    1    1    2    0    0 -0.20376101994E-01 -0.11890552621E-01  0.36446410697E-02  0.23871618769E-01  0.00000000000E+00 0.  1.
     999901    1    3    3    0    0  0.13161969770E+00 -0.50028962944E-01 -0.54177912521E-02  0.89121040973E+00  0.88000000000E+00 0. -1.
        -11    1    4    4    0    0 -0.11247073771E-01  0.15232524858E-02  0.38855866637E-02  0.12007325734E-01  0.51100000000E-03 0. -1.
         11    1    4    4    0    0 -0.99996521938E-01  0.60396263079E-01 -0.21124364813E-02  0.11684064576E+00  0.51100000000E-03 0.  1.
</event>
<event>
 8    1  0.1150307E+005  0.1043930E+01  0.7957747E-01            NaN
         13   -1    0    0    0    0  0.00000000000E+00  0.00000000000E+00  0.74505805969E-08  0.10566000000E+00  0.10566000000E+00 0. -1.
     999900   -1    0    0    0    0 -0.00000000000E+00 -0.00000000000E+00 -0.74505805969E-08  0.93827000000E+00  0.93827000000E+00 0.  1.
     999902    2    1    2    0    0 -0.14517745263E-02 -0.15242003818E-01 -0.18579029801E-01  0.10198549781E+01  0.10195707772E+01 0.  0.
     999903    2    3    3    0    0  0.75355376457E-01 -0.10620412010E+00 -0.20042372732E-02  0.13168372843E+00  0.19463799199E-01 0.  0.
         14    1    1    2    0    0  0.14517745263E-02  0.15242003818E-01  0.18579029801E-01  0.24075021870E-01  0.00000000000E+00 0. -1.
     999901    1    3    3    0    0 -0.76807150983E-01  0.90962116284E-01 -0.16574792528E-01  0.88817124970E+00  0.88000000000E+00 0.  1.
        -11    1    4    4    0    0  0.74020997897E-01 -0.99629402951E-01 -0.52165677304E-02  0.12422801521E+00  0.51100000000E-03 0.  1.
         11    1    4    4    0    0  0.13343785599E-02 -0.65747171515E-02  0.32123304572E-02  0.74557132274E-02  0.51100000000E-03 0. -1.
</event>
<event>
 8    1  0.1150307E+005  0.1043930E+01  0.7957747E-01            NaN
         13   -1    0    0    0    0  0.00000000000E+00  0.00000000000E+00  0.74505805969E-08  0.10566000000E+00  0.10566000000E+00 0.  1.
     999900   -1    0    0    0    0 -0.00000000000E+00 -0.00000000000E+00 -0.74505805969E-08  0.93827000000E+00  0.93827000000E+00 0.  1.
     999902    2    1    2    0    0  0.41980416920E-02 -0.11775054555E-01  0.24659175706E-01  0.10162831121E+01  0.10159069906E+01 0.  0.
     999903    2    3    3    0    0 -0.10750640629E-01  0.93883269180E-02  0.12707810718E+00  0.12996432671E+00  0.23198360625E-01 0.  0.
         14    1    1    2    0    0 -0.41980416920E-02  0.11775054555E-01 -0.24659175706E-01  0.27646887896E-01  0.00000000000E+00 0. -1.
     999901    1    3    3    0    0  0.14948682321E-01 -0.21163381473E-01 -0.10241893148E+00  0.88631878539E+00  0.88000000000E+00 0.  1.
        -11    1    4    4    0    0 -0.47887045811E-03 -0.67852500443E-02  0.18717551444E-01  0.19921766692E-01  0.51100000000E-03 0. -1.
         11    1    4    4    0    0 -0.10271770171E-01  0.16173576962E-01  0.10836055574E+00  0.11004256002E+00  0.51100000000E-03 0.  1.
</event>
<event>
 8    1  0.1150307E+005  0.1043930E+01  0.7957747E-01            NaN
         13   -1    0    0    0    0  0.00000000000E+00  0.00000000000E+00  0.74505805969E-08  0.10566000000E+00  0.10566000000E+00 0. -1.
     999900   -1    0    0    0    0 -0.00000000000E+00 -0.00000000000E+00 -0.74505805969E-08  0.93827000000E+00  0.93827000000E+00 0.  1.
     999902    2    1    2    0    0  0.17821277975E-01 -0.34044302857E-02  0.15157854344E-01  0.10202879053E+01  0.10200139514E+01 0.  0.
     999903    2    3    3    0    0  0.49989493994E-01 -0.15221173432E-01 -0.11700215700E+00  0.12975958000E+00  0.20430619867E-01 0.  0.
         14    1    1    2    0    0 -0.17821277975E-01  0.34044302857E-02 -0.15157854344E-01  0.23642094716E-01  0.00000000000E+00 0.  1.
     999901    1    3    3    0    0 -0.32168216019E-01  0.11816743147E-01  0.13216001134E+00  0.89052832529E+00  0.88000000000E+00 0. -1.
        -11    1    4    4    0    0  0.14592846084E-01 -0.25416110073E-02 -0.15178456106E-01  0.21214560898E-01  0.51100000000E-03 0. -1.
         11    1    4    4    0    0  0.35396647910E-01 -0.12679562425E-01 -0.10182370089E+00  0.10854501910E+00  0.51100000000E-03 0.  1.
</event>
<event>
 8    1  0.1150307E+005  0.1043930E+01  0.7957747E-01            NaN
         13   -1    0    0    0    0  0.00000000000E+00  0.00000000000E+00  0.74505805969E-08  0.10566000000E+00  0.10566000000E+00 0.  1.
     999900   -1    0    0    0    0 -0.00000000000E+00 -0.00000000000E+00 -0.74505805969E-08  0.93827000000E+00  0.93827000000E+00 0. -1.
     999902    2    1    2    0    0  0.18820176761E-01  0.12293281926E-01  0.72518874525E-02  0.10203098030E+01  0.10200363623E+01 0.  0.
     999903    2    3    3    0    0  0.10072020880E+00  0.69210833567E-01  0.50673863122E-01  0.13361217084E+00  0.18699514731E-01 0.  0.
         14    1    1    2    0    0 -0.18820176761E-01 -0.12293281926E-01 -0.72518874525E-02  0.23620196982E-01  0.00000000000E+00 0. -1.
     999901    1    3    3    0    0 -0.81900032034E-01 -0.56917551642E-01 -0.43421975670E-01  0.88669763217E+00  0.88000000000E+00 0. -1.
        -11    1    4    4    0    0  0.44447273901E-01  0.19512927454E-01  0.20587299220E-01  0.52729616965E-01  0.51100000000E-03 0. -1.
         11    1    4    4    0    0  0.56272934894E-01  0.49697906113E-01  0.30086563902E-01  0.80882553879E-01  0.51100000000E-03 0.  1.
</event>
<event>
 8    1  0.1150307E+005  0.1043930E+01  0.7957747E-01            NaN
         13   -1    0    0    0    0  0.00000000000E+00  0.00000000000E+00  0.74505805969E-08  0.10566000000E+00  0.10566000000E+00 0. -1.
     999900   -1    0    0    0    0 -0.00000000000E+00 -0.00000000000E+00 -0.74505805969E-08  0.93827000000E+00  0.93827000000E+00 0.  1.
     999902    2    1    2    0    0  0.23425484483E-01 -0.13039242565E-02 -0.11568154370E-02  0.10204397517E+01  0.10201693463E+01 0.  0.
     999903    2    3    3    0    0 -0.29157502314E-02  0.10830086489E+00 -0.70345033002E-01  0.13055544470E+00  0.18939945563E-01 0.  0.
         14    1    1    2    0    0 -0.23425484483E-01  0.13039242565E-02  0.11568154370E-02  0.23490248268E-01  0.00000000000E+00 0. -1.
     999901    1    3    3    0    0  0.26341234715E-01 -0.10960478915E+00  0.69188217565E-01  0.88988430703E+00  0.88000000000E+00 0. -1.
        -11    1    4    4    0    0  0.58735628001E-02  0.67794476276E-01 -0.49556798437E-01  0.84182700990E-01  0.51100000000E-03 0.  1.
         11    1    4    4    0    0 -0.87893130315E-02  0.40506388613E-01 -0.20788234564E-01  0.46372743712E-01  0.51100000000E-03 0. -1.
</event>
<event>
 8    1  0.1150307E+005  0.1043930E+01  0.7957747E-01            NaN
         13   -1    0    0    0    0  0.00000000000E+00  0.00000000000E+00  0.74505805969E-08  0.10566000000E+00  0.10566000000E+00 0.  1.
     999900   -1    0    0    0    0 -0.00000000000E+00 -0.00000000000E+00 -0.74505805969E-08  0.93827000000E+00  0.93827000000E+00 0. -1.
     999902    2    1    2    0    0  0.15575575819E-01  0.13547380753E-01 -0.13644020356E-01  0.10191855182E+01  0.10188850922E+01 0.  0.
     999903    2    3    3    0    0  0.10251410451E+00 -0.23918515206E-01  0.73385240393E-01  0.12983963873E+00  0.19791444755E-01 0.  0.
         14    1    1    2    0    0 -0.15575575819E-01 -0.13547380753E-01  0.13644020356E-01  0.24744481785E-01  0.00000000000E+00 0.  1.
     999901    1    3    3    0    0 -0.86938528689E-01  0.37465895958E-01 -0.87029260748E-01  0.88934587948E+00  0.88000000000E+00 0. -1.
        -11    1    4    4    0    0  0.41887491807E-01  0.44537919200E-04  0.30175757735E-01  0.51627525889E-01  0.51100000000E-03 0.  1.
         11    1    4    4    0    0  0.60626612700E-01 -0.23963053125E-01  0.43209482658E-01  0.78212112841E-01  0.51100000000E-03 0. -1.
</event>
<event>
 8    1  0.1150307E+005  0.1043930E+01  0.7957747E-01            NaN
         13   -1    0    0    0    0  0.00000000000E+00  0.00000000000E+00  0.74505805969E-08  0.10566000000E+00  0.10566000000E+00 0. -1.
     999900   -1    0    0    0    0 -0.00000000000E+00 -0.00000000000E+00 -0.74505805969E-08  0.93827000000E+00  0.93827000000E+00 0.  1.
     999902    2    1    2    0    0 -0.39558648931E-02  0.12358967636E-01  0.20642603415E-01  0.10195474238E+01  0.10192558262E+01 0.  0.
     999903    2    3    3    0    0  0.19517041238E-01  0.84596054474E-01  0.98541482905E-01  0.13284713085E+00  0.20013220375E-01 0.  0.
         14    1    1    2    0    0  0.39558648931E-02 -0.12358967636E-01 -0.20642603415E-01  0.24382576234E-01  0.00000000000E+00 0.  1.
     999901    1    3    3    0    0 -0.23472906131E-01 -0.72237086838E-01 -0.77898879490E-01  0.88670029292E+00  0.88000000000E+00 0.  1.
        -11    1    4    4    0    0  0.13909148260E-01  0.40572607408E-01  0.61817410565E-01  0.75241306788E-01  0.51100000000E-03 0. -1.
         11    1    4    4    0    0  0.56078929774E-02  0.44023447066E-01  0.36724072340E-01  0.57605824058E-01  0.51100000000E-03 0.  1.
</event>
<event>
 8    1  0.1150307E+005  0.1043930E+01  0.7957747E-01            NaN
         13   -1    0    0    0    0  0.00000000000E+00  0.00000000000E+00  0.74505805969E-08  0.10566000000E+00  0.10566000000E+00 0.  1.
     999900   -1    0    0    0    0 -0.00000000000E+00 -0.00000000000E+00 -0.74505805969E-08  0.93827000000E+00  0.93827000000E+00 0. -1.
     999902    2    1    2    0    0 -0.11322664939E-02 -0.13651607047E-01  0.18682063469E-01  0.10207639063E+01  0.10205009968E+01 0.  0.
     999903    2    3    3    0    0 -0.47802037246E-01  0.90858590425E-01  0.79358489239E-01  0.13127974256E+00  0.19906852433E-01 0.  0.
         14    1    1    2    0    0  0.11322664939E-02  0.13651607047E-01 -0.18682063469E-01  0.23166093711E-01  0.00000000000E+00 0. -1.
     999901    1    3    3    0    0  0.46669770753E-01 -0.10451019747E+00 -0.60676425770E-01  0.88948416373E+00  0.88000000000E+00 0. -1.
        -11    1    4    4    0    0 -0.29430323829E-01  0.43513501562E-01  0.50479015921E-01  0.72855754393E-01  0.51100000000E-03 0. -1.
         11    1    4    4    0    0 -0.18371713417E-01  0.47345088863E-01  0.28879473318E-01  0.58423988168E-01  0.51100000000E-03 0.  1.
</event>
<event>
 8    1  0.1150307E+005  0.1043930E+01  0.7957747E-01            NaN
         13   -1    0    0    0    0  0.00000000000E+00  0.00000000000E+00  0.74505805969E-08  0.10566000000E+00  0.10566000000E+00 0. -1.
     999900   -1    0    0    0    0 -0.00000000000E+00 -0.00000000000E+00 -0.74505805969E-08  0.93827000000E+00  0.93827000000E+00 0. -1.
     999902    2    1    2    0    0  0.14664840886E-01  0.16546520915E-01  0.87060269744E-02  0.10201678490E+01  0.10198910728E+01 0.  0.
     999903    2    3    3    0    0  0.10437248021E+00 -0.46727987700E-01 -0.59915532531E-01  0.13069607185E+00  0.20358602543E-01 0.  0.
         14    1    1    2    0    0 -0.14664840886E-01 -0.16546520915E-01 -0.87060269744E-02  0.23762150961E-01  0.00000000000E+00 0.  1.
     999901    1    3    3    0    0 -0.89707639325E-01  0.63274508615E-01  0.68621559506E-01  0.88947177719E+00  0.88000000000E+00 0. -1.
        -11    1    4    4    0    0  0.72324790045E-01 -0.39292749684E-01 -0.50105475526E-01  0.96361897198E-01  0.51100000000E-03 0.  1.
         11    1    4    4    0    0  0.32047690166E-01 -0.74352380157E-02 -0.98100570052E-02  0.34334174648E-01  0.51100000000E-03 0. -1.
</event>
<event>
 8    1  0.1150307E+005  0.1043930E+01  0.7957747E-01            NaN
         13   -1    0    0    0    0  0.00000000000E+00  0.00000000000E+00  0.74505805969E-08  0.10566000000E+00  0.10566000000E+00 0. -1.
     999900   -1    0    0    0    0 -0.00000000000E+00 -0.00000000000E+00 -0.74505805969E-08  0.93827000000E+00  0.93827000000E+00 0.  1.
     999902    2    1    2    0    0  0.12007883733E-01 -0.98736158195E-02  0.19632222315E-01  0.10188880010E+01  0.10185802162E+01 0.  0.
     999903    2    3    3    0    0  0.51495575149E-01  0.11492379482E+00 -0.16754182523E-01  0.12846246119E+00  0.19042805170E-01 0.  0.
         14    1    1    2    0    0 -0.12007883733E-01  0.98736158195E-02 -0.19632222315E-01  0.25041999004E-01  0.00000000000E+00 0.  1.
     999901    1    3    3    0    0 -0.39487691416E-01 -0.12479741064E+00  0.36386404837E-01  0.89042553980E+00  0.88000000000E+00 0. -1.
        -11    1    4    4    0    0  0.23467380683E-01  0.39086175912E-01  0.13284144535E-02  0.45612201323E-01  0.51100000000E-03 0.  1.
         11    1    4    4    0    0  0.28028194466E-01  0.75837618905E-01 -0.18082596976E-01  0.82850259871E-01  0.51100000000E-03 0. -1.
</event>
<event>
 8    1  0.1150307E+005  0.1043930E+01  0.7957747E-01            NaN
         13   -1    0    0    0    0  0.00000000000E+00  0.00000000000E+00  0.74505805969E-08  0.10566000000E+00  0.10566000000E+00 0. -1.
     999900   -1    0    0    0    0 -0.00000000000E+00 -0.00000000000E+00 -0.74505805969E-08  0.93827000000E+00  0.93827000000E+00 0. -1.
     999902    2    1    2    0    0 -0.22370769766E-01  0.17732545420E-01 -0.16186545378E-01  0.10111138644E+01  0.10105811931E+01 0.  0.
     999903    2    3    3    0    0 -0.49223303581E-01 -0.77516941821E-01 -0.79760617754E-01  0.12328776311E+00  0.20157045972E-01 0.  0.
         14    1    1    2    0    0  0.22370769766E-01 -0.17732545420E-01  0.16186545378E-01  0.32816135639E-01  0.00000000000E+00 0. -1.
     999901    1    3    3    0    0  0.26852533815E-01  0.95249487241E-01  0.63574072376E-01  0.88782610126E+00  0.88000000000E+00 0.  1.
        -11    1    4    4    0    0 -0.18883421683E-01 -0.44230675222E-01 -0.32782414414E-01  0.58205532906E-01  0.51100000000E-03 0. -1.
         11    1    4    4    0    0 -0.30339881898E-01 -0.33286266599E-01 -0.46978203340E-01  0.65082230200E-01  0.51100000000E-03 0.  1.
</event>
<event>
 8    1  0.1150307E+005  0.1043930E+01  0.7957747E-01            NaN
         13   -1    0    0    0    0  0.00000000000E+00  0.00000000000E+00  0.74505805969E-08  0.10566000000E+00  0.10566000000E+00 0.  1.
     999900   -1    0    0    0    0 -0.00000000000E+00 -0.00000000000E+00 -0.74505805969E-08  0.93827000000E+00  0.93827000000E+00 0.  1.
     999902    2    1    2    0    0 -0.18115757489E-01  0.44993798656E-02  0.14675503436E-01  0.10201856219E+01  0.10199092645E+01 0.  0.
     999903    2    3    3    0    0  0.54225318582E-02 -0.76719987194E-01 -0.10103072419E+00  0.12859234708E+00  0.20332835766E-01 0.  0.
         14    1    1    2    0    0  0.18115757489E-01 -0.44993798656E-02 -0.14675503436E-01  0.23744378065E-01  0.00000000000E+00 0. -1.
     999901    1    3    3    0    0 -0.23538289348E-01  0.81219367059E-01  0.11570622763E+00  0.89159327485E+00  0.88000000000E+00 0. -1.
        -11    1    4    4    0    0 -0.44304909044E-02 -0.58402773939E-01 -0.70687734044E-01  0.91801580154E-01  0.51100000000E-03 0. -1.
         11    1    4    4    0    0  0.98530227626E-02 -0.18317213255E-01 -0.30342990149E-01  0.36790766928E-01  0.51100000000E-03 0.  1.
</event>
<event>
 8    1  0.1150307E+005  0.1043930E+01  0.7957747E-01            NaN
         13   -1    0    0    0    0  0.00000000000E+00  0.00000000000E+00  0.74505805969E-08  0.10566000000E+00  0.10566000000E+00 0.  1.
     999900   -1    0    0    0    0 -0.00000000000E+00 -0.00000000000E+00 -0.74505805969E-08  0.93827000000E+00  0.93827000000E+00 0. -1.
     999902    2    1    2    0    0  0.74132354856E-02  0.17172421043E-01 -0.15055234312E-01  0.10199194151E+01  0.10196367516E+01 0.  0.
     999903    2    3    3    0    0  0.77135615523E-01  0.78790385074E-01  0.67966443417E-01  0.13112777323E+00  0.20426147918E-01 0.  0.
         14    1    1    2    0    0 -0.74132354856E-02 -0.17172421043E-01  0.15055234312E-01  0.24010584854E-01  0.00000000000E+00 0. -1.
     999901    1    3    3    0    0 -0.69722380038E-01 -0.61617964031E-01 -0.83021677729E-01  0.88879164192E+00  0.88000000000E+00 0. -1.
        -11    1    4    4    0    0  0.46843666854E-01  0.60635221897E-01  0.42884743870E-01  0.87808437161E-01  0.51100000000E-03 0. -1.
         11    1    4    4    0    0  0.30291948669E-01  0.18155163177E-01  0.25081699548E-01  0.43319336068E-01  0.51100000000E-03 0.  1.
</event>
<event>
 8    1  0.1150307E+005  0.1043930E+01  0.7957747E-01            NaN
         13   -1    0    0    0    0  0.00000000000E+00  0.00000000000E+00  0.74505805969E-08  0.10566000000E+00  0.10566000000E+00 0.  1.
     999900   -1    0    0    0    0 -0.00000000000E+00 -0.00000000000E+00 -0.74505805969E-08  0.93827000000E+00  0.93827000000E+00 0.  1.
     999902    2    1    2    0    0  0.50538895133E-02  0.11308647360E-01 -0.20090576597E-01  0.10203279117E+01  0.10200548950E+01 0.  0.
     999903    2    3    3    0    0  0.14151316152E-01  0.63155721785E-01 -0.11489572919E+00  0.13367189088E+00  0.21868719253E-01 0.  0.
         14    1    1    2    0    0 -0.50538895133E-02 -0.11308647360E-01  0.20090576597E-01  0.23602088305E-01  0.00000000000E+00 0.  1.
     999901    1    3    3    0    0 -0.90974266383E-02 -0.51847074425E-01  0.94805152590E-01  0.88665602082E+00  0.88000000000E+00 0. -1.
        -11    1    4    4    0    0  0.34361991080E-02  0.83722024562E-02 -0.48585940026E-02  0.10284371394E-01  0.51100000000E-03 0.  1.
         11    1    4    4    0    0  0.10715117044E-01  0.54783519329E-01 -0.11003713518E+00  0.12338751948E+00  0.51100000000E-03 0. -1.
</event>
<event>
 8    1  0.1150307E+005  0.1043930E+01  0.7957747E-01            NaN
         13   -1    0    0    0    0  0.00000000000E+00  0.00000000000E+00  0.74505805969E-08  0.10566000000E+00  0.10566000000E+00 0. -1.
     999900   -1    0    0    0    0 -0.00000000000E+00 -0.00000000000E+00 -0.74505805969E-08  0.93827000000E+00  0.93827000000E+00 0.  1.
     999902    2    1    2    0    0 -0.55233012864E-02 -0.28012404990E-02 -0.23076884361E-01  0.10200365616E+01  0.10197566821E+01 0.  0.
     999903    2    3    3    0    0 -0.18982615599E-01 -0.12755026796E+00  0.65097640815E-02  0.13064416074E+00  0.19902491208E-01 0.  0.
         14    1    1    2    0    0  0.55233012864E-02  0.28012404990E-02  0.23076884361E-01  0.23893438372E-01  0.00000000000E+00 0. -1.
     999901    1    3    3    0    0  0.13459314312E-01  0.12474902746E+00 -0.29586648442E-01  0.88939240089E+00  0.88000000000E+00 0.  1.
        -11    1    4    4    0    0 -0.51885148823E-02 -0.75745961506E-01 -0.39239926224E-02  0.76026509918E-01  0.51100000000E-03 0.  1.
         11    1    4    4    0    0 -0.13794100716E-01 -0.51804306450E-01  0.10433756704E-01  0.54617650822E-01  0.51100000000E-03 0. -1.
</event>
<event>
 8    1  0.1150307E+005  0.1043930E+01  0.7957747E-01            NaN
         13   -1    0    0    0    0  0.00000000000E+00  0.00000000000E+00  0.74505805969E-08  0.10566000000E+00  0.10566000000E+00 0. -1.
     999900   -1    0    0    0    0 -0.00000000000E+00 -0.00000000000E+00 -0.74505805969E-08  0.93827000000E+00  0.93827000000E+00 0.  1.
     999902    2    1    2    0    0  0.74668459418E-02  0.19410928395E-01  0.42042004165E-02  0.10227117713E+01  0.10224916400E+01 0.  0.
     999903    2    3    3    0    0 -0.46563066820E-01  0.12473572243E+00 -0.34231582963E-02  0.13475303331E+00  0.20482732534E-01 0.  0.
         14    1    1    2    0    0 -0.74668459418E-02 -0.19410928395E-01 -0.42042004165E-02  0.21218228734E-01  0.00000000000E+00 0.  1.
     999901    1    3    3    0    0  0.54029912762E-01 -0.10532479403E+00  0.76273587128E-02  0.88795873796E+00  0.88000000000E+00 0. -1.
        -11    1    4    4    0    0 -0.29610992180E-01  0.71415278853E-01 -0.11695740249E-01  0.78192099169E-01  0.51100000000E-03 0.  1.
         11    1    4    4    0    0 -0.16952074640E-01  0.53320443575E-01  0.82725819529E-02  0.56560934141E-01  0.51100000000E-03 0. -1.
</event>
<event>
 8    1  0.1150307E+005  0.1043930E+01  0.7957747E-01            NaN
         13   -1    0    0    0    0  0.00000000000E+00  0.00000000000E+00  0.74505805969E-08  0.10566000000E+00  0.10566000000E+00 0. -1.
     999900   -1    0    0    0    0 -0.00000000000E+00 -0.00000000000E+00 -0.74505805969E-08  0.93827000000E+00  0.93827000000E+00 0. -1.
     999902    2    1    2    0    0 -0.13100440606E-01 -0.93561396565E-02  0.16310870696E-01  0.10210126835E+01  0.10207554538E+01 0.  0.
     999903    2    3    3    0    0 -0.86132472613E-01  0.96283532249E-01 -0.11766822645E-01  0.13124767246E+00  0.19954247429E-01 0.  0.
         14    1    1    2    0    0  0.13100440606E-01  0.93561396565E-02 -0.16310870696E-01  0.22917316515E-01  0.00000000000E+00 0.  1.
     999901    1    3    3    0    0  0.73032032007E-01 -0.10563967191E+00  0.28077693342E-01  0.88976501102E+00  0.88000000000E+00 0. -1.
        -11    1    4    4    0    0 -0.89369189199E-02  0.85078481029E-02  0.46731361242E-02  0.13204216045E-01  0.51100000000E-03 0. -1.
         11    1    4    4    0    0 -0.77195553693E-01  0.87775684146E-01 -0.16439958770E-01  0.11804345642E+00  0.51100000000E-03 0.  1.
</event>
<event>
 7    1  0.1150307E+005  0.1043930E+01  0.7957747E-01            NaN
         13   -1    0    0    0    0  0.00000000000E+00  0.00000000000E+00  0.74505805969E-08  0.10566000000E+00  0.10566000000E+00 0. -1.
     999900   -1    0    0    0    0 -0.00000000000E+00 -0.00000000000E+00 -0.74505805969E-08  0.93827000000E+00  0.93827000000E+00 0.  1.
     999903    2    1    2    0    0  0.47995197324E-01  0.96686235011E-01  0.18148987057E-01  0.11116664537E+00  0.19413147752E-01 0.  0.
         14    1    1    2    0    0 -0.25946260401E-01 -0.43015643731E-01 -0.74739625735E-02  0.50787933123E-01  0.00000000000E+00 0.  1.
     999901    1    1    2    0    0 -0.22048936924E-01 -0.53670591281E-01 -0.10675024483E-01  0.88197542150E+00  0.88000000000E+00 0. -1.
        -11    1    3    3    0    0  0.12409898636E-01  0.45542190156E-01  0.48387763300E-02  0.47452834960E-01  0.51100000000E-03 0. -1.
         11    1    3    3    0    0  0.35585298688E-01  0.51144044855E-01  0.13310210727E-01  0.63713810414E-01  0.51100000000E-03 0.  1.
</event>
<event>
 8    1  0.1150307E+005  0.1043930E+01  0.7957747E-01            NaN
         13   -1    0    0    0    0  0.00000000000E+00  0.00000000000E+00  0.74505805969E-08  0.10566000000E+00  0.10566000000E+00 0. -1.
     999900   -1    0    0    0    0 -0.00000000000E+00 -0.00000000000E+00 -0.74505805969E-08  0.93827000000E+00  0.93827000000E+00 0.  1.
     999902    2    1    2    0    0 -0.52507940168E-02 -0.18186471345E-01 -0.13034449244E-01  0.10209470619E+01  0.10206883401E+01 0.  0.
     999903    2    3    3    0    0 -0.60634596084E-01  0.52170820748E-01  0.99591180349E-01  0.12926211386E+00  0.19797527507E-01 0.  0.
         14    1    1    2    0    0  0.52507940168E-02  0.18186471345E-01  0.13034449244E-01  0.22982938125E-01  0.00000000000E+00 0. -1.
     999901    1    3    3    0    0  0.55383802067E-01 -0.70357292093E-01 -0.11262562959E+00  0.89168494802E+00  0.88000000000E+00 0.  1.
        -11    1    4    4    0    0 -0.39932704019E-01  0.28720943995E-01  0.46798500764E-01  0.67896054886E-01  0.51100000000E-03 0. -1.
         11    1    4    4    0    0 -0.20701892065E-01  0.23449876753E-01  0.52792679585E-01  0.61366058970E-01  0.51100000000E-03 0.  1.
</event>
<event>
 8    1  0.1150307E+005  0.1043930E+01  0.7957747E-01            NaN
         13   -1    0    0    0    0  0.00000000000E+00  0.00000000000E+00  0.74505805969E-08  0.10566000000E+00  0.10566000000E+00 0.  1.
     999900   -1    0    0    0    0 -0.00000000000E+00 -0.00000000000E+00 -0.74505805969E-08  0.93827000000E+00  0.93827000000E+00 0.  1.
     999902    2    1    2    0    0  0.14668997018E-01  0.16706983933E-01 -0.73639163406E-02  0.10205092816E+01  0.10202404931E+01 0.  0.
     999903    2    3    3    0    0 -0.12712482336E+00  0.58318319755E-02  0.49221206172E-02  0.12900790577E+00  0.20593239206E-01 0.  0.
         14    1    1    2    0    0 -0.14668997018E-01 -0.16706983933E-01  0.73639163406E-02  0.23420718382E-01  0.00000000000E+00 0.  1.
     999901    1    3    3    0    0  0.14179382038E+00  0.10875151957E-01 -0.12286036958E-01  0.89150137584E+00  0.88000000000E+00 0. -1.
        -11    1    4    4    0    0 -0.66119076494E-01 -0.52788804763E-02 -0.35186812452E-02  0.66424702440E-01  0.51100000000E-03 0.  1.
         11    1    4    4    0    0 -0.61005746871E-01  0.11110712452E-01  0.84408018625E-02  0.62583203334E-01  0.51100000000E-03 0. -1.
</event>
<event>
 8    1  0.1150307E+005  0.1043930E+01  0.7957747E-01            NaN
         13   -1    0    0    0    0  0.00000000000E+00  0.00000000000E+00  0.74505805969E-08  0.10566000000E+00  0.10566000000E+00 0.  1.
     999900   -1    0    0    0    0 -0.00000000000E+00 -0.00000000000E+00 -0.74505805969E-08  0.93827000000E+00  0.93827000000E+00 0. -1.
     999902    2    1    2    0    0 -0.23551951458E-01 -0.74148363793E-02  0.64451060435E-02  0.10184111127E+01  0.10180913421E+01 0.  0.
     999903    2    3    3    0    0  0.55626171072E-01 -0.57513625953E-02 -0.11212118685E+00  0.12693486063E+00  0.20345742126E-01 0.  0.
         14    1    1    2    0    0  0.23551951458E-01  0.74148363793E-02 -0.64451060435E-02  0.25518887278E-01  0.00000000000E+00 0.  1.
     999901    1    3    3    0    0 -0.79178122530E-01 -0.16634737840E-02  0.11856629289E+00  0.89147625209E+00  0.88000000000E+00 0.  1.
        -11    1    4    4    0    0  0.25030125018E-01 -0.12603811830E-01 -0.48881121849E-01  0.56347035639E-01  0.51100000000E-03 0. -1.
         11    1    4    4    0    0  0.30596046054E-01  0.68524492347E-02 -0.63240065001E-01  0.70587824991E-01  0.51100000000E-03 0.  1.
</event>
<event>
 8    1  0.1150307E+005  0.1043930E+01  0.7957747E-01            NaN
         13   -1    0    0    0    0  0.00000000000E+00  0.00000000000E+00  0.74505805969E-08  0.10566000000E+00  0.10566000000E+00 0.  1.
     999900   -1    0    0    0    0 -0.00000000000E+00 -0.00000000000E+00 -0.74505805969E-08  0.93827000000E+00  0.93827000000E+00 0. -1.
     999902    2    1    2    0    0 -0.11803810211E-01 -0.15818261743E-01 -0.13403657469E-01  0.10200719746E+01  0.10197929339E+01 0.  0.
     999903    2    3    3    0    0 -0.82301640544E-01 -0.83090838117E-01 -0.60682465770E-01  0.13343178307E+00  0.21072058885E-01 0.  0.
         14    1    1    2    0    0  0.11803810211E-01  0.15818261743E-01  0.13403657469E-01  0.23858025351E-01  0.00000000000E+00 0.  1.
     999901    1    3    3    0    0  0.70497830333E-01  0.67272576373E-01  0.47278808300E-01  0.88664019158E+00  0.88000000000E+00 0.  1.
        -11    1    4    4    0    0 -0.32901046046E-01 -0.47831777833E-01 -0.32155446518E-01  0.66367097747E-01  0.51100000000E-03 0.  1.
         11    1    4    4    0    0 -0.49400594498E-01 -0.35259060284E-01 -0.28527019252E-01  0.67064685321E-01  0.51100000000E-03 0. -1.
</event>
<event>
 8    1  0.1150307E+005  0.1043930E+01  0.7957747E-01            NaN
         13   -1    0    0    0    0  0.00000000000E+00  0.00000000000E+00  0.74505805969E-08  0.10566000000E+00  0.10566000000E+00 0.  1.
     999900   -1    0    0    0    0 -0.00000000000E+00 -0.00000000000E+00 -0.74505805969E-08  0.93827000000E+00  0.93827000000E+00 0.  1.
     999902    2    1    2    0    0  0.10837995128E-01 -0.10183598043E-01  0.20186112342E-01  0.10188571673E+01  0.10185486147E+01 0.  0.
     999903    2    3    3    0    0  0.54319242926E-02  0.47685931014E-01 -0.11506874426E+00  0.12662850591E+00  0.22147432938E-01 0.  0.
         14    1    1    2    0    0 -0.10837995128E-01  0.10183598043E-01 -0.20186112342E-01  0.25072832688E-01  0.00000000000E+00 0. -1.
     999901    1    3    3    0    0  0.54060708353E-02 -0.57869529057E-01  0.13525485660E+00  0.89222866140E+00  0.88000000000E+00 0. -1.
        -11    1    4    4    0    0  0.64647178432E-02  0.26491265088E-01 -0.88584926986E-01  0.92688349391E-01  0.51100000000E-03 0. -1.
         11    1    4    4    0    0 -0.10327935506E-02  0.21194665926E-01 -0.26483817271E-01  0.33940156518E-01  0.51100000000E-03 0.  1.
</event>
<event>
 8    1  0.1150307E+005  0.1043930E+01  0.7957747E-01            NaN
         13   -1    0    0    0    0  0.00000000000E+00  0.00000000000E+00  0.74505805969E-08  0.10566000000E+00  0.10566000000E+00 0. -1.
     999900   -1    0    0    0    0 -0.00000000000E+00 -0.00000000000E+00 -0.74505805969E-08  0.93827000000E+00  0.93827000000E+00 0.  1.
     999902    2    1    2    0    0 -0.15099679403E-01 -0.16719747764E-01 -0.77771724478E-02  0.10200965216E+01  0.10198180615E+01 0.  0.
     999903    2    3    3    0    0 -0.43152508811E-01  0.91503654455E-01 -0.79390631622E-01  0.13013711037E+00  0.19943352551E-01 0.  0.
         14    1    1    2    0    0  0.15099679403E-01  0.16719747764E-01  0.77771724478E-02  0.23833478443E-01  0.00000000000E+00 0. -1.
     999901    1    3    3    0    0  0.28052829407E-01 -0.10822340222E+00  0.71613459174E-01  0.88995941119E+00  0.88000000000E+00 0. -1.
        -11    1    4    4    0    0 -0.20247461800E-01  0.24800938434E-01 -0.18629973904E-01  0.37045692128E-01  0.51100000000E-03 0.  1.
         11    1    4    4    0    0 -0.22905047010E-01  0.66702716021E-01 -0.60760657718E-01  0.93091418243E-01  0.51100000000E-03 0. -1.
</event>
<event>
 8    1  0.1150307E+005  0.1043930E+01  0.7957747E-01            NaN
         13   -1    0    0    0    0  0.00000000000E+00  0.00000000000E+00  0.74505805969E-08  0.10566000000E+00  0.10566000000E+00 0.  1.
     999900   -1    0    0    0    0 -0.00000000000E+00 -0.00000000000E+00 -0.74505805969E-08  0.93827000000E+00  0.93827000000E+00 0.  1.
     999902    2    1    2    0    0  0.82006872711E-02 -0.62513561669E-02 -0.21361017076E-01  0.10202103083E+01  0.10199345319E+01 0.  0.
     999903    2    3    3    0    0  0.11608468143E+00  0.37951622736E-01  0.40481784921E-01  0.13036909113E+00  0.21008238434E-01 0.  0.
         14    1    1    2    0    0 -0.82006872711E-02  0.62513561669E-02  0.21361017076E-01  0.23719691738E-01  0.00000000000E+00 0.  1.
     999901    1    3    3    0    0 -0.10788399416E+00 -0.44202978903E-01 -0.61842801997E-01  0.88984121713E+00  0.88000000000E+00 0.  1.
        -11    1    4    4    0    0  0.12458569630E-01  0.29784513940E-02  0.11506001340E-01  0.17226036043E-01  0.51100000000E-03 0. -1.
         11    1    4    4    0    0  0.10362611180E+00  0.34973171342E-01  0.28975783582E-01  0.11314305509E+00  0.51100000000E-03 0.  1.
</event>
<event>
 8    1  0.1150307E+005  0.1043930E+01  0.7957747E-01            NaN
         13   -1    0    0    0    0  0.00000000000E+00  0.00000000000E+00  0.74505805969E-08  0.10566000000E+00  0.10566000000E+00 0.  1.
     999900   -1    0    0    0    0 -0.00000000000E+00 -0.00000000000E+00 -0.74505805969E-08  0.93827000000E+00  0.93827000000E+00 0. -1.
     999902    2    1    2    0    0  0.20858871091E-01  0.31016883179E-02  0.71398399087E-02  0.10216658969E+01  0.10214232788E+01 0.  0.
     999903    2    3    3    0    0  0.47010019835E-02  0.45402782762E-01  0.12330645693E+00  0.13287731559E+00  0.19193399257E-01 0.  0.
         14    1    1    2    0    0 -0.20858871091E-01 -0.31016883179E-02 -0.71398399087E-02  0.22264103115E-01  0.00000000000E+00 0. -1.
     999901    1    3    3    0    0  0.16157869107E-01 -0.42301094444E-01 -0.11616661703E+00  0.88878858129E+00  0.88000000000E+00 0. -1.
        -11    1    4    4    0    0 -0.61886870930E-02  0.14920945161E-01  0.54312418260E-01  0.56665989365E-01  0.51100000000E-03 0.  1.
         11    1    4    4    0    0  0.10889689076E-01  0.30481837601E-01  0.68994038675E-01  0.76211326227E-01  0.51100000000E-03 0. -1.
</event>
<event>
 8    1  0.1150307E+005  0.1043930E+01  0.7957747E-01            NaN
         13   -1    0    0    0    0  0.00000000000E+00  0.00000000000E+00  0.74505805969E-08  0.10566000000E+00  0.10566000000E+00 0. -1.
     999900   -1    0    0    0    0 -0.00000000000E+00 -0.00000000000E+00 -0.74505805969E-08  0.93827000000E+00  0.93827000000E+00 0. -1.
     999902    2    1    2    0    0 -0.68426916778E-02  0.22768305741E-01 -0.10746666104E-02  0.10201314058E+01  0.10198537700E+01 0.  0.
     999903    2    3    3    0    0  0.58411636136E-01 -0.17057775494E-01 -0.11288510574E+00  0.12976866047E+00  0.19848707819E-01 0.  0.
         14    1    1    2    0    0  0.68426916778E-02 -0.22768305741E-01  0.10746666104E-02  0.23798594161E-01  0.00000000000E+00 0. -1.
     999901    1    3    3    0    0 -0.65254327814E-01  0.39826081235E-01  0.11181043913E+00  0.89036274537E+00  0.88000000000E+00 0.  1.
        -11    1    4    4    0    0  0.23518832480E-01 -0.17043895895E-01 -0.54096883493E-01  0.61403288130E-01  0.51100000000E-03 0.  1.
         11    1    4    4    0    0  0.34892803657E-01 -0.13879599186E-04 -0.58788222243E-01  0.68365372340E-01  0.51100000000E-03 0. -1.
</event>
<event>
 8    1  0.1150307E+005  0.1043930E+01  0.7957747E-01            NaN
         13   -1    0    0    0    0  0.00000000000E+00  0.00000000000E+00  0.74505805969E-08  0.10566000000E+00  0.10566000000E+00 0.  1.
     999900   -1    0    0    0    0 -0.00000000000E+00 -0.00000000000E+00 -0.74505805969E-08  0.93827000000E+00  0.93827000000E+00 0.  1.
     999902    2    1    2    0    0 -0.13334471435E-01  0.19051303346E-01  0.80366133031E-02  0.10193261905E+01  0.10190292122E+01 0.  0.
     999903    2    3    3    0    0 -0.20711520168E-01  0.48898774191E-01 -0.11697798196E+00  0.12995903271E+00  0.19632746496E-01 0.  0.
         14    1    1    2    0    0  0.13334471435E-01 -0.19051303346E-01 -0.80366133031E-02  0.24603809482E-01  0.00000000000E+00 0. -1.
     999901    1    3    3    0    0  0.73770487328E-02 -0.29847470846E-01  0.12501459526E+00  0.88936715781E+00  0.88000000000E+00 0. -1.
        -11    1    4    4    0    0 -0.24076579366E-01  0.37431623732E-01 -0.88205530371E-01  0.98799214765E-01  0.51100000000E-03 0. -1.
         11    1    4    4    0    0  0.33650591979E-02  0.11467150459E-01 -0.28772451584E-01  0.31159817943E-01  0.51100000000E-03 0.  1.
</event>
<event>
 8    1  0.1150307E+005  0.1043930E+01  0.7957747E-01            NaN
         13   -1    0    0    0    0  0.00000000000E+00  0.00000000000E+00  0.74505805969E-08  0.10566000000E+00  0.10566000000E+00 0. -1.
     999900   -1    0    0    0    0 -0.00000000000E+00 -0.00000000000E+00 -0.74505805969E-08  0.93827000000E+00  0.93827000000E+00 0.  1.
     999902    2    1    2    0    0 -0.19815866875E-01  0.12482034812E-01  0.26369981648E-02  0.10203625748E+01  0.10200903688E+01 0.  0.
     999903    2    3    3    0    0 -0.74947339800E-01  0.63780073012E-01  0.87302976001E-01  0.13309750961E+00  0.20202375845E-01 0.  0.
         14    1    1    2    0    0  0.19815866875E-01 -0.12482034812E-01 -0.26369981648E-02  0.23567425239E-01  0.00000000000E+00 0.  1.
     999901    1    3    3    0    0  0.55131472925E-01 -0.51298038200E-01 -0.84665977837E-01  0.88726506515E+00  0.88000000000E+00 0.  1.
        -11    1    4    4    0    0 -0.23196493652E-01  0.32702097305E-01  0.34881749127E-01  0.53146044341E-01  0.51100000000E-03 0. -1.
         11    1    4    4    0    0 -0.51750846148E-01  0.31077975707E-01  0.52421226874E-01  0.79951465272E-01  0.51100000000E-03 0.  1.
</event>
<event>
 8    1  0.1150307E+005  0.1043930E+01  0.7957747E-01            NaN
         13   -1    0    0    0    0  0.00000000000E+00  0.00000000000E+00  0.74505805969E-08  0.10566000000E+00  0.10566000000E+00 0.  1.
     999900   -1    0    0    0    0 -0.00000000000E+00 -0.00000000000E+00 -0.74505805969E-08  0.93827000000E+00  0.93827000000E+00 0.  1.
     999902    2    1    2    0    0 -0.20399513745E-02  0.14663801882E-01  0.19394177729E-01  0.10195307661E+01  0.10192387651E+01 0.  0.
     999903    2    3    3    0    0 -0.31877680688E-01 -0.11925849582E+00  0.30787141695E-01  0.12882583650E+00  0.20235431905E-01 0.  0.
         14    1    1    2    0    0  0.20399513745E-02 -0.14663801882E-01 -0.19394177729E-01  0.24399233944E-01  0.00000000000E+00 0. -1.
     999901    1    3    3    0    0  0.29837729314E-01  0.13392229770E+00 -0.11392963965E-01  0.89070492956E+00  0.88000000000E+00 0. -1.
        -11    1    4    4    0    0 -0.49585338177E-02 -0.51671481760E-01  0.18094642958E-01  0.54974596949E-01  0.51100000000E-03 0.  1.
         11    1    4    4    0    0 -0.26919146871E-01 -0.67587014060E-01  0.12692498737E-01  0.73851239549E-01  0.51100000000E-03 0. -1.
</event>
<event>
 8    1  0.1150307E+005  0.1043930E+01  0.7957747E-01            NaN
         13   -1    0    0    0    0  0.00000000000E+00  0.00000000000E+00  0.74505805969E-08  0.10566000000E+00  0.10566000000E+00 0.  1.
     999900   -1    0    0    0    0 -0.00000000000E+00 -0.00000000000E+00 -0.74505805969E-08  0.93827000000E+00  0.93827000000E+00 0. -1.
     999902    2    1    2    0    0  0.89835280082E-02  0.22777528476E-01  0.79582480272E-03  0.10194319814E+01  0.10191375823E+01 0.  0.
     999903    2    3    3    0    0  0.12294305767E+00  0.42828048973E-01 -0.23076344547E-02  0.13185188402E+00  0.20745046026E-01 0.  0.
         14    1    1    2    0    0 -0.89835280082E-02 -0.22777528476E-01 -0.79582480272E-03  0.24498018615E-01  0.00000000000E+00 0.  1.
     999901    1    3    3    0    0 -0.11395952967E+00 -0.20050520497E-01  0.31034592574E-02  0.88758009736E+00  0.88000000000E+00 0.  1.
        -11    1    4    4    0    0  0.96037861265E-01  0.31359565617E-01  0.66807551369E-02  0.10125011981E+00  0.51100000000E-03 0. -1.
         11    1    4    4    0    0  0.26905196409E-01  0.11468483356E-01 -0.89883895916E-02  0.30601764210E-01  0.51100000000E-03 0.  1.
</event>
<event>
 8    1  0.1150307E+005  0.1043930E+01  0.7957747E-01            NaN
         13   -1    0    0    0    0  0.00000000000E+00  0.00000000000E+00  0.74505805969E-08  0.10566000000E+00  0.10566000000E+00 0.  1.
     999900   -1    0    0    0    0 -0.00000000000E+00 -0.00000000000E+00 -0.74505805969E-08  0.93827000000E+00  0.93827000000E+00 0.  1.
     999902    2    1    2    0    0 -0.10113692930E-01 -0.12218611660E-01 -0.17385437445E-01  0.10203963073E+01  0.10201248891E+01 0.  0.
     999903    2    3    3    0    0  0.35826611772E-01  0.92281065753E-01 -0.82730428103E-01  0.13062068281E+00  0.20447440847E-01 0.  0.
         14    1    1    2    0    0  0.10113692930E-01  0.12218611660E-01  0.17385437445E-01  0.23533692671E-01  0.00000000000E+00 0.  1.
     999901    1    3    3    0    0 -0.45940304702E-01 -0.10449967741E+00  0.65344990658E-01  0.88977562451E+00  0.88000000000E+00 0.  1.
        -11    1    4    4    0    0 -0.13805499246E-02  0.57533195292E-02 -0.99537762628E-02  0.11590745731E-01  0.51100000000E-03 0. -1.
         11    1    4    4    0    0  0.37207161697E-01  0.86527746224E-01 -0.72776651841E-01  0.11902993708E+00  0.51100000000E-03 0.  1.
</event>
<event>
 8    1  0.1150307E+005  0.1043930E+01  0.7957747E-01            NaN
         13   -1    0    0    0    0  0.00000000000E+00  0.00000000000E+00  0.74505805969E-08  0.10566000000E+00  0.10566000000E+00 0. -1.
     999900   -1    0    0    0    0 -0.00000000000E+00 -0.00000000000E+00 -0.74505805969E-08  0.93827000000E+00  0.93827000000E+00 0.  1.
     999902    2    1    2    0    0  0.15620192490E-01  0.13149768965E-01  0.11683166809E-01  0.10204054761E+01  0.10201342718E+01 0.  0.
     999903    2    3    3    0    0  0.11245676053E+00  0.58109340647E-02  0.69280950977E-01  0.13319147479E+00  0.16119207298E-01 0.  0.
         14    1    1    2    0    0 -0.15620192490E-01 -0.13149768965E-01 -0.11683166809E-01  0.23524523884E-01  0.00000000000E+00 0.  1.
     999901    1    3    3    0    0 -0.96836568044E-01  0.73388349007E-02 -0.57597784168E-01  0.88721400133E+00  0.88000000000E+00 0.  1.
        -11    1    4    4    0    0  0.94131449919E-01  0.41054988776E-02  0.50546427112E-01  0.10692421335E+00  0.51100000000E-03 0. -1.
         11    1    4    4    0    0  0.18325310615E-01  0.17054351870E-02  0.18734523865E-01  0.26267261444E-01  0.51100000000E-03 0.  1.
</event>
<event>
 8    1  0.1150307E+005  0.1043930E+01  0.7957747E-01            NaN
         13   -1    0    0    0    0  0.00000000000E+00  0.00000000000E+00  0.74505805969E-08  0.10566000000E+00  0.10566000000E+00 0.  1.
     999900   -1    0    0    0    0 -0.00000000000E+00 -0.00000000000E+00 -0.74505805969E-08  0.93827000000E+00  0.93827000000E+00 0. -1.
     999902    2    1    2    0    0 -0.10940958602E-01  0.38132885136E-02  0.21564481905E-01  0.10194499546E+01  0.10191559926E+01 0.  0.
     999903    2    3    3    0    0  0.63101962204E-01 -0.55548921198E-02 -0.10807008992E+00  0.12682728001E+00  0.19831796684E-01 0.  0.
         14    1    1    2    0    0  0.10940958602E-01 -0.38132885136E-02 -0.21564481905E-01  0.24480045430E-01  0.00000000000E+00 0.  1.
     999901    1    3    3    0    0 -0.74042920806E-01  0.93681806335E-02  0.12963457182E+00  0.89262267456E+00  0.88000000000E+00 0.  1.
        -11    1    4    4    0    0  0.60915899896E-01 -0.59207093042E-03 -0.98585066423E-01  0.11588948982E+00  0.51100000000E-03 0.  1.
         11    1    4    4    0    0  0.21860623087E-02 -0.49628211894E-02 -0.94850234922E-02  0.10937790189E-01  0.51100000000E-03 0. -1.
</event>
<event>
 8    1  0.1150307E+005  0.1043930E+01  0.7957747E-01            NaN
         13   -1    0    0    0    0  0.00000000000E+00  0.00000000000E+00  0.74505805969E-08  0.10566000000E+00  0.10566000000E+00 0. -1.
     999900   -1    0    0    0    0 -0.00000000000E+00 -0.00000000000E+00 -0.74505805969E-08  0.93827000000E+00  0.93827000000E+00 0.  1.
     999902    2    1    2    0    0 -0.38776231089E-02  0.19743962970E-01 -0.10544077542E-01  0.10212135389E+01  0.10209608486E+01 0.  0.
     999903    2    3    3    0    0 -0.12675816467E+00  0.18499071610E-01 -0.27237401435E-01  0.13251795303E+00  0.20230765611E-01 0.  0.
         14    1    1    2    0    0  0.38776231089E-02 -0.19743962970E-01  0.10544077542E-01  0.22716461123E-01  0.00000000000E+00 0. -1.
     999901    1    3    3    0    0  0.12288054156E+00  0.12448913603E-02  0.16693323893E-01  0.88869558585E+00  0.88000000000E+00 0. -1.
        -11    1    4    4    0    0 -0.51509286542E-01  0.17537624116E-01 -0.10389181498E-01  0.55398294855E-01  0.51100000000E-03 0.  1.
         11    1    4    4    0    0 -0.75248878125E-01  0.96144749387E-03 -0.16848219937E-01  0.77119658171E-01  0.51100000000E-03 0. -1.
</event>
<event>
 8    1  0.1150307E+005  0.1043930E+01  0.7957747E-01            NaN
         13   -1    0    0    0    0  0.00000000000E+00  0.00000000000E+00  0.74505805969E-08  0.10566000000E+00  0.10566000000E+00 0.  1.
     999900   -1    0    0    0    0 -0.00000000000E+00 -0.00000000000E+00 -0.74505805969E-08  0.93827000000E+00  0.93827000000E+00 0.  1.
     999902    2    1    2    0    0  0.14599548344E-01 -0.16295862695E-01 -0.75545408005E-02  0.10207832283E+01  0.10205207622E+01 0.  0.
     999903    2    3    3    0    0 -0.12170685373E+00 -0.10179958893E-01 -0.38111104537E-01  0.12974420385E+00  0.21561825874E-01 0.  0.
         14    1    1    2    0    0 -0.14599548344E-01  0.16295862695E-01  0.75545408005E-02  0.23146771687E-01  0.00000000000E+00 0.  1.
     999901    1    3    3    0    0  0.13630640208E+00 -0.61159038023E-02  0.30556563736E-01  0.89103902446E+00  0.88000000000E+00 0. -1.
        -11    1    4    4    0    0 -0.49186447441E-01  0.60249258394E-02 -0.12097865388E-01  0.51012016342E-01  0.51100000000E-03 0. -1.
         11    1    4    4    0    0 -0.72520406292E-01 -0.16204884733E-01 -0.26013239149E-01  0.78732187509E-01  0.51100000000E-03 0.  1.
</event>
<event>
 8    1  0.1150307E+005  0.1043930E+01  0.7957747E-01            NaN
         13   -1    0    0    0    0  0.00000000000E+00  0.00000000000E+00  0.74505805969E-08  0.10566000000E+00  0.10566000000E+00 0.  1.
     999900   -1    0    0    0    0 -0.00000000000E+00 -0.00000000000E+00 -0.74505805969E-08  0.93827000000E+00  0.93827000000E+00 0. -1.
     999902    2    1    2    0    0 -0.15629313987E-01  0.17700980640E-02 -0.18060797946E-01  0.10199800287E+01  0.10196988074E+01 0.  0.
     999903    2    3    3    0    0 -0.75191072122E-02  0.13243816202E-01  0.12602957148E+00  0.12815075343E+00  0.17527894233E-01 0.  0.
         14    1    1    2    0    0  0.15629313987E-01 -0.17700980640E-02  0.18060797946E-01  0.23949971301E-01  0.00000000000E+00 0. -1.
     999901    1    3    3    0    0 -0.81102067752E-02 -0.11473718138E-01 -0.14409036943E+00  0.89182927527E+00  0.88000000000E+00 0. -1.
        -11    1    4    4    0    0 -0.70891562338E-02  0.17493354943E-01  0.99744107304E-01  0.10151562277E+00  0.51100000000E-03 0.  1.
         11    1    4    4    0    0 -0.42995097840E-03 -0.42495387415E-02  0.26285464178E-01  0.26635130663E-01  0.51100000000E-03 0. -1.
</event>
<event>
 8    1  0.1150307E+005  0.1043930E+01  0.7957747E-01            NaN
         13   -1    0    0    0    0  0.00000000000E+00  0.00000000000E+00  0.74505805969E-08  0.10566000000E+00  0.10566000000E+00 0.  1.
     999900   -1    0    0    0    0 -0.00000000000E+00 -0.00000000000E+00 -0.74505805969E-08  0.93827000000E+00  0.93827000000E+00 0.  1.
     999902    2    1    2    0    0  0.22640184916E-01  0.65860628398E-02 -0.12617589277E-02  0.10203175831E+01  0.10200443246E+01 0.  0.
     999903    2    3    3    0    0  0.15121215892E-01  0.12595681463E+00  0.29549610916E-01  0.13169209854E+00  0.19387083089E-01 0.  0.
         14    1    1    2    0    0 -0.22640184916E-01 -0.65860628398E-02  0.12617589277E-02  0.23612416910E-01  0.00000000000E+00 0.  1.
     999901    1    3    3    0    0  0.75189690234E-02 -0.11937075179E+00 -0.30811369843E-01  0.88862548455E+00  0.88000000000E+00 0.  1.
        -11    1    4    4    0    0 -0.21662948121E-03  0.77366948186E-01  0.18594998186E-01  0.79572147631E-01  0.51100000000E-03 0.  1.
         11    1    4    4    0    0  0.15337845374E-01  0.48589866445E-01  0.10954612729E-01  0.52119950910E-01  0.51100000000E-03 0. -1.
</event>
<event>
 8    1  0.1150307E+005  0.1043930E+01  0.7957747E-01            NaN
         13   -1    0    0    0    0  0.00000000000E+00  0.00000000000E+00  0.74505805969E-08  0.10566000000E+00  0.10566000000E+00 0. -1.
     999900   -1    0    0    0    0 -0.00000000000E+00 -0.00000000000E+00 -0.74505805969E-08  0.93827000000E+00  0.93827000000E+00 0. -1.
     999902    2    1    2    0    0 -0.52841556414E-02  0.20972098102E-01  0.11186334248E-01  0.10195807644E+01  0.10192899734E+01 0.  0.
     999903    2    3    3    0    0 -0.12092271724E+00  0.11916620183E-01 -0.42409871032E-01  0.13035254184E+00  0.20709384884E-01 0.  0.
         14    1    1    2    0    0  0.52841556414E-02 -0.20972098102E-01 -0.11186334248E-01  0.24349235584E-01  0.00000000000E+00 0. -1.
     999901    1    3    3    0    0  0.11563856159E+00  0.90554779192E-02  0.53596205280E-01  0.88922822258E+00  0.88000000000E+00 0.  1.
        -11    1    4    4    0    0 -0.55662824014E-01  0.48088293854E-02 -0.86677028763E-02  0.56540826059E-01  0.51100000000E-03 0.  1.
         11    1    4    4    0    0 -0.65259893222E-01  0.71077907975E-02 -0.33742168156E-01  0.73811715779E-01  0.51100000000E-03 0. -1.
</event>
<event>
 8    1  0.1150307E+005  0.1043930E+01  0.7957747E-01            NaN
         13   -1    0    0    0    0  0.00000000000E+00  0.00000000000E+00  0.74505805969E-08  0.10566000000E+00  0.10566000000E+00 0.  1.
     999900   -1    0    0    0    0 -0.00000000000E+00 -0.00000000000E+00 -0.74505805969E-08  0.93827000000E+00  0.93827000000E+00 0. -1.
     999902    2    1    2    0    0 -0.11204886630E-01  0.11305635947E-01 -0.17126001883E-01  0.10205490926E+01  0.10202812277E+01 0.  0.
     999903    2    3    3    0    0 -0.12676288427E+00 -0.30555390783E-01 -0.12384794702E-03  0.13184494073E+00  0.19509288122E-01 0.  0.
         14    1    1    2    0    0  0.11204886630E-01 -0.11305635947E-01  0.17126001883E-01  0.23380907361E-01  0.00000000000E+00 0. -1.
     999901    1    3    3    0    0  0.11555799764E+00  0.41861026730E-01 -0.17002153936E-01  0.88870415191E+00  0.88000000000E+00 0.  1.
        -11    1    4    4    0    0 -0.38812458331E-01 -0.14939135919E-01  0.72303236423E-02  0.42215203478E-01  0.51100000000E-03 0. -1.
         11    1    4    4    0    0 -0.87950425942E-01 -0.15616254864E-01 -0.73541715893E-02  0.89629737254E-01  0.51100000000E-03 0.  1.
</event>
<event>
 8    1  0.1150307E+005  0.1043930E+01  0.7957747E-01            NaN
         13   -1    0    0    0    0  0.00000000000E+00  0.00000000000E+00  0.74505805969E-08  0.10566000000E+00  0.10566000000E+00 0.  1.
     999900   -1    0    0    0    0 -0.00000000000E+00 -0.00000000000E+00 -0.74505805969E-08  0.93827000000E+00  0.93827000000E+00 0.  1.
     999902    2    1    2    0    0  0.13328489659E-01  0.11392288611E-01  0.15555218831E-01  0.10204907656E+01  0.10202215470E+01 0.  0.
     999903    2    3    3    0    0 -0.73627569130E-01  0.49888144102E-01 -0.91337872217E-01  0.12893626925E+00  0.19290121013E-01 0.  0.
         14    1    1    2    0    0 -0.13328489659E-01 -0.11392288611E-01 -0.15555218831E-01  0.23439234400E-01  0.00000000000E+00 0.  1.
     999901    1    3    3    0    0  0.86956058789E-01 -0.38495855491E-01  0.10689309105E+00  0.89155449635E+00  0.88000000000E+00 0. -1.
        -11    1    4    4    0    0 -0.40958506085E-01  0.16301614013E-01 -0.46655247630E-01  0.64189680577E-01  0.51100000000E-03 0. -1.
         11    1    4    4    0    0 -0.32669063045E-01  0.33586530089E-01 -0.44682624587E-01  0.64746588672E-01  0.51100000000E-03 0.  1.
</event>
<event>
 8    1  0.1150307E+005  0.1043930E+01  0.7957747E-01            NaN
         13   -1    0    0    0    0  0.00000000000E+00  0.00000000000E+00  0.74505805969E-08  0.10566000000E+00  0.10566000000E+00 0.  1.
     999900   -1    0    0    0    0 -0.00000000000E+00 -0.00000000000E+00 -0.74505805969E-08  0.93827000000E+00  0.93827000000E+00 0. -1.
     999902    2    1    2    0    0 -0.20512208638E-01 -0.38473168544E-02 -0.10463188853E-01  0.10205841038E+01  0.10203170497E+01 0.  0.
     999903    2    3    3    0    0  0.10054807262E+00  0.50546313546E-01  0.57349790749E-01  0.12805239064E+00  0.21061137896E-01 0.  0.
         14    1    1    2    0    0  0.20512208638E-01  0.38473168544E-02  0.10463188853E-01  0.23345896238E-01  0.00000000000E+00 0.  1.
     999901    1    3    3    0    0 -0.12106028126E+00 -0.54393630400E-01 -0.67812979602E-01  0.89253171312E+00  0.88000000000E+00 0. -1.
        -11    1    4    4    0    0  0.42659479061E-01  0.32808810607E-01  0.23999797903E-01  0.58927927400E-01  0.51100000000E-03 0.  1.
         11    1    4    4    0    0  0.57888593556E-01  0.17737502938E-01  0.33349992847E-01  0.69124463241E-01  0.51100000000E-03 0. -1.
</event>
<event>
 8    1  0.1150307E+005  0.1043930E+01  0.7957747E-01            NaN
         13   -1    0    0    0    0  0.00000000000E+00  0.00000000000E+00  0.74505805969E-08  0.10566000000E+00  0.10566000000E+00 0. -1.
     999900   -1    0    0    0    0 -0.00000000000E+00 -0.00000000000E+00 -0.74505805969E-08  0.93827000000E+00  0.93827000000E+00 0.  1.
     999902    2    1    2    0    0  0.18865919930E-01  0.93835233364E-03  0.56791663154E-02  0.10242054881E+01  0.10240155397E+01 0.  0.
     999903    2    3    3    0    0 -0.10894076526E-01  0.13087203749E+00  0.18209631289E-01  0.13407884964E+00  0.19984397644E-01 0.  0.
         14    1    1    2    0    0 -0.18865919930E-01 -0.93835233364E-03 -0.56791663154E-02  0.19724511906E-01  0.00000000000E+00 0. -1.
     999901    1    3    3    0    0  0.29759996456E-01 -0.12993368516E+00 -0.12530464974E-01  0.89012663845E+00  0.88000000000E+00 0.  1.
        -11    1    4    4    0    0 -0.32082243749E-02  0.11569359401E+00  0.17386637326E-01  0.11703784292E+00  0.51100000000E-03 0. -1.
         11    1    4    4    0    0 -0.76858521509E-02  0.15178443485E-01  0.82299396285E-03  0.17041006719E-01  0.51100000000E-03 0.  1.
</event>
<event>
 6    1  0.1150307E+005  0.1043930E+01  0.7957747E-01            NaN
         13   -1    0    0    0    0  0.00000000000E+00  0.00000000000E+00  0.74505805969E-08  0.10566000000E+00  0.10566000000E+00 0. -1.
     999900   -1    0    0    0    0 -0.00000000000E+00 -0.00000000000E+00 -0.74505805969E-08  0.93827000000E+00  0.93827000000E+00 0. -1.
         14    1    1    2    0    0 -0.18663889422E-01  0.24515954926E-01  0.54259101562E-01  0.62397298953E-01  0.00000000000E+00 0. -1.
     999901    1    1    2    0    0  0.12695652145E-01  0.28342831755E-01  0.23588239527E-01  0.88086372427E+00  0.88000000000E+00 0. -1.
        -11    1    1    2    0    0  0.28615704852E-03 -0.55610307973E-01 -0.75798372208E-01  0.94011927908E-01  0.51100000000E-03 0. -1.
         11    1    1    2    0    0  0.56820802278E-02  0.27515212920E-02 -0.20489688818E-02  0.66570488667E-02  0.51100000000E-03 0.  1.
</event>
<event>
 8    1  0.1150307E+005  0.1043930E+01  0.7957747E-01            NaN
         13   -1    0    0    0    0  0.00000000000E+00  0.00000000000E+00  0.74505805969E-08  0.10566000000E+00  0.10566000000E+00 0. -1.
     999900   -1    0    0    0    0 -0.00000000000E+00 -0.00000000000E+00 -0.74505805969E-08  0.93827000000E+00  0.93827000000E+00 0. -1.
     999902    2    1    2    0    0  0.17450124661E-01 -0.67320110939E-02 -0.13504392315E-01  0.10208606386E+01  0.10205999451E+01 0.  0.
     999903    2    3    3    0    0 -0.59609274411E-01  0.94176173690E-01 -0.64647006055E-01  0.13027870542E+00  0.19258463298E-01 0.  0.
         14    1    1    2    0    0 -0.17450124661E-01  0.67320110939E-02  0.13504392315E-01  0.23069361410E-01  0.00000000000E+00 0.  1.
     999901    1    3    3    0    0  0.77059399072E-01 -0.10090818478E+00  0.51142613739E-01  0.89058193317E+00  0.88000000000E+00 0.  1.
        -11    1    4    4    0    0 -0.52645991071E-01  0.73874386189E-01 -0.45383724116E-01  0.10143455450E+00  0.51100000000E-03 0. -1.
         11    1    4    4    0    0 -0.69632833394E-02  0.20301787501E-01 -0.19263281938E-01  0.28844150926E-01  0.51100000000E-03 0.  1.
</event>
<event>
 8    1  0.1150307E+005  0.1043930E+01  0.7957747E-01            NaN
         13   -1    0    0    0    0  0.00000000000E+00  0.00000000000E+00  0.74505805969E-08  0.10566000000E+00  0.10566000000E+00 0. -1.
     999900   -1    0    0    0    0 -0.00000000000E+00 -0.00000000000E+00 -0.74505805969E-08  0.93827000000E+00  0.93827000000E+00 0.  1.
     999902    2    1    2    0    0 -0.38213306754E-02  0.67045617754E-02  0.22370515243E-01  0.10202658146E+01  0.10199913425E+01 0.  0.
     999903    2    3    3    0    0 -0.47163902815E-01 -0.11531545014E+00 -0.28164833916E-01  0.12935544688E+00  0.20432498579E-01 0.  0.
         14    1    1    2    0    0  0.38213306754E-02 -0.67045617754E-02 -0.22370515243E-01  0.23664185365E-01  0.00000000000E+00 0.  1.
     999901    1    3    3    0    0  0.43342572140E-01  0.12202001191E+00  0.50535349159E-01  0.89091036776E+00  0.88000000000E+00 0. -1.
        -11    1    4    4    0    0 -0.35586371608E-01 -0.10452294118E+00 -0.24656149962E-01  0.11313541412E+00  0.51100000000E-03 0.  1.
         11    1    4    4    0    0 -0.11577531207E-01 -0.10792508961E-01 -0.35086839544E-02  0.16220032756E-01  0.51100000000E-03 0. -1.
</event>
<event>
 8    1  0.1150307E+005  0.1043930E+01  0.7957747E-01            NaN
         13   -1    0    0    0    0  0.00000000000E+00  0.00000000000E+00  0.74505805969E-08  0.10566000000E+00  0.10566000000E+00 0. -1.
     999900   -1    0    0    0    0 -0.00000000000E+00 -0.00000000000E+00 -0.74505805969E-08  0.93827000000E+00  0.93827000000E+00 0.  1.
     999902    2    1    2    0    0  0.13728677178E-01  0.17339426957E-01  0.10340827374E-02  0.10217895025E+01  0.10215496002E+01 0.  0.
     999903    2    3    3    0    0 -0.80323895416E-01 -0.98757529416E-01  0.80867543027E-02  0.12916744925E+00  0.20343464816E-01 0.  0.
         14    1    1    2    0    0 -0.13728677178E-01 -0.17339426957E-01 -0.10340827374E-02  0.22140497541E-01  0.00000000000E+00 0. -1.
     999901    1    3    3    0    0  0.94052572593E-01  0.11609695637E+00 -0.70526715653E-02  0.89262205320E+00  0.88000000000E+00 0.  1.
        -11    1    4    4    0    0 -0.26289060992E-01 -0.31702488368E-01 -0.68791084466E-02  0.41758181840E-01  0.51100000000E-03 0. -1.
         11    1    4    4    0    0 -0.54034834424E-01 -0.67055041047E-01  0.14965862749E-01  0.87409267414E-01  0.51100000000E-03 0.  1.
</event>
<event>
 8    1  0.1150307E+005  0.1043930E+01  0.7957747E-01            NaN
         13   -1    0    0    0    0  0.00000000000E+00  0.00000000000E+00  0.74505805969E-08  0.10566000000E+00  0.10566000000E+00 0.  1.
     999900   -1    0    0    0    0 -0.00000000000E+00 -0.00000000000E+00 -0.74505805969E-08  0.93827000000E+00  0.93827000000E+00 0.  1.
     999902    2    1    2    0    0 -0.11081653563E-01 -0.22502183115E-02 -0.64848573975E-02  0.10308946671E+01  0.10308122500E+01 0.  0.
     999903    2    3    3    0    0 -0.81055041735E-02 -0.28176543690E-01  0.13461965940E+00  0.13927169944E+00  0.20360175749E-01 0.  0.
         14    1    1    2    0    0  0.11081653563E-01  0.22502183115E-02  0.64848573975E-02  0.13035332892E-01  0.00000000000E+00 0.  1.
     999901    1    3    3    0    0 -0.29761493899E-02  0.25926325378E-01 -0.14110451679E+00  0.89162296767E+00  0.88000000000E+00 0.  1.
        -11    1    4    4    0    0 -0.71053748709E-02 -0.15497111366E-01  0.36023473955E-01  0.39857227820E-01  0.51100000000E-03 0. -1.
         11    1    4    4    0    0 -0.10001293026E-02 -0.12679432324E-01  0.98596185442E-01  0.99414471619E-01  0.51100000000E-03 0.  1.
</event>
<event>
 8    1  0.1150307E+005  0.1043930E+01  0.7957747E-01            NaN
         13   -1    0    0    0    0  0.00000000000E+00  0.00000000000E+00  0.74505805969E-08  0.10566000000E+00  0.10566000000E+00 0.  1.
     999900   -1    0    0    0    0 -0.00000000000E+00 -0.00000000000E+00 -0.74505805969E-08  0.93827000000E+00  0.93827000000E+00 0. -1.
     999902    2    1    2    0    0  0.20790007611E-01  0.37312265436E-03  0.12248054891E-01  0.10197974807E+01  0.10195119044E+01 0.  0.
     999903    2    3    3    0    0 -0.13656472676E-01  0.15719197433E-01 -0.12519390282E+00  0.12833107434E+00  0.19019961148E-01 0.  0.
         14    1    1    2    0    0 -0.20790007611E-01 -0.37312265436E-03 -0.12248054891E-01  0.24132519255E-01  0.00000000000E+00 0. -1.
     999901    1    3    3    0    0  0.34446480287E-01 -0.15346074779E-01  0.13744195771E+00  0.89146640641E+00  0.88000000000E+00 0.  1.
        -11    1    4    4    0    0  0.42647274103E-02 -0.90999177723E-04 -0.18536252616E-01  0.19027610538E-01  0.51100000000E-03 0. -1.
         11    1    4    4    0    0 -0.17921200086E-01  0.15810196611E-01 -0.10665765021E+00  0.10930346380E+00  0.51100000000E-03 0.  1.
</event>
<event>
 8    1  0.1150307E+005  0.1043930E+01  0.7957747E-01            NaN
         13   -1    0    0    0    0  0.00000000000E+00  0.00000000000E+00  0.74505805969E-08  0.10566000000E+00  0.10566000000E+00 0. -1.
     999900   -1    0    0    0    0 -0.00000000000E+00 -0.00000000000E+00 -0.74505805969E-08  0.93827000000E+00  0.93827000000E+00 0. -1.
     999902    2    1    2    0    0 -0.67371149559E-02 -0.17419084752E-01 -0.17126850107E-01  0.10185894746E+01  0.10182742143E+01 0.  0.
     999903    2    3    3    0    0 -0.61140688713E-01  0.97629787076E-01  0.49512761581E-01  0.12694109685E+00  0.19818409869E-01 0.  0.
         14    1    1    2    0    0  0.67371149559E-02  0.17419084752E-01  0.17126850107E-01  0.25340525371E-01  0.00000000000E+00 0. -1.
     999901    1    3    3    0    0  0.54403573758E-01 -0.11504887183E+00 -0.66639611688E-01  0.89164837778E+00  0.88000000000E+00 0. -1.
        -11    1    4    4    0    0 -0.24672008230E-01  0.41359705522E-01  0.10266839644E-01  0.49244312852E-01  0.51100000000E-03 0. -1.
         11    1    4    4    0    0 -0.36468680483E-01  0.56270081554E-01  0.39245921937E-01  0.77696784000E-01  0.51100000000E-03 0.  1.
</event>
<event>
 8    1  0.1150307E+005  0.1043930E+01  0.7957747E-01            NaN
         13   -1    0    0    0    0  0.00000000000E+00  0.00000000000E+00  0.74505805969E-08  0.10566000000E+00  0.10566000000E+00 0. -1.
     999900   -1    0    0    0    0 -0.00000000000E+00 -0.00000000000E+00 -0.74505805969E-08  0.93827000000E+00  0.93827000000E+00 0.  1.
     999902    2    1    2    0    0 -0.69104098768E-02  0.15470129546E-01  0.14622592647E-01  0.10215492295E+01  0.10213040338E+01 0.  0.
     999903    2    3    3    0    0 -0.10090388504E+00 -0.37678227211E-01 -0.71494461302E-01  0.13077671747E+00  0.19744594533E-01 0.  0.
         14    1    1    2    0    0  0.69104098768E-02 -0.15470129546E-01 -0.14622592647E-01  0.22380770509E-01  0.00000000000E+00 0.  1.
     999901    1    3    3    0    0  0.93993475159E-01  0.53148356758E-01  0.86117053949E-01  0.89077251203E+00  0.88000000000E+00 0. -1.
        -11    1    4    4    0    0 -0.47698678256E-02  0.21444899354E-02 -0.52196276179E-02  0.74064910468E-02  0.51100000000E-03 0. -1.
         11    1    4    4    0    0 -0.96134017210E-01 -0.39822717147E-01 -0.66274833684E-01  0.12337022642E+00  0.51100000000E-03 0.  1.
</event>
<event>
 8    1  0.1150307E+005  0.1043930E+01  0.7957747E-01            NaN
         13   -1    0    0    0    0  0.00000000000E+00  0.00000000000E+00  0.74505805969E-08  0.10566000000E+00  0.10566000000E+00 0. -1.
     999900   -1    0    0    0    0 -0.00000000000E+00 -0.00000000000E+00 -0.74505805969E-08  0.93827000000E+00  0.93827000000E+00 0. -1.
     999902    2    1    2    0    0 -0.56096092188E-02  0.22235288339E-01  0.67027011035E-02  0.10200385378E+01  0.10197587051E+01 0.  0.
     999903    2    3    3    0    0 -0.10358410982E+00 -0.74596520974E-01 -0.27141319330E-02  0.12927253105E+00  0.20241344439E-01 0.  0.
         14    1    1    2    0    0  0.56096092188E-02 -0.22235288339E-01 -0.67027011035E-02  0.23891462182E-01  0.00000000000E+00 0. -1.
     999901    1    3    3    0    0  0.97974500599E-01  0.96831809313E-01  0.94168330365E-02  0.89076600676E+00  0.88000000000E+00 0.  1.
        -11    1    4    4    0    0 -0.22803157629E-01 -0.90175038068E-02  0.46441154823E-02  0.24962537980E-01  0.51100000000E-03 0. -1.
         11    1    4    4    0    0 -0.80780952189E-01 -0.65579017167E-01 -0.73582474152E-02  0.10430999307E+00  0.51100000000E-03 0.  1.
</event>
<event>
 8    1  0.1150307E+005  0.1043930E+01  0.7957747E-01            NaN
         13   -1    0    0    0    0  0.00000000000E+00  0.00000000000E+00  0.74505805969E-08  0.10566000000E+00  0.10566000000E+00 0. -1.
     999900   -1    0    0    0    0 -0.00000000000E+00 -0.00000000000E+00 -0.74505805969E-08  0.93827000000E+00  0.93827000000E+00 0. -1.
     999902    2    1    2    0    0  0.14154042096E-01  0.14667395738E-01  0.11703607034E-01  0.10204258765E+01  0.10201551478E+01 0.  0.
     999903    2    3    3    0    0 -0.80198558004E-02 -0.94844708905E-01 -0.84304099173E-01  0.12818035955E+00  0.16223025075E-01 0.  0.
         14    1    1    2    0    0 -0.14154042096E-01 -0.14667395738E-01 -0.11703607034E-01  0.23504123532E-01  0.00000000000E+00 0. -1.
     999901    1    3    3    0    0  0.22173897896E-01  0.10951210464E+00  0.96007706207E-01  0.89224551692E+00  0.88000000000E+00 0.  1.
        -11    1    4    4    0    0  0.38145461927E-02 -0.30136649154E-01 -0.32120816497E-01  0.44212852863E-01  0.51100000000E-03 0. -1.
         11    1    4    4    0    0 -0.11834401993E-01 -0.64708059751E-01 -0.52183282676E-01  0.83967506686E-01  0.51100000000E-03 0.  1.
</event>
<event>
 8    1  0.1150307E+005  0.1043930E+01  0.7957747E-01            NaN
         13   -1    0    0    0    0  0.00000000000E+00  0.00000000000E+00  0.74505805969E-08  0.10566000000E+00  0.10566000000E+00 0.  1.
     999900   -1    0    0    0    0 -0.00000000000E+00 -0.00000000000E+00 -0.74505805969E-08  0.93827000000E+00  0.93827000000E+00 0. -1.
     999902    2    1    2    0    0  0.12661792423E-02  0.39405553053E-02  0.23123075104E-01  0.10204394106E+01  0.10201689973E+01 0.  0.
     999903    2    3    3    0    0 -0.12457171398E+00  0.30835961204E-01  0.17684834820E-01  0.13106428580E+00  0.19902894337E-01 0.  0.
         14    1    1    2    0    0 -0.12661792423E-02 -0.39405553053E-02 -0.23123075104E-01  0.23490589356E-01  0.00000000000E+00 0. -1.
     999901    1    3    3    0    0  0.12583789322E+00 -0.26895405899E-01  0.54382402848E-02  0.88937512484E+00  0.88000000000E+00 0.  1.
        -11    1    4    4    0    0 -0.63062852688E-01  0.10216203551E-01  0.17300444016E-01  0.66188070589E-01  0.51100000000E-03 0.  1.
         11    1    4    4    0    0 -0.61508861293E-01  0.20619757653E-01  0.38439080342E-03  0.64876215214E-01  0.51100000000E-03 0. -1.
</event>
<event>
 8    1  0.1150307E+005  0.1043930E+01  0.7957747E-01            NaN
         13   -1    0    0    0    0  0.00000000000E+00  0.00000000000E+00  0.74505805969E-08  0.10566000000E+00  0.10566000000E+00 0.  1.
     999900   -1    0    0    0    0 -0.00000000000E+00 -0.00000000000E+00 -0.74505805969E-08  0.93827000000E+00  0.93827000000E+00 0.  1.
     999902    2    1    2    0    0  0.20574640645E-01  0.10322367194E-01  0.55285743433E-02  0.10202565500E+01  0.10199818604E+01 0.  0.
     999903    2    3    3    0    0 -0.10773575584E+00 -0.48770410731E-02 -0.66758843895E-01  0.12788888432E+00  0.16372076188E-01 0.  0.
         14    1    1    2    0    0 -0.20574640645E-01 -0.10322367194E-01 -0.55285743433E-02  0.23673450033E-01  0.00000000000E+00 0.  1.
     999901    1    3    3    0    0  0.12831039648E+00  0.15199408267E-01  0.72287418238E-01  0.89236766565E+00  0.88000000000E+00 0.  1.
        -11    1    4    4    0    0 -0.62359419690E-01 -0.92391077280E-03 -0.29272240792E-01  0.68896124979E-01  0.51100000000E-03 0.  1.
         11    1    4    4    0    0 -0.45376336149E-01 -0.39531303003E-02 -0.37486603103E-01  0.58992759341E-01  0.51100000000E-03 0. -1.
</event>
<event>
 8    1  0.1150307E+005  0.1043930E+01  0.7957747E-01            NaN
         13   -1    0    0    0    0  0.00000000000E+00  0.00000000000E+00  0.74505805969E-08  0.10566000000E+00  0.10566000000E+00 0.  1.
     999900   -1    0    0    0    0 -0.00000000000E+00 -0.00000000000E+00 -0.74505805969E-08  0.93827000000E+00  0.93827000000E+00 0.  1.
     999902    2    1    2    0    0  0.13716626897E-01 -0.10026446436E-01  0.18007882352E-01  0.10191719850E+01  0.10188712262E+01 0.  0.
     999903    2    3    3    0    0 -0.68317766103E-02 -0.27717617410E-01  0.12757852376E+00  0.13196234803E+00  0.17967806896E-01 0.  0.
         14    1    1    2    0    0 -0.13716626897E-01  0.10026446436E-01 -0.18007882352E-01  0.24758015033E-01  0.00000000000E+00 0. -1.
     999901    1    3    3    0    0  0.20548403507E-01  0.17691170974E-01 -0.10957064141E+00  0.88720963694E+00  0.88000000000E+00 0.  1.
        -11    1    4    4    0    0  0.21568422442E-02 -0.25365535367E-03  0.32781888223E-01  0.32857717905E-01  0.51100000000E-03 0. -1.
         11    1    4    4    0    0 -0.89886188545E-02 -0.27463962056E-01  0.94796635542E-01  0.99104630123E-01  0.51100000000E-03 0.  1.
</event>
<event>
 8    1  0.1150307E+005  0.1043930E+01  0.7957747E-01            NaN
         13   -1    0    0    0    0  0.00000000000E+00  0.00000000000E+00  0.74505805969E-08  0.10566000000E+00  0.10566000000E+00 0. -1.
     999900   -1    0    0    0    0 -0.00000000000E+00 -0.00000000000E+00 -0.74505805969E-08  0.93827000000E+00  0.93827000000E+00 0. -1.
     999902    2    1    2    0    0 -0.94737635924E-02 -0.16938484587E-01  0.14156175721E-01  0.10199078900E+01  0.10196249518E+01 0.  0.
     999903    2    3    3    0    0  0.11023158228E+00  0.49398550222E-01  0.40444880138E-01  0.12894152253E+00  0.19972716561E-01 0.  0.
         14    1    1    2    0    0  0.94737635924E-02  0.16938484587E-01 -0.14156175721E-01  0.24022109977E-01  0.00000000000E+00 0.  1.
     999901    1    3    3    0    0 -0.11970534588E+00 -0.66337034810E-01 -0.26288704417E-01  0.89096636749E+00  0.88000000000E+00 0. -1.
        -11    1    4    4    0    0  0.44426625120E-01  0.30759648738E-01  0.17732827954E-01  0.56873502778E-01  0.51100000000E-03 0. -1.
         11    1    4    4    0    0  0.65804957164E-01  0.18638901484E-01  0.22712052184E-01  0.72068019754E-01  0.51100000000E-03 0.  1.
</event>
<event>
 8    1  0.1150307E+005  0.1043930E+01  0.7957747E-01            NaN
         13   -1    0    0    0    0  0.00000000000E+00  0.00000000000E+00  0.74505805969E-08  0.10566000000E+00  0.10566000000E+00 0.  1.
     999900   -1    0    0    0    0 -0.00000000000E+00 -0.00000000000E+00 -0.74505805969E-08  0.93827000000E+00  0.93827000000E+00 0.  1.
     999902    2    1    2    0    0  0.15000410119E-01 -0.36735328095E-02  0.17867745125E-01  0.10203129836E+01  0.10200396174E+01 0.  0.
     999903    2    3    3    0    0  0.98167781594E-01 -0.85757813692E-01  0.13930115328E-01  0.13257983352E+00  0.19800206857E-01 0.  0.
         14    1    1    2    0    0 -0.15000410119E-01  0.36735328095E-02 -0.17867745125E-01  0.23617016384E-01  0.00000000000E+00 0. -1.
     999901    1    3    3    0    0 -0.83167371474E-01  0.82084280882E-01  0.39376297966E-02  0.88773315009E+00  0.88000000000E+00 0.  1.
        -11    1    4    4    0    0  0.38838340565E-01 -0.21685256289E-01  0.61781888702E-02  0.44912116148E-01  0.51100000000E-03 0. -1.
         11    1    4    4    0    0  0.59329441029E-01 -0.64072557403E-01  0.77519264579E-02  0.87667717375E-01  0.51100000000E-03 0.  1.
</event>
<event>
 8    1  0.1150307E+005  0.1043930E+01  0.7957747E-01            NaN
         13   -1    0    0    0    0  0.00000000000E+00  0.00000000000E+00  0.74505805969E-08  0.10566000000E+00  0.10566000000E+00 0. -1.
     999900   -1    0    0    0    0 -0.00000000000E+00 -0.00000000000E+00 -0.74505805969E-08  0.93827000000E+00  0.93827000000E+00 0. -1.
     999902    2    1    2    0    0  0.10078938395E-01 -0.20508132713E-01  0.25291657856E-02  0.10209394544E+01  0.10206805594E+01 0.  0.
     999903    2    3    3    0    0  0.22227523090E-01  0.11533471457E+00  0.49986875383E-01  0.12916980845E+00  0.19748228699E-01 0.  0.
         14    1    1    2    0    0 -0.10078938395E-01  0.20508132713E-01 -0.25291657856E-02  0.22990545581E-01  0.00000000000E+00 0.  1.
     999901    1    3    3    0    0 -0.12148584695E-01 -0.13584284728E+00 -0.47457709597E-01  0.89176964597E+00  0.88000000000E+00 0.  1.
        -11    1    4    4    0    0  0.25350949978E-01  0.87754877398E-01  0.38411010157E-01  0.99092159095E-01  0.51100000000E-03 0.  1.
         11    1    4    4    0    0 -0.31234268876E-02  0.27579837174E-01  0.11575865226E-01  0.30077649356E-01  0.51100000000E-03 0. -1.
</event>
<event>
 8    1  0.1150307E+005  0.1043930E+01  0.7957747E-01            NaN
         13   -1    0    0    0    0  0.00000000000E+00  0.00000000000E+00  0.74505805969E-08  0.10566000000E+00  0.10566000000E+00 0. -1.
     999900   -1    0    0    0    0 -0.00000000000E+00 -0.00000000000E+00 -0.74505805969E-08  0.93827000000E+00  0.93827000000E+00 0.  1.
     999902    2    1    2    0    0  0.55494703774E-03  0.17048253210E-01  0.19285858505E-01  0.10181832479E+01  0.10178576674E+01 0.  0.
     999903    2    3    3    0    0 -0.10027207301E-01 -0.12340179424E+00 -0.15351393434E-01  0.12630997384E+00  0.19748329102E-01 0.  0.
         14    1    1    2    0    0 -0.55494703774E-03 -0.17048253210E-01 -0.19285858505E-01  0.25746752067E-01  0.00000000000E+00 0.  1.
     999901    1    3    3    0    0  0.10582154338E-01  0.14045004745E+00  0.34637251939E-01  0.89187327409E+00  0.88000000000E+00 0.  1.
        -11    1    4    4    0    0 -0.41129851821E-02 -0.78782615402E-01 -0.19008709896E-01  0.81149302582E-01  0.51100000000E-03 0.  1.
         11    1    4    4    0    0 -0.59142221184E-02 -0.44619178841E-01  0.36573164615E-02  0.45160671257E-01  0.51100000000E-03 0. -1.
</event>
<event>
 8    1  0.1150307E+005  0.1043930E+01  0.7957747E-01            NaN
         13   -1    0    0    0    0  0.00000000000E+00  0.00000000000E+00  0.74505805969E-08  0.10566000000E+00  0.10566000000E+00 0. -1.
     999900   -1    0    0    0    0 -0.00000000000E+00 -0.00000000000E+00 -0.74505805969E-08  0.93827000000E+00  0.93827000000E+00 0. -1.
     999902    2    1    2    0    0  0.20548667860E-01  0.86699596976E-02 -0.75099024413E-02  0.10203967345E+01  0.10201253262E+01 0.  0.
     999903    2    3    3    0    0  0.87958516028E-01  0.13980043430E-01 -0.96449864774E-01  0.13333269985E+00  0.23300005944E-01 0.  0.
         14    1    1    2    0    0 -0.20548667860E-01 -0.86699596976E-02  0.75099024413E-02  0.23533265533E-01  0.00000000000E+00 0. -1.
     999901    1    3    3    0    0 -0.67409848168E-01 -0.53100837320E-02  0.88939962333E-01  0.88706403462E+00  0.88000000000E+00 0.  1.
        -11    1    4    4    0    0  0.78420216514E-01  0.12166156391E-01 -0.72524496775E-01  0.10750725312E+00  0.51100000000E-03 0. -1.
         11    1    4    4    0    0  0.95382995143E-02  0.18138870390E-02 -0.23925367999E-01  0.25825446728E-01  0.51100000000E-03 0.  1.
</event>
<event>
 8    1  0.1150307E+005  0.1043930E+01  0.7957747E-01            NaN
         13   -1    0    0    0    0  0.00000000000E+00  0.00000000000E+00  0.74505805969E-08  0.10566000000E+00  0.10566000000E+00 0.  1.
     999900   -1    0    0    0    0 -0.00000000000E+00 -0.00000000000E+00 -0.74505805969E-08  0.93827000000E+00  0.93827000000E+00 0. -1.
     999902    2    1    2    0    0 -0.64632986393E-02  0.86887913135E-02 -0.21524729219E-01  0.10198347040E+01  0.10195500184E+01 0.  0.
     999903    2    3    3    0    0 -0.10139176982E+00 -0.10019508155E-01 -0.82200371764E-01  0.13245488183E+00  0.20167128488E-01 0.  0.
         14    1    1    2    0    0  0.64632986393E-02 -0.86887913135E-02  0.21524729219E-01  0.24095296050E-01  0.00000000000E+00 0.  1.
     999901    1    3    3    0    0  0.94928471180E-01  0.18708299469E-01  0.60675642546E-01  0.88737982212E+00  0.88000000000E+00 0.  1.
        -11    1    4    4    0    0 -0.44858136971E-01 -0.67630978843E-03 -0.48083948826E-01  0.65765014279E-01  0.51100000000E-03 0. -1.
         11    1    4    4    0    0 -0.56533632848E-01 -0.93431983669E-02 -0.34116422939E-01  0.66689867550E-01  0.51100000000E-03 0.  1.
</event>
<event>
 8    1  0.1150307E+005  0.1043930E+01  0.7957747E-01            NaN
         13   -1    0    0    0    0  0.00000000000E+00  0.00000000000E+00  0.74505805969E-08  0.10566000000E+00  0.10566000000E+00 0. -1.
     999900   -1    0    0    0    0 -0.00000000000E+00 -0.00000000000E+00 -0.74505805969E-08  0.93827000000E+00  0.93827000000E+00 0.  1.
     999902    2    1    2    0    0  0.14292625178E-01 -0.98957848616E-02  0.16021658280E-01  0.10202889504E+01  0.10200150210E+01 0.  0.
     999903    2    3    3    0    0 -0.74358771532E-01 -0.10539451324E+00  0.37271860018E-02  0.13060910275E+00  0.20189489364E-01 0.  0.
         14    1    1    2    0    0 -0.14292625178E-01  0.98957848616E-02 -0.16021658280E-01  0.23641049608E-01  0.00000000000E+00 0.  1.
     999901    1    3    3    0    0  0.88651396710E-01  0.95498728374E-01  0.12294472279E-01  0.88967984765E+00  0.88000000000E+00 0. -1.
        -11    1    4    4    0    0 -0.25584666969E-01 -0.39860305265E-01  0.10885166474E-01  0.48602130508E-01  0.51100000000E-03 0.  1.
         11    1    4    4    0    0 -0.48774104563E-01 -0.65534207970E-01 -0.71579804724E-02  0.82006972238E-01  0.51100000000E-03 0. -1.
</event>
<event>
 8    1  0.1150307E+005  0.1043930E+01  0.7957747E-01            NaN
         13   -1    0    0    0    0  0.00000000000E+00  0.00000000000E+00  0.74505805969E-08  0.10566000000E+00  0.10566000000E+00 0. -1.
     999900   -1    0    0    0    0 -0.00000000000E+00 -0.00000000000E+00 -0.74505805969E-08  0.93827000000E+00  0.93827000000E+00 0.  1.
     999902    2    1    2    0    0  0.14164535138E-01  0.14470301590E-01 -0.12221125883E-01  0.10202787928E+01  0.10200046252E+01 0.  0.
     999903    2    3    3    0    0 -0.64641464861E-01  0.88022335022E-01 -0.70882931396E-01  0.13176233563E+00  0.20260125473E-01 0.  0.
         14    1    1    2    0    0 -0.14164535138E-01 -0.14470301590E-01  0.12221125883E-01  0.23651207192E-01  0.00000000000E+00 0. -1.
     999901    1    3    3    0    0  0.78805999999E-01 -0.73552033432E-01  0.58661805513E-01  0.88851645718E+00  0.88000000000E+00 0.  1.
        -11    1    4    4    0    0 -0.16250392563E-01  0.38682455005E-01 -0.26810859583E-01  0.49794486605E-01  0.51100000000E-03 0.  1.
         11    1    4    4    0    0 -0.48391072298E-01  0.49339880017E-01 -0.44072071813E-01  0.81967849021E-01  0.51100000000E-03 0. -1.
</event>
<event>
 7    1  0.1150307E+005  0.1043930E+01  0.7957747E-01            NaN
         13   -1    0    0    0    0  0.00000000000E+00  0.00000000000E+00  0.74505805969E-08  0.10566000000E+00  0.10566000000E+00 0.  1.
     999900   -1    0    0    0    0 -0.00000000000E+00 -0.00000000000E+00 -0.74505805969E-08  0.93827000000E+00  0.93827000000E+00 0.  1.
     999903    2    1    2    0    0 -0.59142569804E-01 -0.87924168224E-01  0.33495217289E-01  0.11299851027E+00  0.20450692419E-01 0.  0.
         14    1    1    2    0    0 -0.38932721338E-01  0.74945569255E-02  0.96025570117E-02  0.40793801925E-01  0.00000000000E+00 0. -1.
     999901    1    1    2    0    0  0.98075291143E-01  0.80429611299E-01 -0.43097774301E-01  0.89013768781E+00  0.88000000000E+00 0.  1.
        -11    1    3    3    0    0 -0.51381523126E-01 -0.83342450199E-01  0.34731424044E-01  0.10388723628E+00  0.51100000000E-03 0.  1.
         11    1    3    3    0    0 -0.77610466783E-02 -0.45817180246E-02 -0.12362067544E-02  0.91112739910E-02  0.51100000000E-03 0. -1.
</event>
<event>
 8    1  0.1150307E+005  0.1043930E+01  0.7957747E-01            NaN
         13   -1    0    0    0    0  0.00000000000E+00  0.00000000000E+00  0.74505805969E-08  0.10566000000E+00  0.10566000000E+00 0. -1.
     999900   -1    0    0    0    0 -0.00000000000E+00 -0.00000000000E+00 -0.74505805969E-08  0.93827000000E+00  0.93827000000E+00 0.  1.
     999902    2    1    2    0    0  0.26683389661E-02  0.18396840456E-01 -0.13056875245E-01  0.10212133593E+01  0.10209606650E+01 0.  0.
     999903    2    3    3    0    0 -0.42306694828E-01  0.81570557751E-02 -0.12425497497E+00  0.13301708360E+00  0.19946221168E-01 0.  0.
         14    1    1    2    0    0 -0.26683389661E-02 -0.18396840456E-01  0.13056875245E-01  0.22716640658E-01  0.00000000000E+00 0. -1.
     999901    1    3    3    0    0  0.44975033794E-01  0.10239784681E-01  0.11119809973E+00  0.88819627574E+00  0.88000000000E+00 0. -1.
        -11    1    4    4    0    0 -0.24860043509E-01  0.13617091389E-01 -0.62880996213E-01  0.68976283945E-01  0.51100000000E-03 0. -1.
         11    1    4    4    0    0 -0.17446651319E-01 -0.54600356137E-02 -0.61373978758E-01  0.64040799658E-01  0.51100000000E-03 0.  1.
</event>
<event>
 8    1  0.1150307E+005  0.1043930E+01  0.7957747E-01            NaN
         13   -1    0    0    0    0  0.00000000000E+00  0.00000000000E+00  0.74505805969E-08  0.10566000000E+00  0.10566000000E+00 0.  1.
     999900   -1    0    0    0    0 -0.00000000000E+00 -0.00000000000E+00 -0.74505805969E-08  0.93827000000E+00  0.93827000000E+00 0.  1.
     999902    2    1    2    0    0 -0.69249287775E-02 -0.15208389477E-02 -0.23997530776E-01  0.10189070291E+01  0.10185997177E+01 0.  0.
     999903    2    3    3    0    0 -0.86883529635E-01 -0.94176436538E-01  0.59138082454E-02  0.12993395536E+00  0.20734288202E-01 0.  0.
         14    1    1    2    0    0  0.69249287775E-02  0.15208389477E-02  0.23997530776E-01  0.25022970908E-01  0.00000000000E+00 0.  1.
     999901    1    3    3    0    0  0.79958600857E-01  0.92655597590E-01 -0.29911339022E-01  0.88897307373E+00  0.88000000000E+00 0.  1.
        -11    1    4    4    0    0 -0.50791769870E-01 -0.48298368600E-01 -0.60267586789E-02  0.70349976810E-01  0.51100000000E-03 0. -1.
         11    1    4    4    0    0 -0.36091759764E-01 -0.45878067938E-01  0.11940566924E-01  0.59583978552E-01  0.51100000000E-03 0.  1.
</event>
<event>
 8    1  0.1150307E+005  0.1043930E+01  0.7957747E-01            NaN
         13   -1    0    0    0    0  0.00000000000E+00  0.00000000000E+00  0.74505805969E-08  0.10566000000E+00  0.10566000000E+00 0.  1.
     999900   -1    0    0    0    0 -0.00000000000E+00 -0.00000000000E+00 -0.74505805969E-08  0.93827000000E+00  0.93827000000E+00 0. -1.
     999902    2    1    2    0    0 -0.98936508257E-02  0.17540091650E-01 -0.12226788343E-01  0.10203708511E+01  0.10200988385E+01 0.  0.
     999903    2    3    3    0    0 -0.49598177243E-01  0.12194094161E+00  0.25558818741E-02  0.13318737844E+00  0.20069200708E-01 0.  0.
         14    1    1    2    0    0  0.98936508257E-02 -0.17540091650E-01  0.12226788343E-01  0.23559148858E-01  0.00000000000E+00 0.  1.
     999901    1    3    3    0    0  0.39704526417E-01 -0.10440084996E+00 -0.14782670217E-01  0.88718347270E+00  0.88000000000E+00 0.  1.
        -11    1    4    4    0    0 -0.35183708482E-01  0.66995262324E-01 -0.52043076981E-02  0.75852517796E-01  0.51100000000E-03 0.  1.
         11    1    4    4    0    0 -0.14414468761E-01  0.54945679289E-01  0.77601895723E-02  0.57334860647E-01  0.51100000000E-03 0. -1.
</event>
<event>
 8    1  0.1150307E+005  0.1043930E+01  0.7957747E-01            NaN
         13   -1    0    0    0    0  0.00000000000E+00  0.00000000000E+00  0.74505805969E-08  0.10566000000E+00  0.10566000000E+00 0.  1.
     999900   -1    0    0    0    0 -0.00000000000E+00 -0.00000000000E+00 -0.74505805969E-08  0.93827000000E+00  0.93827000000E+00 0.  1.
     999902    2    1    2    0    0 -0.97688981775E-02  0.75561407967E-02  0.19877024578E-01  0.10205286594E+01  0.10202603207E+01 0.  0.
     999903    2    3    3    0    0 -0.22367565030E-01  0.87944625199E-01 -0.90733616542E-01  0.12987959903E+00  0.20038862399E-01 0.  0.
         14    1    1    2    0    0  0.97688981775E-02 -0.75561407967E-02 -0.19877024578E-01  0.23401340590E-01  0.00000000000E+00 0. -1.
     999901    1    3    3    0    0  0.12598666852E-01 -0.80388484402E-01  0.11061064112E+00  0.89064906038E+00  0.88000000000E+00 0. -1.
        -11    1    4    4    0    0 -0.10744293690E-01  0.69008826329E-01 -0.60808991873E-01  0.92604819377E-01  0.51100000000E-03 0.  1.
         11    1    4    4    0    0 -0.11623271340E-01  0.18935798870E-01 -0.29924624669E-01  0.37274779651E-01  0.51100000000E-03 0. -1.
</event>
<event>
 8    1  0.1150307E+005  0.1043930E+01  0.7957747E-01            NaN
         13   -1    0    0    0    0  0.00000000000E+00  0.00000000000E+00  0.74505805969E-08  0.10566000000E+00  0.10566000000E+00 0. -1.
     999900   -1    0    0    0    0 -0.00000000000E+00 -0.00000000000E+00 -0.74505805969E-08  0.93827000000E+00  0.93827000000E+00 0.  1.
     999902    2    1    2    0    0 -0.61342420031E-02  0.19427373593E-01 -0.12267689478E-01  0.10201487474E+01  0.10198715208E+01 0.  0.
     999903    2    3    3    0    0  0.40208630189E-01 -0.11536248149E+00  0.30783832861E-01  0.12764138026E+00  0.20480271310E-01 0.  0.
         14    1    1    2    0    0  0.61342420031E-02 -0.19427373593E-01  0.12267689478E-01  0.23781252591E-01  0.00000000000E+00 0.  1.
     999901    1    3    3    0    0 -0.46342872192E-01  0.13478985508E+00 -0.43051522339E-01  0.89250736715E+00  0.88000000000E+00 0. -1.
        -11    1    4    4    0    0  0.30161715553E-01 -0.95659080845E-01  0.32539413788E-01  0.10544886630E+00  0.51100000000E-03 0. -1.
         11    1    4    4    0    0  0.10046914635E-01 -0.19703400643E-01 -0.17555809269E-02  0.22192513962E-01  0.51100000000E-03 0.  1.
</event>
<event>
 8    1  0.1150307E+005  0.1043930E+01  0.7957747E-01            NaN
         13   -1    0    0    0    0  0.00000000000E+00  0.00000000000E+00  0.74505805969E-08  0.10566000000E+00  0.10566000000E+00 0. -1.
     999900   -1    0    0    0    0 -0.00000000000E+00 -0.00000000000E+00 -0.74505805969E-08  0.93827000000E+00  0.93827000000E+00 0. -1.
     999902    2    1    2    0    0 -0.19876523680E-01 -0.79523464444E-02 -0.59780944555E-02  0.10217026830E+01  0.10214608748E+01 0.  0.
     999903    2    3    3    0    0  0.24626602851E-01  0.10277649319E+00 -0.74760225434E-01  0.13098814639E+00  0.19983144569E-01 0.  0.
         14    1    1    2    0    0  0.19876523680E-01  0.79523464444E-02  0.59780944555E-02  0.22227316997E-01  0.00000000000E+00 0.  1.
     999901    1    3    3    0    0 -0.44503126531E-01 -0.11072883963E+00  0.68782130979E-01  0.89071453662E+00  0.88000000000E+00 0. -1.
        -11    1    4    4    0    0  0.18236606746E-01  0.68071786277E-01 -0.38151387995E-01  0.80138202123E-01  0.51100000000E-03 0. -1.
         11    1    4    4    0    0  0.63899961055E-02  0.34704706911E-01 -0.36608837439E-01  0.50849944264E-01  0.51100000000E-03 0.  1.
</event>
<event>
 8    1  0.1150307E+005  0.1043930E+01  0.7957747E-01            NaN
         13   -1    0    0    0    0  0.00000000000E+00  0.00000000000E+00  0.74505805969E-08  0.10566000000E+00  0.10566000000E+00 0.  1.
     999900   -1    0    0    0    0 -0.00000000000E+00 -0.00000000000E+00 -0.74505805969E-08  0.93827000000E+00  0.93827000000E+00 0.  1.
     999902    2    1    2    0    0  0.11611083669E-01 -0.15705600324E-01  0.13718731656E-01  0.10200618886E+01  0.10197826091E+01 0.  0.
     999903    2    3    3    0    0  0.18669447251E-02 -0.10811574089E+00  0.74825266056E-01  0.13306211918E+00  0.20352105796E-01 0.  0.
         14    1    1    2    0    0 -0.11611083669E-01  0.15705600324E-01 -0.13718731656E-01  0.23868111441E-01  0.00000000000E+00 0. -1.
     999901    1    3    3    0    0  0.97441389443E-02  0.92410140568E-01 -0.61106534400E-01  0.88699976937E+00  0.88000000000E+00 0.  1.
        -11    1    4    4    0    0 -0.83133881509E-02 -0.57915196264E-01  0.44737077039E-01  0.73654256929E-01  0.51100000000E-03 0.  1.
         11    1    4    4    0    0  0.10180332876E-01 -0.50200544628E-01  0.30088189017E-01  0.59407862255E-01  0.51100000000E-03 0. -1.
</event>
<event>
 8    1  0.1150307E+005  0.1043930E+01  0.7957747E-01            NaN
         13   -1    0    0    0    0  0.00000000000E+00  0.00000000000E+00  0.74505805969E-08  0.10566000000E+00  0.10566000000E+00 0. -1.
     999900   -1    0    0    0    0 -0.00000000000E+00 -0.00000000000E+00 -0.74505805969E-08  0.93827000000E+00  0.93827000000E+00 0. -1.
     999902    2    1    2    0    0 -0.72863352222E-02  0.98913652726E-02 -0.21510173920E-01  0.10191586987E+01  0.10188576131E+01 0.  0.
     999903    2    3    3    0    0 -0.63247266393E-01  0.81403507028E-01 -0.80965951000E-01  0.13249043958E+00  0.19273912318E-01 0.  0.
         14    1    1    2    0    0  0.72863352222E-02 -0.98913652726E-02  0.21510173920E-01  0.24771301338E-01  0.00000000000E+00 0. -1.
     999901    1    3    3    0    0  0.55960931171E-01 -0.71512141755E-01  0.59455777080E-01  0.88666825908E+00  0.88000000000E+00 0.  1.
        -11    1    4    4    0    0 -0.47600503001E-01  0.55257107327E-01 -0.66727895823E-01  0.98853573522E-01  0.51100000000E-03 0.  1.
         11    1    4    4    0    0 -0.15646763392E-01  0.26146399701E-01 -0.14238055177E-01  0.33636866058E-01  0.51100000000E-03 0. -1.
</event>
<event>
 8    1  0.1150307E+005  0.1043930E+01  0.7957747E-01            NaN
         13   -1    0    0    0    0  0.00000000000E+00  0.00000000000E+00  0.74505805969E-08  0.10566000000E+00  0.10566000000E+00 0. -1.
     999900   -1    0    0    0    0 -0.00000000000E+00 -0.00000000000E+00 -0.74505805969E-08  0.93827000000E+00  0.93827000000E+00 0. -1.
     999902    2    1    2    0    0  0.77850691345E-02  0.76657754064E-02 -0.20646536563E-01  0.10205708287E+01  0.10203034673E+01 0.  0.
     999903    2    3    3    0    0  0.72484681861E-01  0.32193116587E-01  0.10040491097E+00  0.12959322888E+00  0.20562902624E-01 0.  0.
         14    1    1    2    0    0 -0.77850691345E-02 -0.76657754064E-02  0.20646536563E-01  0.23359171348E-01  0.00000000000E+00 0. -1.
     999901    1    3    3    0    0 -0.64699612726E-01 -0.24527341181E-01 -0.12105144753E+00  0.89097759978E+00  0.88000000000E+00 0. -1.
        -11    1    4    4    0    0  0.64108488845E-02  0.73696306040E-02  0.22117901791E-01  0.24184150581E-01  0.51100000000E-03 0.  1.
         11    1    4    4    0    0  0.66073832976E-01  0.24823485983E-01  0.78287009176E-01  0.10540907830E+00  0.51100000000E-03 0. -1.
</event>
<event>
 8    1  0.1150307E+005  0.1043930E+01  0.7957747E-01            NaN
         13   -1    0    0    0    0  0.00000000000E+00  0.00000000000E+00  0.74505805969E-08  0.10566000000E+00  0.10566000000E+00 0. -1.
     999900   -1    0    0    0    0 -0.00000000000E+00 -0.00000000000E+00 -0.74505805969E-08  0.93827000000E+00  0.93827000000E+00 0.  1.
     999902    2    1    2    0    0  0.64311166090E-02 -0.11743454553E-01 -0.17877092076E-01  0.10215948616E+01  0.10213506758E+01 0.  0.
     999903    2    3    3    0    0 -0.27877501374E-01 -0.12752647057E+00  0.14543748955E-01  0.13275635041E+00  0.19302128438E-01 0.  0.
         14    1    1    2    0    0 -0.64311166090E-02  0.11743454553E-01  0.17877092076E-01  0.22335138387E-01  0.00000000000E+00 0. -1.
     999901    1    3    3    0    0  0.34308617983E-01  0.11578301601E+00 -0.32420841031E-01  0.88883851120E+00  0.88000000000E+00 0. -1.
        -11    1    4    4    0    0 -0.24493502353E-01 -0.68074248904E-01  0.99390276204E-02  0.73027942682E-01  0.51100000000E-03 0.  1.
         11    1    4    4    0    0 -0.33839990204E-02 -0.59452221663E-01  0.46047213345E-02  0.59728407727E-01  0.51100000000E-03 0. -1.
</event>
<event>
 8    1  0.1150307E+005  0.1043930E+01  0.7957747E-01            NaN
         13   -1    0    0    0    0  0.00000000000E+00  0.00000000000E+00  0.74505805969E-08  0.10566000000E+00  0.10566000000E+00 0. -1.
     999900   -1    0    0    0    0 -0.00000000000E+00 -0.00000000000E+00 -0.74505805969E-08  0.93827000000E+00  0.93827000000E+00 0.  1.
     999902    2    1    2    0    0  0.34705616569E-02  0.21408706856E-01 -0.77314068201E-02  0.10209049663E+01  0.10206452851E+01 0.  0.
     999903    2    3    3    0    0  0.12974974609E+00 -0.84952328868E-02 -0.70499008801E-02  0.13138760134E+00  0.17488141500E-01 0.  0.
         14    1    1    2    0    0 -0.34705616569E-02 -0.21408706856E-01  0.77314068201E-02  0.23025033743E-01  0.00000000000E+00 0. -1.
     999901    1    3    3    0    0 -0.12627918443E+00  0.29903939742E-01 -0.68150594007E-03  0.88951736491E+00  0.88000000000E+00 0.  1.
        -11    1    4    4    0    0  0.19454121369E-01 -0.76096928855E-02 -0.84222428787E-03  0.20912692960E-01  0.51100000000E-03 0. -1.
         11    1    4    4    0    0  0.11029562472E+00 -0.88554000127E-03 -0.62076765922E-02  0.11047490838E+00  0.51100000000E-03 0.  1.
</event>
<event>
 8    1  0.1150307E+005  0.1043930E+01  0.7957747E-01            NaN
         13   -1    0    0    0    0  0.00000000000E+00  0.00000000000E+00  0.74505805969E-08  0.10566000000E+00  0.10566000000E+00 0.  1.
     999900   -1    0    0    0    0 -0.00000000000E+00 -0.00000000000E+00 -0.74505805969E-08  0.93827000000E+00  0.93827000000E+00 0. -1.
     999902    2    1    2    0    0  0.10391923985E-01  0.16002865598E-01  0.14144219393E-01  0.10201783109E+01  0.10199017812E+01 0.  0.
     999903    2    3    3    0    0 -0.62331723890E-01  0.11370958684E+00 -0.96471411913E-02  0.13147061929E+00  0.19399547956E-01 0.  0.
         14    1    1    2    0    0 -0.10391923985E-01 -0.16002865598E-01 -0.14144219393E-01  0.23751689070E-01  0.00000000000E+00 0. -1.
     999901    1    3    3    0    0  0.72723647875E-01 -0.97706721245E-01  0.23791360584E-01  0.88870769164E+00  0.88000000000E+00 0.  1.
        -11    1    4    4    0    0 -0.30170274092E-01  0.74640940096E-01 -0.61166358337E-02  0.80741499442E-01  0.51100000000E-03 0.  1.
         11    1    4    4    0    0 -0.32161449798E-01  0.39068646747E-01 -0.35305053576E-02  0.50729119851E-01  0.51100000000E-03 0. -1.
</event>
<event>
 8    1  0.1150307E+005  0.1043930E+01  0.7957747E-01            NaN
         13   -1    0    0    0    0  0.00000000000E+00  0.00000000000E+00  0.74505805969E-08  0.10566000000E+00  0.10566000000E+00 0. -1.
     999900   -1    0    0    0    0 -0.00000000000E+00 -0.00000000000E+00 -0.74505805969E-08  0.93827000000E+00  0.93827000000E+00 0.  1.
     999902    2    1    2    0    0  0.26992522276E-01 -0.20091845393E-01 -0.16229930901E-01  0.10065710765E+01  0.10058775486E+01 0.  0.
     999903    2    3    3    0    0 -0.11872966468E-01 -0.11437845267E+00 -0.29951169000E-01  0.12057516062E+00  0.20442579731E-01 0.  0.
         14    1    1    2    0    0 -0.26992522276E-01  0.20091845393E-01  0.16229930901E-01  0.37358923528E-01  0.00000000000E+00 0. -1.
     999901    1    3    3    0    0  0.38865488744E-01  0.94286607280E-01  0.13721238099E-01  0.88599591585E+00  0.88000000000E+00 0. -1.
        -11    1    4    4    0    0 -0.88355829887E-02 -0.39291773008E-01 -0.19343216962E-01  0.44680332544E-01  0.51100000000E-03 0.  1.
         11    1    4    4    0    0 -0.30373834798E-02 -0.75086679665E-01 -0.10607952038E-01  0.75894828078E-01  0.51100000000E-03 0. -1.
</event>
<event>
 8    1  0.1150307E+005  0.1043930E+01  0.7957747E-01            NaN
         13   -1    0    0    0    0  0.00000000000E+00  0.00000000000E+00  0.74505805969E-08  0.10566000000E+00  0.10566000000E+00 0. -1.
     999900   -1    0    0    0    0 -0.00000000000E+00 -0.00000000000E+00 -0.74505805969E-08  0.93827000000E+00  0.93827000000E+00 0. -1.
     999902    2    1    2    0    0 -0.46681871643E-02 -0.91913288559E-02 -0.22120632864E-01  0.10195251870E+01  0.10192330509E+01 0.  0.
     999903    2    3    3    0    0  0.41389378486E-01 -0.58416090856E-01 -0.10987271869E+00  0.13259519819E+00  0.19594691863E-01 0.  0.
         14    1    1    2    0    0  0.46681871643E-02  0.91913288559E-02  0.22120632864E-01  0.24404812964E-01  0.00000000000E+00 0. -1.
     999901    1    3    3    0    0 -0.46057565650E-01  0.49224762001E-01  0.87752085822E-01  0.88692998885E+00  0.88000000000E+00 0.  1.
        -11    1    4    4    0    0  0.40877446920E-01 -0.47676004035E-01 -0.86827514424E-01  0.10715990579E+00  0.51100000000E-03 0.  1.
         11    1    4    4    0    0  0.51193156561E-03 -0.10740086821E-01 -0.23045204262E-01  0.25435292397E-01  0.51100000000E-03 0. -1.
</event>
<event>
 8    1  0.1150307E+005  0.1043930E+01  0.7957747E-01            NaN
         13   -1    0    0    0    0  0.00000000000E+00  0.00000000000E+00  0.74505805969E-08  0.10566000000E+00  0.10566000000E+00 0. -1.
     999900   -1    0    0    0    0 -0.00000000000E+00 -0.00000000000E+00 -0.74505805969E-08  0.93827000000E+00  0.93827000000E+00 0. -1.
     999902    2    1    2    0    0 -0.16948181229E-01  0.13775848910E-01  0.92030308486E-02  0.10202295646E+01  0.10199542411E+01 0.  0.
     999903    2    3    3    0    0 -0.75642459530E-01 -0.94908665398E-01 -0.42386414198E-01  0.13010664458E+00  0.20042315306E-01 0.  0.
         14    1    1    2    0    0  0.16948181229E-01 -0.13775848910E-01 -0.92030308486E-02  0.23700435375E-01  0.00000000000E+00 0.  1.
     999901    1    3    3    0    0  0.58694278301E-01  0.10868451431E+00  0.51589445047E-01  0.89012292005E+00  0.88000000000E+00 0. -1.
        -11    1    4    4    0    0 -0.26094143293E-01 -0.34766974213E-01 -0.52627998368E-02  0.43790466922E-01  0.51100000000E-03 0. -1.
         11    1    4    4    0    0 -0.49548316238E-01 -0.60141691185E-01 -0.37123614362E-01  0.86316177654E-01  0.51100000000E-03 0.  1.
</event>
<event>
 8    1  0.1150307E+005  0.1043930E+01  0.7957747E-01            NaN
         13   -1    0    0    0    0  0.00000000000E+00  0.00000000000E+00  0.74505805969E-08  0.10566000000E+00  0.10566000000E+00 0. -1.
     999900   -1    0    0    0    0 -0.00000000000E+00 -0.00000000000E+00 -0.74505805969E-08  0.93827000000E+00  0.93827000000E+00 0. -1.
     999902    2    1    2    0    0  0.17952342291E-01 -0.14678886816E-01  0.30204213235E-02  0.10205445503E+01  0.10202765801E+01 0.  0.
     999903    2    3    3    0    0 -0.23680836695E-01 -0.86646959207E-01  0.94520272963E-01  0.13190235692E+00  0.19891510594E-01 0.  0.
         14    1    1    2    0    0 -0.17952342291E-01  0.14678886816E-01 -0.30204213235E-02  0.23385449683E-01  0.00000000000E+00 0.  1.
     999901    1    3    3    0    0  0.41633178986E-01  0.71968072390E-01 -0.91499851639E-01  0.88864219340E+00  0.88000000000E+00 0.  1.
        -11    1    4    4    0    0  0.50763834040E-04 -0.23179613685E-01  0.33334399548E-01  0.40604684235E-01  0.51100000000E-03 0. -1.
         11    1    4    4    0    0 -0.23731600529E-01 -0.63467345521E-01  0.61185873414E-01  0.91297672685E-01  0.51100000000E-03 0.  1.
</event>
<event>
 8    1  0.1150307E+005  0.1043930E+01  0.7957747E-01            NaN
         13   -1    0    0    0    0  0.00000000000E+00  0.00000000000E+00  0.74505805969E-08  0.10566000000E+00  0.10566000000E+00 0.  1.
     999900   -1    0    0    0    0 -0.00000000000E+00 -0.00000000000E+00 -0.74505805969E-08  0.93827000000E+00  0.93827000000E+00 0. -1.
     999902    2    1    2    0    0 -0.22232648417E-02  0.13028826344E-01  0.18618397304E-01  0.10210971741E+01  0.10208418589E+01 0.  0.
     999903    2    3    3    0    0 -0.10748093489E+00 -0.47658257035E-01 -0.50712084330E-01  0.13004789659E+00  0.22743770158E-01 0.  0.
         14    1    1    2    0    0  0.22232648417E-02 -0.13028826344E-01 -0.18618397304E-01  0.22832825945E-01  0.00000000000E+00 0. -1.
     999901    1    3    3    0    0  0.10525767005E+00  0.60687083380E-01  0.69330481634E-01  0.89104927747E+00  0.88000000000E+00 0.  1.
        -11    1    4    4    0    0 -0.63583617824E-01 -0.32384866962E-01 -0.19213042774E-01  0.73898972911E-01  0.51100000000E-03 0.  1.
         11    1    4    4    0    0 -0.43897317067E-01 -0.15273390074E-01 -0.31499041556E-01  0.56148923676E-01  0.51100000000E-03 0. -1.
</event>
<event>
 8    1  0.1150307E+005  0.1043930E+01  0.7957747E-01            NaN
         13   -1    0    0    0    0  0.00000000000E+00  0.00000000000E+00  0.74505805969E-08  0.10566000000E+00  0.10566000000E+00 0. -1.
     999900   -1    0    0    0    0 -0.00000000000E+00 -0.00000000000E+00 -0.74505805969E-08  0.93827000000E+00  0.93827000000E+00 0. -1.
     999902    2    1    2    0    0 -0.79283548531E-02  0.18353018334E-01  0.11014400046E-01  0.10211043762E+01  0.10208492239E+01 0.  0.
     999903    2    3    3    0    0 -0.90666424144E-01 -0.70874535074E-01 -0.57546489605E-01  0.13008937074E+00  0.19184517848E-01 0.  0.
         14    1    1    2    0    0  0.79283548531E-02 -0.18353018334E-01 -0.11014400046E-01  0.22825623781E-01  0.00000000000E+00 0.  1.
     999901    1    3    3    0    0  0.82738069291E-01  0.89227553407E-01  0.68560889650E-01  0.89101500548E+00  0.88000000000E+00 0.  1.
        -11    1    4    4    0    0 -0.19959392588E-01 -0.25344705334E-01 -0.11811255364E-01  0.34358380567E-01  0.51100000000E-03 0. -1.
         11    1    4    4    0    0 -0.70707031556E-01 -0.45529829740E-01 -0.45735234240E-01  0.95730990174E-01  0.51100000000E-03 0.  1.
</event>
<event>
 8    1  0.1150307E+005  0.1043930E+01  0.7957747E-01            NaN
         13   -1    0    0    0    0  0.00000000000E+00  0.00000000000E+00  0.74505805969E-08  0.10566000000E+00  0.10566000000E+00 0. -1.
     999900   -1    0    0    0    0 -0.00000000000E+00 -0.00000000000E+00 -0.74505805969E-08  0.93827000000E+00  0.93827000000E+00 0. -1.
     999902    2    1    2    0    0  0.78076254084E-02 -0.14952206607E-01  0.18735182009E-01  0.10187201896E+01  0.10184082139E+01 0.  0.
     999903    2    3    3    0    0  0.10040237564E+00 -0.94711536341E-02 -0.77609320040E-01  0.12861564920E+00  0.18666517537E-01 0.  0.
         14    1    1    2    0    0 -0.78076254084E-02  0.14952206607E-01 -0.18735182009E-01  0.25209810428E-01  0.00000000000E+00 0.  1.
     999901    1    3    3    0    0 -0.92594750233E-01 -0.54810529728E-02  0.96344502049E-01  0.89010454037E+00  0.88000000000E+00 0.  1.
        -11    1    4    4    0    0  0.48316236319E-01 -0.13420338717E-01 -0.41768717674E-01  0.65264470277E-01  0.51100000000E-03 0.  1.
         11    1    4    4    0    0  0.52086139322E-01  0.39491850825E-02 -0.35840602366E-01  0.63351178925E-01  0.51100000000E-03 0. -1.
</event>
<event>
 8    1  0.1150307E+005  0.1043930E+01  0.7957747E-01            NaN
         13   -1    0    0    0    0  0.00000000000E+00  0.00000000000E+00  0.74505805969E-08  0.10566000000E+00  0.10566000000E+00 0. -1.
     999900   -1    0    0    0    0 -0.00000000000E+00 -0.00000000000E+00 -0.74505805969E-08  0.93827000000E+00  0.93827000000E+00 0. -1.
     999902    2    1    2    0    0  0.10048022480E-01  0.14468108427E-01 -0.15426119187E-01  0.10205151741E+01  0.10202465224E+01 0.  0.
     999903    2    3    3    0    0 -0.55948266947E-01  0.50066312483E-01 -0.10764342637E+00  0.13252487346E+00  0.18408982150E-01 0.  0.
         14    1    1    2    0    0 -0.10048022480E-01 -0.14468108427E-01  0.15426119187E-01  0.23414825866E-01  0.00000000000E+00 0. -1.
     999901    1    3    3    0    0  0.65996289427E-01 -0.35598204056E-01  0.92217307185E-01  0.88799030068E+00  0.88000000000E+00 0.  1.
        -11    1    4    4    0    0 -0.21651923141E-01  0.81568593715E-02 -0.31649251219E-01  0.39208115923E-01  0.51100000000E-03 0.  1.
         11    1    4    4    0    0 -0.34296343806E-01  0.41909453111E-01 -0.75994175153E-01  0.93316757534E-01  0.51100000000E-03 0. -1.
</event>
<event>
 8    1  0.1150307E+005  0.1043930E+01  0.7957747E-01            NaN
         13   -1    0    0    0    0  0.00000000000E+00  0.00000000000E+00  0.74505805969E-08  0.10566000000E+00  0.10566000000E+00 0. -1.
     999900   -1    0    0    0    0 -0.00000000000E+00 -0.00000000000E+00 -0.74505805969E-08  0.93827000000E+00  0.93827000000E+00 0. -1.
     999902    2    1    2    0    0  0.85310775868E-02  0.40575223228E-02 -0.22058589676E-01  0.10199336638E+01  0.10196513396E+01 0.  0.
     999903    2    3    3    0    0  0.78006463311E-01 -0.54715563880E-01  0.84560012672E-01  0.12883959961E+00  0.19246959119E-01 0.  0.
         14    1    1    2    0    0 -0.85310775868E-02 -0.40575223228E-02  0.22058589676E-01  0.23996336193E-01  0.00000000000E+00 0. -1.
     999901    1    3    3    0    0 -0.69475385724E-01  0.58773086202E-01 -0.10661860235E+00  0.89109406420E+00  0.88000000000E+00 0. -1.
        -11    1    4    4    0    0  0.68231001133E-01 -0.38718651409E-01  0.68200810120E-01  0.10395294659E+00  0.51100000000E-03 0.  1.
         11    1    4    4    0    0  0.97754621778E-02 -0.15996912471E-01  0.16359202551E-01  0.24886653019E-01  0.51100000000E-03 0. -1.
</event>
<event>
 8    1  0.1150307E+005  0.1043930E+01  0.7957747E-01            NaN
         13   -1    0    0    0    0  0.00000000000E+00  0.00000000000E+00  0.74505805969E-08  0.10566000000E+00  0.10566000000E+00 0. -1.
     999900   -1    0    0    0    0 -0.00000000000E+00 -0.00000000000E+00 -0.74505805969E-08  0.93827000000E+00  0.93827000000E+00 0.  1.
     999902    2    1    2    0    0  0.78875535882E-02  0.16273376368E-01  0.15819842606E-01  0.10199028549E+01  0.10196197967E+01 0.  0.
     999903    2    3    3    0    0  0.84981211735E-01 -0.90404932627E-01  0.33350390495E-01  0.12994161204E+00  0.19434911956E-01 0.  0.
         14    1    1    2    0    0 -0.78875535882E-02 -0.16273376368E-01 -0.15819842606E-01  0.24027145068E-01  0.00000000000E+00 0.  1.
     999901    1    3    3    0    0 -0.77093658147E-01  0.10667830900E+00 -0.17530547888E-01  0.88996124289E+00  0.88000000000E+00 0. -1.
        -11    1    4    4    0    0  0.61205547132E-01 -0.56741189471E-01  0.29597107513E-01  0.88554680715E-01  0.51100000000E-03 0.  1.
         11    1    4    4    0    0  0.23775664603E-01 -0.33663743156E-01  0.37532829816E-02  0.41386931328E-01  0.51100000000E-03 0. -1.
</event>
<event>
 8    1  0.1150307E+005  0.1043930E+01  0.7957747E-01            NaN
         13   -1    0    0    0    0  0.00000000000E+00  0.00000000000E+00  0.74505805969E-08  0.10566000000E+00  0.10566000000E+00 0. -1.
     999900   -1    0    0    0    0 -0.00000000000E+00 -0.00000000000E+00 -0.74505805969E-08  0.93827000000E+00  0.93827000000E+00 0. -1.
     999902    2    1    2    0    0 -0.70639435352E-02 -0.17298746904E-01  0.14640702956E-01  0.10201919267E+01  0.10199157176E+01 0.  0.
     999903    2    3    3    0    0  0.16350981907E-01  0.12345421020E+00  0.25053101848E-01  0.12863818643E+00  0.20293557349E-01 0.  0.
         14    1    1    2    0    0  0.70639435352E-02  0.17298746904E-01 -0.14640702956E-01  0.23738073337E-01  0.00000000000E+00 0.  1.
     999901    1    3    3    0    0 -0.23414925443E-01 -0.14075295711E+00 -0.10412398892E-01  0.89155374023E+00  0.88000000000E+00 0.  1.
        -11    1    4    4    0    0  0.77963261162E-02  0.78963253599E-01  0.25441461570E-01  0.83327709723E-01  0.51100000000E-03 0. -1.
         11    1    4    4    0    0  0.85546557913E-02  0.44490956605E-01 -0.38835972182E-03  0.45310476709E-01  0.51100000000E-03 0.  1.
</event>
<event>
 8    1  0.1150307E+005  0.1043930E+01  0.7957747E-01            NaN
         13   -1    0    0    0    0  0.00000000000E+00  0.00000000000E+00  0.74505805969E-08  0.10566000000E+00  0.10566000000E+00 0. -1.
     999900   -1    0    0    0    0 -0.00000000000E+00 -0.00000000000E+00 -0.74505805969E-08  0.93827000000E+00  0.93827000000E+00 0. -1.
     999902    2    1    2    0    0 -0.10714463679E-03  0.20501270544E-01 -0.14073113927E-01  0.10190630318E+01  0.10187595872E+01 0.  0.
     999903    2    3    3    0    0 -0.49868876329E-01 -0.97129873583E-01  0.61007798974E-01  0.12667832801E+00  0.20107960670E-01 0.  0.
         14    1    1    2    0    0  0.10714463679E-03 -0.20501270544E-01  0.14073113927E-01  0.24866968241E-01  0.00000000000E+00 0.  1.
     999901    1    3    3    0    0  0.49761731692E-01  0.11763114413E+00 -0.75080912901E-01  0.89238470375E+00  0.88000000000E+00 0.  1.
        -11    1    4    4    0    0 -0.46306718545E-01 -0.78953713079E-01  0.44133330621E-01  0.10161699161E+00  0.51100000000E-03 0. -1.
         11    1    4    4    0    0 -0.35621577845E-02 -0.18176160504E-01  0.16874468353E-01  0.25061336396E-01  0.51100000000E-03 0.  1.
</event>
<event>
 8    1  0.1150307E+005  0.1043930E+01  0.7957747E-01            NaN
         13   -1    0    0    0    0  0.00000000000E+00  0.00000000000E+00  0.74505805969E-08  0.10566000000E+00  0.10566000000E+00 0. -1.
     999900   -1    0    0    0    0 -0.00000000000E+00 -0.00000000000E+00 -0.74505805969E-08  0.93827000000E+00  0.93827000000E+00 0. -1.
     999902    2    1    2    0    0  0.11407546782E-01  0.65032037469E-03 -0.20592922233E-01  0.10203795544E+01  0.10201077451E+01 0.  0.
     999903    2    3    3    0    0  0.10264677697E+00 -0.59561532593E-01 -0.56294800831E-01  0.13289733574E+00  0.20215347132E-01 0.  0.
         14    1    1    2    0    0 -0.11407546782E-01 -0.65032037469E-03  0.20592922233E-01  0.23550445564E-01  0.00000000000E+00 0. -1.
     999901    1    3    3    0    0 -0.91239230187E-01  0.60211852968E-01  0.35701878597E-01  0.88748221869E+00  0.88000000000E+00 0. -1.
        -11    1    4    4    0    0  0.38102127702E-01 -0.13536971597E-01 -0.25751677718E-01  0.47941962430E-01  0.51100000000E-03 0. -1.
         11    1    4    4    0    0  0.64544649267E-01 -0.46024560996E-01 -0.30543123113E-01  0.84955373311E-01  0.51100000000E-03 0.  1.
</event>
<event>
 8    1  0.1150307E+005  0.1043930E+01  0.7957747E-01            NaN
         13   -1    0    0    0    0  0.00000000000E+00  0.00000000000E+00  0.74505805969E-08  0.10566000000E+00  0.10566000000E+00 0.  1.
     999900   -1    0    0    0    0 -0.00000000000E+00 -0.00000000000E+00 -0.74505805969E-08  0.93827000000E+00  0.93827000000E+00 0.  1.
     999902    2    1    2    0    0 -0.10670927832E-01 -0.39649654078E-02 -0.21018860703E-01  0.10200263987E+01  0.10197462782E+01 0.  0.
     999903    2    3    3    0    0  0.12622869708E+00 -0.15482838591E-01 -0.11459288808E-01  0.12931569697E+00  0.20440937463E-01 0.  0.
         14    1    1    2    0    0  0.10670927832E-01  0.39649654078E-02  0.21018860703E-01  0.23903601334E-01  0.00000000000E+00 0. -1.
     999901    1    3    3    0    0 -0.13689962491E+00  0.11517873183E-01 -0.95595718953E-02  0.89071070170E+00  0.88000000000E+00 0.  1.
        -11    1    4    4    0    0  0.96115106215E-01 -0.13791746414E-01 -0.15285807331E-03  0.97101031913E-01  0.51100000000E-03 0.  1.
         11    1    4    4    0    0  0.30113590867E-01 -0.16910921767E-02 -0.11306430735E-01  0.32214665055E-01  0.51100000000E-03 0. -1.
</event>
<event>
 8    1  0.1150307E+005  0.1043930E+01  0.7957747E-01            NaN
         13   -1    0    0    0    0  0.00000000000E+00  0.00000000000E+00  0.74505805969E-08  0.10566000000E+00  0.10566000000E+00 0. -1.
     999900   -1    0    0    0    0 -0.00000000000E+00 -0.00000000000E+00 -0.74505805969E-08  0.93827000000E+00  0.93827000000E+00 0. -1.
     999902    2    1    2    0    0  0.81228253638E-02 -0.13592233761E-01  0.16254877565E-01  0.10212374868E+01  0.10209853350E+01 0.  0.
     999903    2    3    3    0    0  0.74449142703E-01 -0.72473458209E-01 -0.78303234173E-01  0.13173908014E+00  0.20705355826E-01 0.  0.
         14    1    1    2    0    0 -0.81228253638E-02  0.13592233761E-01 -0.16254877565E-01  0.22692513196E-01  0.00000000000E+00 0.  1.
     999901    1    3    3    0    0 -0.66326317339E-01  0.58881224449E-01  0.94558111738E-01  0.88949840667E+00  0.88000000000E+00 0.  1.
        -11    1    4    4    0    0  0.24097806264E-01 -0.36563220314E-01 -0.37397633110E-01  0.57588344564E-01  0.51100000000E-03 0. -1.
         11    1    4    4    0    0  0.50351336439E-01 -0.35910237896E-01 -0.40905601063E-01  0.74150735575E-01  0.51100000000E-03 0.  1.
</event>
<event>
 8    1  0.1150307E+005  0.1043930E+01  0.7957747E-01            NaN
         13   -1    0    0    0    0  0.00000000000E+00  0.00000000000E+00  0.74505805969E-08  0.10566000000E+00  0.10566000000E+00 0.  1.
     999900   -1    0    0    0    0 -0.00000000000E+00 -0.00000000000E+00 -0.74505805969E-08  0.93827000000E+00  0.93827000000E+00 0.  1.
     999902    2    1    2    0    0  0.14590746154E-01 -0.47669128690E-02  0.17840683626E-01  0.10203948492E+01  0.10201233969E+01 0.  0.
     999903    2    3    3    0    0 -0.62603338448E-01  0.27593999355E-01 -0.10596345627E+00  0.12779548755E+00  0.20562728114E-01 0.  0.
         14    1    1    2    0    0 -0.14590746154E-01  0.47669128690E-02 -0.17840683626E-01  0.23535150815E-01  0.00000000000E+00 0.  1.
     999901    1    3    3    0    0  0.77194084602E-01 -0.32360912224E-01  0.12380413990E+00  0.89259936164E+00  0.88000000000E+00 0.  1.
        -11    1    4    4    0    0 -0.30991082407E-01  0.18774952752E-01 -0.71756447515E-01  0.80387778428E-01  0.51100000000E-03 0.  1.
         11    1    4    4    0    0 -0.31612256041E-01  0.88190466026E-02 -0.34207008757E-01  0.47407709121E-01  0.51100000000E-03 0. -1.
</event>
<event>
 8    1  0.1150307E+005  0.1043930E+01  0.7957747E-01            NaN
         13   -1    0    0    0    0  0.00000000000E+00  0.00000000000E+00  0.74505805969E-08  0.10566000000E+00  0.10566000000E+00 0. -1.
     999900   -1    0    0    0    0 -0.00000000000E+00 -0.00000000000E+00 -0.74505805969E-08  0.93827000000E+00  0.93827000000E+00 0. -1.
     999902    2    1    2    0    0  0.22928352357E-01  0.46816576967E-03  0.84196273372E-03  0.10209814179E+01  0.10207234778E+01 0.  0.
     999903    2    3    3    0    0 -0.70677057913E-01 -0.37970357347E-01 -0.99810359942E-01  0.12948246500E+00  0.19146964207E-01 0.  0.
         14    1    1    2    0    0 -0.22928352357E-01 -0.46816576967E-03 -0.84196273372E-03  0.22948582140E-01  0.00000000000E+00 0. -1.
     999901    1    3    3    0    0  0.93605410270E-01  0.38438523117E-01  0.10065232268E+00  0.89149895286E+00  0.88000000000E+00 0.  1.
        -11    1    4    4    0    0 -0.14962495529E-01 -0.14695715216E-01 -0.17037498760E-01  0.27025502829E-01  0.51100000000E-03 0.  1.
         11    1    4    4    0    0 -0.55714562384E-01 -0.23274642131E-01 -0.82772861182E-01  0.10245696217E+00  0.51100000000E-03 0. -1.
</event>
<event>
 8    1  0.1150307E+005  0.1043930E+01  0.7957747E-01            NaN
         13   -1    0    0    0    0  0.00000000000E+00  0.00000000000E+00  0.74505805969E-08  0.10566000000E+00  0.10566000000E+00 0. -1.
     999900   -1    0    0    0    0 -0.00000000000E+00 -0.00000000000E+00 -0.74505805969E-08  0.93827000000E+00  0.93827000000E+00 0.  1.
     999902    2    1    2    0    0  0.11905958008E-01 -0.17718364752E-01 -0.10112255229E-01  0.10203090349E+01  0.10200355762E+01 0.  0.
     999903    2    3    3    0    0  0.25923231091E-01  0.12490072564E+00  0.58811098615E-02  0.12857338092E+00  0.14977371344E-01 0.  0.
         14    1    1    2    0    0 -0.11905958008E-01  0.17718364752E-01  0.10112255229E-01  0.23620965081E-01  0.00000000000E+00 0. -1.
     999901    1    3    3    0    0 -0.14017273083E-01 -0.14261909039E+00 -0.15993365090E-01  0.89173565400E+00  0.88000000000E+00 0. -1.
        -11    1    4    4    0    0  0.24848085813E-01  0.11979903741E+00  0.86362786814E-02  0.12265432386E+00  0.51100000000E-03 0.  1.
         11    1    4    4    0    0  0.10751452783E-02  0.51016882311E-02 -0.27551688199E-02  0.59190570535E-02  0.51100000000E-03 0. -1.
</event>
<event>
 8    1  0.1150307E+005  0.1043930E+01  0.7957747E-01            NaN
         13   -1    0    0    0    0  0.00000000000E+00  0.00000000000E+00  0.74505805969E-08  0.10566000000E+00  0.10566000000E+00 0. -1.
     999900   -1    0    0    0    0 -0.00000000000E+00 -0.00000000000E+00 -0.74505805969E-08  0.93827000000E+00  0.93827000000E+00 0. -1.
     999902    2    1    2    0    0 -0.20492244495E-01 -0.10352385983E-01  0.64732619822E-02  0.10200761303E+01  0.10197971879E+01 0.  0.
     999903    2    3    3    0    0 -0.85888517759E-01 -0.30344084810E-01 -0.93152783167E-01  0.13181845964E+00  0.20026590424E-01 0.  0.
         14    1    1    2    0    0  0.20492244495E-01  0.10352385983E-01 -0.64732619822E-02  0.23853869721E-01  0.00000000000E+00 0. -1.
     999901    1    3    3    0    0  0.65396273264E-01  0.19991698827E-01  0.99626045150E-01  0.88825767064E+00  0.88000000000E+00 0.  1.
        -11    1    4    4    0    0 -0.36228180240E-01 -0.17625909131E-01 -0.53670221011E-01  0.67111157496E-01  0.51100000000E-03 0.  1.
         11    1    4    4    0    0 -0.49660337519E-01 -0.12718175679E-01 -0.39482562157E-01  0.64707302143E-01  0.51100000000E-03 0. -1.
</event>
<event>
 8    1  0.1150307E+005  0.1043930E+01  0.7957747E-01            NaN
         13   -1    0    0    0    0  0.00000000000E+00  0.00000000000E+00  0.74505805969E-08  0.10566000000E+00  0.10566000000E+00 0. -1.
     999900   -1    0    0    0    0 -0.00000000000E+00 -0.00000000000E+00 -0.74505805969E-08  0.93827000000E+00  0.93827000000E+00 0. -1.
     999902    2    1    2    0    0 -0.10516775303E-01  0.67502857174E-03  0.21140290960E-01  0.10203086087E+01  0.10200351400E+01 0.  0.
     999903    2    3    3    0    0 -0.42594618923E-01  0.49256098963E-01  0.11456067112E+00  0.13345096740E+00  0.21084318477E-01 0.  0.
         14    1    1    2    0    0  0.10516775303E-01 -0.67502857174E-03 -0.21140290960E-01  0.23621391327E-01  0.00000000000E+00 0.  1.
     999901    1    3    3    0    0  0.32077843620E-01 -0.48581070391E-01 -0.93420380165E-01  0.88685764127E+00  0.88000000000E+00 0. -1.
        -11    1    4    4    0    0 -0.36533893917E-01  0.28123817830E-01  0.71061222266E-01  0.84709107923E-01  0.51100000000E-03 0.  1.
         11    1    4    4    0    0 -0.60607250058E-02  0.21132281132E-01  0.43499448859E-01  0.48741859479E-01  0.51100000000E-03 0. -1.
</event>
<event>
 8    1  0.1150307E+005  0.1043930E+01  0.7957747E-01            NaN
         13   -1    0    0    0    0  0.00000000000E+00  0.00000000000E+00  0.74505805969E-08  0.10566000000E+00  0.10566000000E+00 0. -1.
     999900   -1    0    0    0    0 -0.00000000000E+00 -0.00000000000E+00 -0.74505805969E-08  0.93827000000E+00  0.93827000000E+00 0.  1.
     999902    2    1    2    0    0  0.35141932399E-02 -0.81016469128E-02  0.21571849237E-01  0.10206205402E+01  0.10203543287E+01 0.  0.
     999903    2    3    3    0    0  0.11712072378E+00 -0.64421060423E-02 -0.53015731480E-01  0.13018665435E+00  0.19471325560E-01 0.  0.
         14    1    1    2    0    0 -0.35141932399E-02  0.81016469128E-02 -0.21571849237E-01  0.23309459804E-01  0.00000000000E+00 0.  1.
     999901    1    3    3    0    0 -0.11360653054E+00 -0.16595408706E-02  0.74587580718E-01  0.89043388584E+00  0.88000000000E+00 0. -1.
        -11    1    4    4    0    0  0.10070746815E+00  0.86360462988E-03 -0.42094164966E-01  0.10915548452E+00  0.51100000000E-03 0. -1.
         11    1    4    4    0    0  0.16413255624E-01 -0.73057106721E-02 -0.10921566514E-01  0.21031169838E-01  0.51100000000E-03 0.  1.
</event>
<event>
 8    1  0.1150307E+005  0.1043930E+01  0.7957747E-01            NaN
         13   -1    0    0    0    0  0.00000000000E+00  0.00000000000E+00  0.74505805969E-08  0.10566000000E+00  0.10566000000E+00 0. -1.
     999900   -1    0    0    0    0 -0.00000000000E+00 -0.00000000000E+00 -0.74505805969E-08  0.93827000000E+00  0.93827000000E+00 0.  1.
     999902    2    1    2    0    0 -0.13629819857E-02 -0.15405695721E-01 -0.16465794654E-01  0.10213398346E+01  0.10210899775E+01 0.  0.
     999903    2    3    3    0    0  0.10604032034E-01  0.11235111750E+00  0.58822472771E-01  0.12885267166E+00  0.20191795151E-01 0.  0.
         14    1    1    2    0    0  0.13629819857E-02  0.15405695721E-01  0.16465794654E-01  0.22590165430E-01  0.00000000000E+00 0. -1.
     999901    1    3    3    0    0 -0.11967014020E-01 -0.12775681322E+00 -0.75288267424E-01  0.89248716291E+00  0.88000000000E+00 0. -1.
        -11    1    4    4    0    0 -0.57993480675E-02  0.41873366998E-01  0.22155473960E-01  0.47729838143E-01  0.51100000000E-03 0.  1.
         11    1    4    4    0    0  0.16403380102E-01  0.70477750504E-01  0.36666998810E-01  0.81122833516E-01  0.51100000000E-03 0. -1.
</event>
<event>
 8    1  0.1150307E+005  0.1043930E+01  0.7957747E-01            NaN
         13   -1    0    0    0    0  0.00000000000E+00  0.00000000000E+00  0.74505805969E-08  0.10566000000E+00  0.10566000000E+00 0.  1.
     999900   -1    0    0    0    0 -0.00000000000E+00 -0.00000000000E+00 -0.74505805969E-08  0.93827000000E+00  0.93827000000E+00 0.  1.
     999902    2    1    2    0    0 -0.42101411523E-02 -0.69718915864E-02  0.19615613368E-01  0.10226907710E+01  0.10224701992E+01 0.  0.
     999903    2    3    3    0    0  0.11266955938E+00 -0.57557320962E-01  0.36953808676E-01  0.13335373529E+00  0.20257342720E-01 0.  0.
         14    1    1    2    0    0  0.42101411523E-02  0.69718915864E-02 -0.19615613368E-01  0.21239229002E-01  0.00000000000E+00 0. -1.
     999901    1    3    3    0    0 -0.11687970053E+00  0.50585429376E-01 -0.17338195308E-01  0.88933703571E+00  0.88000000000E+00 0. -1.
        -11    1    4    4    0    0  0.57898631039E-01 -0.23767327804E-01  0.91788185116E-02  0.63258589752E-01  0.51100000000E-03 0.  1.
         11    1    4    4    0    0  0.54770928339E-01 -0.33789993158E-01  0.27774990164E-01  0.70095145540E-01  0.51100000000E-03 0. -1.
</event>
<event>
 8    1  0.1150307E+005  0.1043930E+01  0.7957747E-01            NaN
         13   -1    0    0    0    0  0.00000000000E+00  0.00000000000E+00  0.74505805969E-08  0.10566000000E+00  0.10566000000E+00 0. -1.
     999900   -1    0    0    0    0 -0.00000000000E+00 -0.00000000000E+00 -0.74505805969E-08  0.93827000000E+00  0.93827000000E+00 0. -1.
     999902    2    1    2    0    0 -0.10419525546E-01  0.48141009086E-02 -0.22679971704E-01  0.10185110465E+01  0.10181938070E+01 0.  0.
     999903    2    3    3    0    0 -0.40618076654E-01  0.70027582639E-01 -0.10225100891E+00  0.13200312175E+00  0.20392764622E-01 0.  0.
         14    1    1    2    0    0  0.10419525546E-01 -0.48141009086E-02  0.22679971704E-01  0.25418953492E-01  0.00000000000E+00 0. -1.
     999901    1    3    3    0    0  0.30198551108E-01 -0.65213481730E-01  0.79571037204E-01  0.88650792475E+00  0.88000000000E+00 0. -1.
        -11    1    4    4    0    0 -0.12838444678E-01  0.22844312592E-01 -0.49289178533E-01  0.55824479585E-01  0.51100000000E-03 0. -1.
         11    1    4    4    0    0 -0.27779631976E-01  0.47183270047E-01 -0.52961830375E-01  0.76178642169E-01  0.51100000000E-03 0.  1.
</event>
<event>
 8    1  0.1150307E+005  0.1043930E+01  0.7957747E-01            NaN
         13   -1    0    0    0    0  0.00000000000E+00  0.00000000000E+00  0.74505805969E-08  0.10566000000E+00  0.10566000000E+00 0.  1.
     999900   -1    0    0    0    0 -0.00000000000E+00 -0.00000000000E+00 -0.74505805969E-08  0.93827000000E+00  0.93827000000E+00 0. -1.
     999902    2    1    2    0    0  0.90835994700E-02 -0.18817564161E-01 -0.10682428872E-01  0.10204624312E+01  0.10201925537E+01 0.  0.
     999903    2    3    3    0    0  0.40493652896E-01 -0.11849439125E+00  0.40004287355E-01  0.13283007230E+00  0.19048055463E-01 0.  0.
         14    1    1    2    0    0 -0.90835994700E-02  0.18817564161E-01  0.10682428872E-01  0.23467568832E-01  0.00000000000E+00 0. -1.
     999901    1    3    3    0    0 -0.31410053426E-01  0.99676827089E-01 -0.50686716226E-01  0.88763235887E+00  0.88000000000E+00 0.  1.
        -11    1    4    4    0    0  0.30485917607E-01 -0.86770969512E-01  0.37963229302E-01  0.99499046340E-01  0.51100000000E-03 0.  1.
         11    1    4    4    0    0  0.10007735289E-01 -0.31723421737E-01  0.20410580529E-02  0.33331025957E-01  0.51100000000E-03 0. -1.
</event>
<event>
 8    1  0.1150307E+005  0.1043930E+01  0.7957747E-01            NaN
         13   -1    0    0    0    0  0.00000000000E+00  0.00000000000E+00  0.74505805969E-08  0.10566000000E+00  0.10566000000E+00 0. -1.
     999900   -1    0    0    0    0 -0.00000000000E+00 -0.00000000000E+00 -0.74505805969E-08  0.93827000000E+00  0.93827000000E+00 0. -1.
     999902    2    1    2    0    0  0.13901222952E-01 -0.17573276706E-01  0.50784306079E-02  0.10209549154E+01  0.10206963725E+01 0.  0.
     999903    2    3    3    0    0 -0.11232034588E+00  0.38028174051E-01 -0.46268266737E-01  0.12873303210E+00  0.19220794123E-01 0.  0.
         14    1    1    2    0    0 -0.13901222952E-01  0.17573276706E-01 -0.50784306079E-02  0.22975084574E-01  0.00000000000E+00 0.  1.
     999901    1    3    3    0    0  0.12622156883E+00 -0.55601450757E-01  0.51346697345E-01  0.89222188333E+00  0.88000000000E+00 0. -1.
        -11    1    4    4    0    0 -0.37987157498E-01  0.55287394964E-02 -0.88850713885E-02  0.39405541613E-01  0.51100000000E-03 0. -1.
         11    1    4    4    0    0 -0.74333188377E-01  0.32499434554E-01 -0.37383195348E-01  0.89327490483E-01  0.51100000000E-03 0.  1.
</event>
<event>
 8    1  0.1150307E+005  0.1043930E+01  0.7957747E-01            NaN
         13   -1    0    0    0    0  0.00000000000E+00  0.00000000000E+00  0.74505805969E-08  0.10566000000E+00  0.10566000000E+00 0.  1.
     999900   -1    0    0    0    0 -0.00000000000E+00 -0.00000000000E+00 -0.74505805969E-08  0.93827000000E+00  0.93827000000E+00 0.  1.
     999902    2    1    2    0    0  0.11780461000E-01  0.20123525317E-01 -0.24795871728E-02  0.10204803969E+01  0.10202109373E+01 0.  0.
     999903    2    3    3    0    0  0.80048123296E-01  0.71080258141E-02  0.10208323684E+00  0.13156911837E+00  0.20765827473E-01 0.  0.
         14    1    1    2    0    0 -0.11780461000E-01 -0.20123525317E-01  0.24795871728E-02  0.23449603090E-01  0.00000000000E+00 0.  1.
     999901    1    3    3    0    0 -0.68267662296E-01  0.13015499503E-01 -0.10456282402E+00  0.88891127854E+00  0.88000000000E+00 0.  1.
        -11    1    4    4    0    0  0.62792554758E-01 -0.25055010360E-02  0.82913250510E-01  0.10403869809E+00  0.51100000000E-03 0. -1.
         11    1    4    4    0    0  0.17255568538E-01  0.96135268501E-02  0.19169986334E-01  0.27530420286E-01  0.51100000000E-03 0.  1.
</event>
<event>
 8    1  0.1150307E+005  0.1043930E+01  0.7957747E-01            NaN
         13   -1    0    0    0    0  0.00000000000E+00  0.00000000000E+00  0.74505805969E-08  0.10566000000E+00  0.10566000000E+00 0. -1.
     999900   -1    0    0    0    0 -0.00000000000E+00 -0.00000000000E+00 -0.74505805969E-08  0.93827000000E+00  0.93827000000E+00 0. -1.
     999902    2    1    2    0    0 -0.12096302817E-01  0.16915080765E-01 -0.11281086159E-01  0.10202719484E+01  0.10199976203E+01 0.  0.
     999903    2    3    3    0    0 -0.47576098033E-01 -0.11506516565E+00 -0.29509673881E-01  0.12953636324E+00  0.20133829745E-01 0.  0.
         14    1    1    2    0    0  0.12096302817E-01 -0.16915080765E-01  0.11281086159E-01  0.23658051570E-01  0.00000000000E+00 0.  1.
     999901    1    3    3    0    0  0.35479795216E-01  0.13198024641E+00  0.18228587722E-01  0.89073558519E+00  0.88000000000E+00 0.  1.
        -11    1    4    4    0    0 -0.40619772591E-01 -0.73456786580E-01 -0.19558371987E-01  0.86189653995E-01  0.51100000000E-03 0. -1.
         11    1    4    4    0    0 -0.69563254418E-02 -0.41608379065E-01 -0.99513018942E-02  0.43346709246E-01  0.51100000000E-03 0.  1.
</event>
<event>
 8    1  0.1150307E+005  0.1043930E+01  0.7957747E-01            NaN
         13   -1    0    0    0    0  0.00000000000E+00  0.00000000000E+00  0.74505805969E-08  0.10566000000E+00  0.10566000000E+00 0. -1.
     999900   -1    0    0    0    0 -0.00000000000E+00 -0.00000000000E+00 -0.74505805969E-08  0.93827000000E+00  0.93827000000E+00 0. -1.
     999902    2    1    2    0    0 -0.78172703205E-02 -0.10020428372E-01 -0.18776034431E-01  0.10212571491E+01  0.10210054390E+01 0.  0.
     999903    2    3    3    0    0 -0.83983517283E-01  0.93840652670E-01 -0.33021967080E-01  0.13176776301E+00  0.20322248633E-01 0.  0.
         14    1    1    2    0    0  0.78172703205E-02  0.10020428372E-01  0.18776034431E-01  0.22672850923E-01  0.00000000000E+00 0. -1.
     999901    1    3    3    0    0  0.76166246963E-01 -0.10386108104E+00  0.14245932650E-01  0.88948938607E+00  0.88000000000E+00 0.  1.
        -11    1    4    4    0    0 -0.40732896306E-01  0.54549870586E-01 -0.93526002883E-02  0.68721099202E-01  0.51100000000E-03 0.  1.
         11    1    4    4    0    0 -0.43250620978E-01  0.39290782084E-01 -0.23669366792E-01  0.63046663806E-01  0.51100000000E-03 0. -1.
</event>
<event>
 8    1  0.1150307E+005  0.1043930E+01  0.7957747E-01            NaN
         13   -1    0    0    0    0  0.00000000000E+00  0.00000000000E+00  0.74505805969E-08  0.10566000000E+00  0.10566000000E+00 0. -1.
     999900   -1    0    0    0    0 -0.00000000000E+00 -0.00000000000E+00 -0.74505805969E-08  0.93827000000E+00  0.93827000000E+00 0. -1.
     999902    2    1    2    0    0 -0.24130598269E-02 -0.85451803465E-02  0.21417279405E-01  0.10207450303E+01  0.10204816872E+01 0.  0.
     999903    2    3    3    0    0 -0.32607741040E-01 -0.12610222667E+00 -0.39838725592E-02  0.13205127173E+00  0.21368920872E-01 0.  0.
         14    1    1    2    0    0  0.24130598269E-02  0.85451803465E-02 -0.21417279405E-01  0.23184969744E-01  0.00000000000E+00 0.  1.
     999901    1    3    3    0    0  0.30194681213E-01  0.11755704632E+00  0.25401151965E-01  0.88869375852E+00  0.88000000000E+00 0.  1.
        -11    1    4    4    0    0 -0.11221424436E-01 -0.33880047775E-01  0.81319722175E-02  0.36608306391E-01  0.51100000000E-03 0. -1.
         11    1    4    4    0    0 -0.21386316603E-01 -0.92222178895E-01 -0.12115844777E-01  0.95442965344E-01  0.51100000000E-03 0.  1.
</event>
<event>
 8    1  0.1150307E+005  0.1043930E+01  0.7957747E-01            NaN
         13   -1    0    0    0    0  0.00000000000E+00  0.00000000000E+00  0.74505805969E-08  0.10566000000E+00  0.10566000000E+00 0. -1.
     999900   -1    0    0    0    0 -0.00000000000E+00 -0.00000000000E+00 -0.74505805969E-08  0.93827000000E+00  0.93827000000E+00 0. -1.
     999902    2    1    2    0    0 -0.13340624859E-01 -0.15560641770E-01 -0.13208056326E-01  0.10195464277E+01  0.10192548061E+01 0.  0.
     999903    2    3    3    0    0 -0.29798619206E-01 -0.17424219046E-02 -0.12690604941E+00  0.13197161828E+00  0.20502900124E-01 0.  0.
         14    1    1    2    0    0  0.13340624859E-01  0.15560641770E-01  0.13208056326E-01  0.24383572253E-01  0.00000000000E+00 0.  1.
     999901    1    3    3    0    0  0.16457994347E-01 -0.13818219865E-01  0.11369799308E+00  0.88757480947E+00  0.88000000000E+00 0.  1.
        -11    1    4    4    0    0 -0.11914804557E-01  0.93197625487E-02 -0.56280328030E-01  0.58279987867E-01  0.51100000000E-03 0.  1.
         11    1    4    4    0    0 -0.17883814649E-01 -0.11062184453E-01 -0.70625721377E-01  0.73691630408E-01  0.51100000000E-03 0. -1.
</event>
<event>
 8    1  0.1150307E+005  0.1043930E+01  0.7957747E-01            NaN
         13   -1    0    0    0    0  0.00000000000E+00  0.00000000000E+00  0.74505805969E-08  0.10566000000E+00  0.10566000000E+00 0.  1.
     999900   -1    0    0    0    0 -0.00000000000E+00 -0.00000000000E+00 -0.74505805969E-08  0.93827000000E+00  0.93827000000E+00 0. -1.
     999902    2    1    2    0    0  0.15870684657E-01  0.15789804279E-01 -0.60693202979E-02  0.10207344573E+01  0.10204708713E+01 0.  0.
     999903    2    3    3    0    0 -0.35914721809E-01  0.10016097648E+00 -0.76443991264E-01  0.13239172092E+00  0.19020923148E-01 0.  0.
         14    1    1    2    0    0 -0.15870684657E-01 -0.15789804279E-01  0.60693202979E-02  0.23195542665E-01  0.00000000000E+00 0.  1.
     999901    1    3    3    0    0  0.51785406467E-01 -0.84371172197E-01  0.70374670966E-01  0.88834273641E+00  0.88000000000E+00 0.  1.
        -11    1    4    4    0    0 -0.23255401868E-01  0.50747303335E-01 -0.49954012985E-01  0.74911728362E-01  0.51100000000E-03 0.  1.
         11    1    4    4    0    0 -0.12659319941E-01  0.49413673141E-01 -0.26489978278E-01  0.57479992562E-01  0.51100000000E-03 0. -1.
</event>
<event>
 8    1  0.1150307E+005  0.1043930E+01  0.7957747E-01            NaN
         13   -1    0    0    0    0  0.00000000000E+00  0.00000000000E+00  0.74505805969E-08  0.10566000000E+00  0.10566000000E+00 0.  1.
     999900   -1    0    0    0    0 -0.00000000000E+00 -0.00000000000E+00 -0.74505805969E-08  0.93827000000E+00  0.93827000000E+00 0.  1.
     999902    2    1    2    0    0 -0.16715691205E-01  0.53822605343E-02  0.15960535021E-01  0.10201998138E+01  0.10199237904E+01 0.  0.
     999903    2    3    3    0    0 -0.52824791299E-01 -0.11652724056E+00  0.19935856158E-01  0.13105325849E+00  0.20210438657E-01 0.  0.
         14    1    1    2    0    0  0.16715691205E-01 -0.53822605343E-02 -0.15960535021E-01  0.23730186242E-01  0.00000000000E+00 0. -1.
     999901    1    3    3    0    0  0.36109100094E-01  0.12190950110E+00 -0.39753211378E-02  0.88914655527E+00  0.88000000000E+00 0.  1.
        -11    1    4    4    0    0 -0.36434102234E-01 -0.59299927744E-01  0.15853703533E-01  0.71382955058E-01  0.51100000000E-03 0. -1.
         11    1    4    4    0    0 -0.16390689065E-01 -0.57227312820E-01  0.40821526258E-02  0.59670303432E-01  0.51100000000E-03 0.  1.
</event>
<event>
 8    1  0.1150307E+005  0.1043930E+01  0.7957747E-01            NaN
         13   -1    0    0    0    0  0.00000000000E+00  0.00000000000E+00  0.74505805969E-08  0.10566000000E+00  0.10566000000E+00 0.  1.
     999900   -1    0    0    0    0 -0.00000000000E+00 -0.00000000000E+00 -0.74505805969E-08  0.93827000000E+00  0.93827000000E+00 0.  1.
     999902    2    1    2    0    0 -0.10320550796E-01 -0.59025868240E-02 -0.19847689479E-01  0.10207937713E+01  0.10205315470E+01 0.  0.
     999903    2    3    3    0    0  0.19459200297E-01 -0.12863332385E+00  0.20976510132E-02  0.13150682924E+00  0.19090665638E-01 0.  0.
         14    1    1    2    0    0  0.10320550796E-01  0.59025868240E-02  0.19847689479E-01  0.23136228682E-01  0.00000000000E+00 0.  1.
     999901    1    3    3    0    0 -0.29779751092E-01  0.12273073703E+00 -0.21945340492E-01  0.88928694208E+00  0.88000000000E+00 0.  1.
        -11    1    4    4    0    0  0.69058070296E-02 -0.81671491463E-01 -0.61657859593E-02  0.82196111380E-01  0.51100000000E-03 0. -1.
         11    1    4    4    0    0  0.12553393267E-01 -0.46961832390E-01  0.82634369725E-02  0.49310717857E-01  0.51100000000E-03 0.  1.
</event>
<event>
 8    1  0.1150307E+005  0.1043930E+01  0.7957747E-01            NaN
         13   -1    0    0    0    0  0.00000000000E+00  0.00000000000E+00  0.74505805969E-08  0.10566000000E+00  0.10566000000E+00 0. -1.
     999900   -1    0    0    0    0 -0.00000000000E+00 -0.00000000000E+00 -0.74505805969E-08  0.93827000000E+00  0.93827000000E+00 0. -1.
     999902    2    1    2    0    0 -0.19579861918E-02 -0.71427147761E-02  0.14238108649E-01  0.10278808311E+01  0.10277555289E+01 0.  0.
     999903    2    3    3    0    0  0.15541691069E-01  0.98950567127E-01  0.92687362547E-01  0.13787166901E+00  0.19618640238E-01 0.  0.
         14    1    1    2    0    0  0.19579861918E-02  0.71427147761E-02 -0.14238108649E-01  0.16049168894E-01  0.00000000000E+00 0.  1.
     999901    1    3    3    0    0 -0.17499677261E-01 -0.10609328190E+00 -0.78449253898E-01  0.89000916209E+00  0.88000000000E+00 0. -1.
        -11    1    4    4    0    0  0.17247671920E-01  0.89534260951E-01  0.89513998490E-01  0.12777669239E+00  0.51100000000E-03 0.  1.
         11    1    4    4    0    0 -0.17059808506E-02  0.94163061760E-02  0.31733640566E-02  0.10094976627E-01  0.51100000000E-03 0. -1.
</event>
<event>
 8    1  0.1150307E+005  0.1043930E+01  0.7957747E-01            NaN
         13   -1    0    0    0    0  0.00000000000E+00  0.00000000000E+00  0.74505805969E-08  0.10566000000E+00  0.10566000000E+00 0.  1.
     999900   -1    0    0    0    0 -0.00000000000E+00 -0.00000000000E+00 -0.74505805969E-08  0.93827000000E+00  0.93827000000E+00 0. -1.
     999902    2    1    2    0    0  0.21955501577E-01 -0.39276213640E-02 -0.95625122505E-02  0.10196624929E+01  0.10193736742E+01 0.  0.
     999903    2    3    3    0    0  0.11881350184E+00  0.32148543839E-01 -0.45640416884E-01  0.13287921776E+00  0.20583045678E-01 0.  0.
         14    1    1    2    0    0 -0.21955501577E-01  0.39276213640E-02  0.95625122505E-02  0.24267507075E-01  0.00000000000E+00 0.  1.
     999901    1    3    3    0    0 -0.96858000260E-01 -0.36076165203E-01  0.36077904634E-01  0.88678327517E+00  0.88000000000E+00 0.  1.
        -11    1    4    4    0    0  0.54655478482E-01  0.64469690425E-02 -0.26946240251E-01  0.61279243816E-01  0.51100000000E-03 0. -1.
         11    1    4    4    0    0  0.64158023355E-01  0.25701574797E-01 -0.18694176633E-01  0.71599973945E-01  0.51100000000E-03 0.  1.
</event>
<event>
 8    1  0.1150307E+005  0.1043930E+01  0.7957747E-01            NaN
         13   -1    0    0    0    0  0.00000000000E+00  0.00000000000E+00  0.74505805969E-08  0.10566000000E+00  0.10566000000E+00 0. -1.
     999900   -1    0    0    0    0 -0.00000000000E+00 -0.00000000000E+00 -0.74505805969E-08  0.93827000000E+00  0.93827000000E+00 0. -1.
     999902    2    1    2    0    0  0.12538507523E-01  0.21595059128E-02  0.20017948191E-01  0.10202108962E+01  0.10199351336E+01 0.  0.
     999903    2    3    3    0    0 -0.31073522429E-01  0.12232244984E+00  0.28812288991E-01  0.13093114116E+00  0.19607911588E-01 0.  0.
         14    1    1    2    0    0 -0.12538507523E-01 -0.21595059128E-02 -0.20017948191E-01  0.23719103830E-01  0.00000000000E+00 0.  1.
     999901    1    3    3    0    0  0.43612029952E-01 -0.12016294393E+00 -0.87943408000E-02  0.88927975501E+00  0.88000000000E+00 0. -1.
        -11    1    4    4    0    0 -0.76568996278E-02  0.52857913408E-01  0.40932734111E-02  0.53568676762E-01  0.51100000000E-03 0.  1.
         11    1    4    4    0    0 -0.23416622801E-01  0.69464536430E-01  0.24719015580E-01  0.77362464394E-01  0.51100000000E-03 0. -1.
</event>
<event>
 8    1  0.1150307E+005  0.1043930E+01  0.7957747E-01            NaN
         13   -1    0    0    0    0  0.00000000000E+00  0.00000000000E+00  0.74505805969E-08  0.10566000000E+00  0.10566000000E+00 0. -1.
     999900   -1    0    0    0    0 -0.00000000000E+00 -0.00000000000E+00 -0.74505805969E-08  0.93827000000E+00  0.93827000000E+00 0. -1.
     999902    2    1    2    0    0 -0.20421294461E-01  0.11701668146E-01 -0.73970458443E-02  0.10192586686E+01  0.10189600380E+01 0.  0.
     999903    2    3    3    0    0 -0.88134766993E-01  0.78571530328E-01 -0.57326052580E-01  0.13272068379E+00  0.19679458086E-01 0.  0.
         14    1    1    2    0    0  0.20421294461E-01 -0.11701668146E-01  0.73970458443E-02  0.24671331380E-01  0.00000000000E+00 0. -1.
     999901    1    3    3    0    0  0.67713472532E-01 -0.66869862182E-01  0.49929006735E-01  0.88653798483E+00  0.88000000000E+00 0. -1.
        -11    1    4    4    0    0 -0.63249961909E-01  0.67239479724E-01 -0.45635581187E-01  0.10297850604E+00  0.51100000000E-03 0.  1.
         11    1    4    4    0    0 -0.24884805084E-01  0.11332050604E-01 -0.11690471393E-01  0.29742177750E-01  0.51100000000E-03 0. -1.
</event>
<event>
 8    1  0.1150307E+005  0.1043930E+01  0.7957747E-01            NaN
         13   -1    0    0    0    0  0.00000000000E+00  0.00000000000E+00  0.74505805969E-08  0.10566000000E+00  0.10566000000E+00 0.  1.
     999900   -1    0    0    0    0 -0.00000000000E+00 -0.00000000000E+00 -0.74505805969E-08  0.93827000000E+00  0.93827000000E+00 0.  1.
     999902    2    1    2    0    0  0.14221062153E-01  0.12283294119E-02  0.21309561742E-01  0.10182815142E+01  0.10179584458E+01 0.  0.
     999903    2    3    3    0    0  0.31933228362E-01  0.61495815750E-01 -0.10469283541E+00  0.12708989910E+00  0.19743004819E-01 0.  0.
         14    1    1    2    0    0 -0.14221062153E-01 -0.12283294119E-02 -0.21309561742E-01  0.25648485795E-01  0.00000000000E+00 0. -1.
     999901    1    3    3    0    0 -0.17712166209E-01 -0.60267486339E-01  0.12600239715E+00  0.89119161510E+00  0.88000000000E+00 0. -1.
        -11    1    4    4    0    0  0.17688633573E-03  0.18624003863E-01 -0.29485237168E-01  0.34878720454E-01  0.51100000000E-03 0.  1.
         11    1    4    4    0    0  0.31756342027E-01  0.42871811888E-01 -0.75207598242E-01  0.92211178649E-01  0.51100000000E-03 0. -1.
</event>
<event>
 7    1  0.1150307E+005  0.1043930E+01  0.7957747E-01            NaN
         13   -1    0    0    0    0  0.00000000000E+00  0.00000000000E+00  0.74505805969E-08  0.10566000000E+00  0.10566000000E+00 0.  1.
     999900   -1    0    0    0    0 -0.00000000000E+00 -0.00000000000E+00 -0.74505805969E-08  0.93827000000E+00  0.93827000000E+00 0. -1.
     999903    2    1    2    0    0  0.21276947585E-01 -0.76635781637E-01 -0.82767174721E-01  0.11635824634E+00  0.19054782988E-01 0.  0.
         14    1    1    2    0    0 -0.85076194369E-02 -0.97684536821E-02  0.40187169585E-01  0.42223345143E-01  0.00000000000E+00 0.  1.
     999901    1    1    2    0    0 -0.12769328148E-01  0.86404235319E-01  0.42580005136E-01  0.88534840851E+00  0.88000000000E+00 0.  1.
        -11    1    3    3    0    0  0.10964384077E-01 -0.26019026085E-01 -0.41710661895E-01  0.50371101569E-01  0.51100000000E-03 0.  1.
         11    1    3    3    0    0  0.10312563509E-01 -0.50616755553E-01 -0.41056512826E-01  0.65987144772E-01  0.51100000000E-03 0. -1.
</event>
<event>
 8    1  0.1150307E+005  0.1043930E+01  0.7957747E-01            NaN
         13   -1    0    0    0    0  0.00000000000E+00  0.00000000000E+00  0.74505805969E-08  0.10566000000E+00  0.10566000000E+00 0.  1.
     999900   -1    0    0    0    0 -0.00000000000E+00 -0.00000000000E+00 -0.74505805969E-08  0.93827000000E+00  0.93827000000E+00 0. -1.
     999902    2    1    2    0    0 -0.15393682476E-01 -0.13461820349E-02 -0.21149041568E-01  0.10177372601E+01  0.10174001528E+01 0.  0.
     999903    2    3    3    0    0 -0.47443849215E-01  0.10913346610E+00  0.42630712258E-01  0.12796154515E+00  0.19893394885E-01 0.  0.
         14    1    1    2    0    0  0.15393682476E-01  0.13461820349E-02  0.21149041568E-01  0.26192739938E-01  0.00000000000E+00 0.  1.
     999901    1    3    3    0    0  0.32050166740E-01 -0.11047964813E+00 -0.63779753826E-01  0.88977571491E+00  0.88000000000E+00 0. -1.
        -11    1    4    4    0    0 -0.21494015767E-01  0.29816332296E-01  0.18107038533E-01  0.40977217460E-01  0.51100000000E-03 0.  1.
         11    1    4    4    0    0 -0.25949833448E-01  0.79317133802E-01  0.24523673725E-01  0.86984327695E-01  0.51100000000E-03 0. -1.
</event>
<event>
 8    1  0.1150307E+005  0.1043930E+01  0.7957747E-01            NaN
         13   -1    0    0    0    0  0.00000000000E+00  0.00000000000E+00  0.74505805969E-08  0.10566000000E+00  0.10566000000E+00 0. -1.
     999900   -1    0    0    0    0 -0.00000000000E+00 -0.00000000000E+00 -0.74505805969E-08  0.93827000000E+00  0.93827000000E+00 0.  1.
     999902    2    1    2    0    0 -0.23936718730E-01  0.18422575680E-02 -0.47851543232E-02  0.10194502509E+01  0.10191562961E+01 0.  0.
     999903    2    3    3    0    0 -0.28127199828E-01 -0.58423523090E-01 -0.11242006417E+00  0.13083627489E+00  0.16595559001E-01 0.  0.
         14    1    1    2    0    0  0.23936718730E-01 -0.18422575680E-02  0.47851543232E-02  0.24479749150E-01  0.00000000000E+00 0.  1.
     999901    1    3    3    0    0  0.41904810975E-02  0.60265780658E-01  0.10763490985E+00  0.88861397596E+00  0.88000000000E+00 0. -1.
        -11    1    4    4    0    0 -0.59007406629E-03 -0.14974373877E-01 -0.32480473695E-01  0.35774604860E-01  0.51100000000E-03 0.  1.
         11    1    4    4    0    0 -0.27537125762E-01 -0.43449149213E-01 -0.79939590478E-01  0.95061670032E-01  0.51100000000E-03 0. -1.
</event>
<event>
 8    1  0.1150307E+005  0.1043930E+01  0.7957747E-01            NaN
         13   -1    0    0    0    0  0.00000000000E+00  0.00000000000E+00  0.74505805969E-08  0.10566000000E+00  0.10566000000E+00 0. -1.
     999900   -1    0    0    0    0 -0.00000000000E+00 -0.00000000000E+00 -0.74505805969E-08  0.93827000000E+00  0.93827000000E+00 0.  1.
     999902    2    1    2    0    0  0.17898554997E-01  0.55432346390E-02  0.17728077237E-01  0.10181352245E+01  0.10178084127E+01 0.  0.
     999903    2    3    3    0    0  0.11341693061E+00  0.46088075708E-01  0.44445621189E-01  0.13163566365E+00  0.19105596790E-01 0.  0.
         14    1    1    2    0    0 -0.17898554997E-01 -0.55432346390E-02 -0.17728077237E-01  0.25794775513E-01  0.00000000000E+00 0.  1.
     999901    1    3    3    0    0 -0.95518375615E-01 -0.40544841069E-01 -0.26717543952E-01  0.88649956084E+00  0.88000000000E+00 0.  1.
        -11    1    4    4    0    0  0.41101236943E-01  0.23426515663E-01  0.98419071712E-02  0.48324295878E-01  0.51100000000E-03 0. -1.
         11    1    4    4    0    0  0.72315693669E-01  0.22661560045E-01  0.34603714018E-01  0.83311367768E-01  0.51100000000E-03 0.  1.
</event>
<event>
 8    1  0.1150307E+005  0.1043930E+01  0.7957747E-01            NaN
         13   -1    0    0    0    0  0.00000000000E+00  0.00000000000E+00  0.74505805969E-08  0.10566000000E+00  0.10566000000E+00 0.  1.
     999900   -1    0    0    0    0 -0.00000000000E+00 -0.00000000000E+00 -0.74505805969E-08  0.93827000000E+00  0.93827000000E+00 0.  1.
     999902    2    1    2    0    0  0.11142825818E-01 -0.12093767073E-01 -0.16358425897E-01  0.10207347447E+01  0.10204711653E+01 0.  0.
     999903    2    3    3    0    0 -0.35012953281E-01  0.81034733650E-01 -0.94750876148E-01  0.13115695170E+00  0.20781782740E-01 0.  0.
         14    1    1    2    0    0 -0.11142825818E-01  0.12093767073E-01  0.16358425897E-01  0.23195255270E-01  0.00000000000E+00 0.  1.
     999901    1    3    3    0    0  0.46155779099E-01 -0.93128500723E-01  0.78392450251E-01  0.88957779303E+00  0.88000000000E+00 0. -1.
        -11    1    4    4    0    0 -0.26418817986E-01  0.53143821299E-01 -0.76140800614E-01  0.96539641211E-01  0.51100000000E-03 0. -1.
         11    1    4    4    0    0 -0.85941352957E-02  0.27890912352E-01 -0.18610075533E-01  0.34617310491E-01  0.51100000000E-03 0.  1.
</event>
<event>
 8    1  0.1150307E+005  0.1043930E+01  0.7957747E-01            NaN
         13   -1    0    0    0    0  0.00000000000E+00  0.00000000000E+00  0.74505805969E-08  0.10566000000E+00  0.10566000000E+00 0. -1.
     999900   -1    0    0    0    0 -0.00000000000E+00 -0.00000000000E+00 -0.74505805969E-08  0.93827000000E+00  0.93827000000E+00 0.  1.
     999902    2    1    2    0    0 -0.12548076056E-01 -0.15705078116E-01  0.12611619789E-01  0.10201990783E+01  0.10199230376E+01 0.  0.
     999903    2    3    3    0    0 -0.55133718731E-01  0.61361285120E-01  0.10020897058E+00  0.13147749243E+00  0.20965661892E-01 0.  0.
         14    1    1    2    0    0  0.12548076056E-01  0.15705078116E-01 -0.12611619789E-01  0.23730921707E-01  0.00000000000E+00 0.  1.
     999901    1    3    3    0    0  0.42585642675E-01 -0.77066363236E-01 -0.87597350795E-01  0.88872158586E+00  0.88000000000E+00 0.  1.
        -11    1    4    4    0    0 -0.19435236966E-01  0.36498929044E-01  0.43764140818E-01  0.60211804488E-01  0.51100000000E-03 0. -1.
         11    1    4    4    0    0 -0.35698481765E-01  0.24862356076E-01  0.56444829767E-01  0.71265687946E-01  0.51100000000E-03 0.  1.
</event>
<event>
 8    1  0.1150307E+005  0.1043930E+01  0.7957747E-01            NaN
         13   -1    0    0    0    0  0.00000000000E+00  0.00000000000E+00  0.74505805969E-08  0.10566000000E+00  0.10566000000E+00 0. -1.
     999900   -1    0    0    0    0 -0.00000000000E+00 -0.00000000000E+00 -0.74505805969E-08  0.93827000000E+00  0.93827000000E+00 0. -1.
     999902    2    1    2    0    0 -0.56321887170E-02  0.22685638859E-01  0.97169535942E-03  0.10205354717E+01  0.10202672910E+01 0.  0.
     999903    2    3    3    0    0  0.10735573314E+00 -0.28122793933E-01  0.63870404799E-01  0.12963479548E+00  0.20238740415E-01 0.  0.
         14    1    1    2    0    0  0.56321887170E-02 -0.22685638859E-01 -0.97169535942E-03  0.23394528250E-01  0.00000000000E+00 0.  1.
     999901    1    3    3    0    0 -0.11298792186E+00  0.50808432791E-01 -0.62898709440E-01  0.89090067627E+00  0.88000000000E+00 0. -1.
        -11    1    4    4    0    0  0.96202488592E-01 -0.31157336244E-01  0.59040632384E-01  0.11709720666E+00  0.51100000000E-03 0. -1.
         11    1    4    4    0    0  0.11153244547E-01  0.30345423113E-02  0.48297724154E-02  0.12537588825E-01  0.51100000000E-03 0.  1.
</event>
<event>
 8    1  0.1150307E+005  0.1043930E+01  0.7957747E-01            NaN
         13   -1    0    0    0    0  0.00000000000E+00  0.00000000000E+00  0.74505805969E-08  0.10566000000E+00  0.10566000000E+00 0. -1.
     999900   -1    0    0    0    0 -0.00000000000E+00 -0.00000000000E+00 -0.74505805969E-08  0.93827000000E+00  0.93827000000E+00 0. -1.
     999902    2    1    2    0    0  0.54330046252E-02 -0.64459104580E-02  0.23232478379E-01  0.10192153211E+01  0.10189156272E+01 0.  0.
     999903    2    3    3    0    0  0.31409330157E-01  0.80361891460E-01 -0.91340972636E-01  0.12717415634E+00  0.19634488531E-01 0.  0.
         14    1    1    2    0    0 -0.54330046252E-02  0.64459104580E-02 -0.23232478379E-01  0.24714678888E-01  0.00000000000E+00 0.  1.
     999901    1    3    3    0    0 -0.25976325531E-01 -0.86807801918E-01  0.11457345102E+00  0.89204116477E+00  0.88000000000E+00 0.  1.
        -11    1    4    4    0    0  0.12060917161E-01  0.24422416331E-01 -0.42256987120E-01  0.50277571776E-01  0.51100000000E-03 0. -1.
         11    1    4    4    0    0  0.19348412995E-01  0.55939475129E-01 -0.49083985516E-01  0.76896584568E-01  0.51100000000E-03 0.  1.
</event>
<event>
 8    1  0.1150307E+005  0.1043930E+01  0.7957747E-01            NaN
         13   -1    0    0    0    0  0.00000000000E+00  0.00000000000E+00  0.74505805969E-08  0.10566000000E+00  0.10566000000E+00 0. -1.
     999900   -1    0    0    0    0 -0.00000000000E+00 -0.00000000000E+00 -0.74505805969E-08  0.93827000000E+00  0.93827000000E+00 0.  1.
     999902    2    1    2    0    0 -0.41903696405E-02  0.19860340329E-02 -0.22397956613E-01  0.10210570468E+01  0.10208008233E+01 0.  0.
     999903    2    3    3    0    0  0.12097595595E+00 -0.32951544202E-01 -0.33702582025E-01  0.13144194012E+00  0.20497155999E-01 0.  0.
         14    1    1    2    0    0  0.41903696405E-02 -0.19860340329E-02  0.22397956613E-01  0.22872953227E-01  0.00000000000E+00 0. -1.
     999901    1    3    3    0    0 -0.12516632559E+00  0.34937578235E-01  0.11304625412E-01  0.88961510666E+00  0.88000000000E+00 0.  1.
        -11    1    4    4    0    0  0.10495724489E+00 -0.30958190202E-01 -0.35844907019E-01  0.11515012494E+00  0.51100000000E-03 0. -1.
         11    1    4    4    0    0  0.16018711061E-01 -0.19933539997E-02  0.21423249942E-02  0.16291815172E-01  0.51100000000E-03 0.  1.
</event>
<event>
 8    1  0.1150307E+005  0.1043930E+01  0.7957747E-01            NaN
         13   -1    0    0    0    0  0.00000000000E+00  0.00000000000E+00  0.74505805969E-08  0.10566000000E+00  0.10566000000E+00 0. -1.
     999900   -1    0    0    0    0 -0.00000000000E+00 -0.00000000000E+00 -0.74505805969E-08  0.93827000000E+00  0.93827000000E+00 0.  1.
     999902    2    1    2    0    0  0.19867398509E-01 -0.11314430086E-01 -0.68861819719E-02  0.10200521996E+01  0.10197726906E+01 0.  0.
     999903    2    3    3    0    0  0.11053321081E+00 -0.26545578846E-02 -0.70903185547E-01  0.13303841181E+00  0.21149939176E-01 0.  0.
         14    1    1    2    0    0 -0.19867398509E-01  0.11314430086E-01  0.68861819719E-02  0.23877800439E-01  0.00000000000E+00 0. -1.
     999901    1    3    3    0    0 -0.90665812303E-01 -0.86598722011E-02  0.64017003575E-01  0.88701378775E+00  0.88000000000E+00 0. -1.
        -11    1    4    4    0    0  0.49269058174E-01  0.40275031345E-02 -0.42436818450E-01  0.65152172305E-01  0.51100000000E-03 0.  1.
         11    1    4    4    0    0  0.61264152638E-01 -0.66820610190E-02 -0.28466367097E-01  0.67886239509E-01  0.51100000000E-03 0. -1.
</event>
<event>
 8    1  0.1150307E+005  0.1043930E+01  0.7957747E-01            NaN
         13   -1    0    0    0    0  0.00000000000E+00  0.00000000000E+00  0.74505805969E-08  0.10566000000E+00  0.10566000000E+00 0.  1.
     999900   -1    0    0    0    0 -0.00000000000E+00 -0.00000000000E+00 -0.74505805969E-08  0.93827000000E+00  0.93827000000E+00 0. -1.
     999902    2    1    2    0    0 -0.38932821212E-02  0.91439626957E-02 -0.21701164405E-01  0.10200613964E+01  0.10197821053E+01 0.  0.
     999903    2    3    3    0    0  0.10485441964E+00 -0.41098795124E-01  0.58202564814E-01  0.12835796856E+00  0.20116392910E-01 0.  0.
         14    1    1    2    0    0  0.38932821212E-02 -0.91439626957E-02  0.21701164405E-01  0.23868603562E-01  0.00000000000E+00 0.  1.
     999901    1    3    3    0    0 -0.10874770176E+00  0.50242757819E-01 -0.79903729219E-01  0.89170342788E+00  0.88000000000E+00 0. -1.
        -11    1    4    4    0    0  0.78043829924E-01 -0.22023664700E-01  0.46193673355E-01  0.93327368842E-01  0.51100000000E-03 0.  1.
         11    1    4    4    0    0  0.26810589711E-01 -0.19075130424E-01  0.12008891459E-01  0.35030599715E-01  0.51100000000E-03 0. -1.
</event>
<event>
 8    1  0.1150307E+005  0.1043930E+01  0.7957747E-01            NaN
         13   -1    0    0    0    0  0.00000000000E+00  0.00000000000E+00  0.74505805969E-08  0.10566000000E+00  0.10566000000E+00 0. -1.
     999900   -1    0    0    0    0 -0.00000000000E+00 -0.00000000000E+00 -0.74505805969E-08  0.93827000000E+00  0.93827000000E+00 0.  1.
     999902    2    1    2    0    0 -0.10514911744E-01 -0.19076364733E-01 -0.11927818516E-01  0.10190956706E+01  0.10187930320E+01 0.  0.
     999903    2    3    3    0    0 -0.51037797486E-01 -0.10415777097E+00 -0.61737489646E-01  0.13266352248E+00  0.18286457913E-01 0.  0.
         14    1    1    2    0    0  0.10514911744E-01  0.19076364733E-01  0.11927818516E-01  0.24834329364E-01  0.00000000000E+00 0. -1.
     999901    1    3    3    0    0  0.40522885742E-01  0.85081406233E-01  0.49809671130E-01  0.88643214816E+00  0.88000000000E+00 0. -1.
        -11    1    4    4    0    0 -0.17004946557E-01 -0.51601724250E-01 -0.34639069825E-01  0.64436266437E-01  0.51100000000E-03 0. -1.
         11    1    4    4    0    0 -0.34032850929E-01 -0.52556046715E-01 -0.27098419821E-01  0.68227256038E-01  0.51100000000E-03 0.  1.
</event>
<event>
 8    1  0.1150307E+005  0.1043930E+01  0.7957747E-01            NaN
         13   -1    0    0    0    0  0.00000000000E+00  0.00000000000E+00  0.74505805969E-08  0.10566000000E+00  0.10566000000E+00 0. -1.
     999900   -1    0    0    0    0 -0.00000000000E+00 -0.00000000000E+00 -0.74505805969E-08  0.93827000000E+00  0.93827000000E+00 0.  1.
     999902    2    1    2    0    0 -0.70814390243E-03 -0.25534487961E-01 -0.21802815653E-01  0.10103461599E+01  0.10097878434E+01 0.  0.
     999903    2    3    3    0    0  0.24546997014E-01 -0.11942437463E+00  0.10451563980E-01  0.12440401850E+00  0.22414020401E-01 0.  0.
         14    1    1    2    0    0  0.70814390243E-03  0.25534487961E-01  0.21802815653E-01  0.33583840067E-01  0.00000000000E+00 0. -1.
     999901    1    3    3    0    0 -0.25255140916E-01  0.93889886672E-01 -0.32254379634E-01  0.88594214143E+00  0.88000000000E+00 0.  1.
        -11    1    4    4    0    0  0.23429109998E-01 -0.66206519537E-01  0.11470563028E-01  0.71162218639E-01  0.51100000000E-03 0. -1.
         11    1    4    4    0    0  0.11178870163E-02 -0.53217855096E-01 -0.10189990477E-02  0.53241799861E-01  0.51100000000E-03 0.  1.
</event>
<event>
 8    1  0.1150307E+005  0.1043930E+01  0.7957747E-01            NaN
         13   -1    0    0    0    0  0.00000000000E+00  0.00000000000E+00  0.74505805969E-08  0.10566000000E+00  0.10566000000E+00 0.  1.
     999900   -1    0    0    0    0 -0.00000000000E+00 -0.00000000000E+00 -0.74505805969E-08  0.93827000000E+00  0.93827000000E+00 0.  1.
     999902    2    1    2    0    0 -0.32055988451E-02  0.13734852145E-01  0.26393936154E-01  0.10140040599E+01  0.10135623669E+01 0.  0.
     999903    2    3    3    0    0  0.10572355928E+00 -0.57555098602E-01  0.24708681184E-01  0.12442513776E+00  0.19520133667E-01 0.  0.
         14    1    1    2    0    0  0.32055988451E-02 -0.13734852145E-01 -0.26393936154E-01  0.29925940137E-01  0.00000000000E+00 0. -1.
     999901    1    3    3    0    0 -0.10892915813E+00  0.71289950747E-01  0.16852549706E-02  0.88957892210E+00  0.88000000000E+00 0. -1.
        -11    1    4    4    0    0  0.71130351303E-01 -0.46971882151E-01  0.22587267342E-01  0.88183503879E-01  0.51100000000E-03 0. -1.
         11    1    4    4    0    0  0.34593207977E-01 -0.10583216451E-01  0.21214138420E-02  0.36241633880E-01  0.51100000000E-03 0.  1.
</event>
<event>
 8    1  0.1150307E+005  0.1043930E+01  0.7957747E-01            NaN
         13   -1    0    0    0    0  0.00000000000E+00  0.00000000000E+00  0.74505805969E-08  0.10566000000E+00  0.10566000000E+00 0.  1.
     999900   -1    0    0    0    0 -0.00000000000E+00 -0.00000000000E+00 -0.74505805969E-08  0.93827000000E+00  0.93827000000E+00 0. -1.
     999902    2    1    2    0    0  0.17403879449E-01  0.14545098230E-01 -0.76681938590E-02  0.10199872328E+01  0.10197061827E+01 0.  0.
     999903    2    3    3    0    0 -0.59506787021E-01 -0.31274627058E-01  0.10725736662E+00  0.12801044934E+00  0.19062330572E-01 0.  0.
         14    1    1    2    0    0 -0.17403879449E-01 -0.14545098230E-01  0.76681938590E-02  0.23942767163E-01  0.00000000000E+00 0.  1.
     999901    1    3    3    0    0  0.76910666470E-01  0.45819725288E-01 -0.11492556048E+00  0.89197678349E+00  0.88000000000E+00 0. -1.
        -11    1    4    4    0    0 -0.59284615906E-01 -0.27557075965E-01  0.96047539998E-01  0.11618713001E+00  0.51100000000E-03 0.  1.
         11    1    4    4    0    0 -0.22217111546E-03 -0.37175510931E-02  0.11209826624E-01  0.11823319334E-01  0.51100000000E-03 0. -1.
</event>
<event>
 7    1  0.1150307E+005  0.1043930E+01  0.7957747E-01            NaN
         13   -1    0    0    0    0  0.00000000000E+00  0.00000000000E+00  0.74505805969E-08  0.10566000000E+00  0.10566000000E+00 0. -1.
     999900   -1    0    0    0    0 -0.00000000000E+00 -0.00000000000E+00 -0.74505805969E-08  0.93827000000E+00  0.93827000000E+00 0.  1.
     999903    2    1    2    0    0 -0.29059916180E-01  0.83650849470E-01  0.19048683043E-01  0.92906736693E-01  0.20660736964E-01 0.  0.
         14    1    1    2    0    0  0.15185666600E-01  0.54502324163E-01 -0.20376479040E-01  0.60135752322E-01  0.00000000000E+00 0. -1.
     999901    1    1    2    0    0  0.13874249580E-01 -0.13815317363E+00  0.13277959969E-02  0.89088751098E+00  0.88000000000E+00 0. -1.
        -11    1    3    3    0    0 -0.17844982277E-01  0.41802228300E-01 -0.29710671586E-03  0.45455682556E-01  0.51100000000E-03 0. -1.
         11    1    3    3    0    0 -0.11214933903E-01  0.41848621170E-01  0.19345789759E-01  0.47451054137E-01  0.51100000000E-03 0.  1.
</event>
<event>
 8    1  0.1150307E+005  0.1043930E+01  0.7957747E-01            NaN
         13   -1    0    0    0    0  0.00000000000E+00  0.00000000000E+00  0.74505805969E-08  0.10566000000E+00  0.10566000000E+00 0.  1.
     999900   -1    0    0    0    0 -0.00000000000E+00 -0.00000000000E+00 -0.74505805969E-08  0.93827000000E+00  0.93827000000E+00 0. -1.
     999902    2    1    2    0    0 -0.12723751934E-01 -0.11288606430E-01 -0.16994496160E-01  0.10198854705E+01  0.10196019976E+01 0.  0.
     999903    2    3    3    0    0  0.89307025556E-01 -0.79544956275E-03 -0.93269800422E-01  0.13065079511E+00  0.19849358665E-01 0.  0.
         14    1    1    2    0    0  0.12723751934E-01  0.11288606430E-01  0.16994496160E-01  0.24044529484E-01  0.00000000000E+00 0.  1.
     999901    1    3    3    0    0 -0.10203077749E+00 -0.10493156867E-01  0.76275304263E-01  0.88923467540E+00  0.88000000000E+00 0.  1.
        -11    1    4    4    0    0  0.35196669968E-01  0.72505397653E-02 -0.45814232886E-01  0.58228695328E-01  0.51100000000E-03 0. -1.
         11    1    4    4    0    0  0.54110355589E-01 -0.80459893281E-02 -0.47455567536E-01  0.72422099786E-01  0.51100000000E-03 0.  1.
</event>
<event>
 8    1  0.1150307E+005  0.1043930E+01  0.7957747E-01            NaN
         13   -1    0    0    0    0  0.00000000000E+00  0.00000000000E+00  0.74505805969E-08  0.10566000000E+00  0.10566000000E+00 0. -1.
     999900   -1    0    0    0    0 -0.00000000000E+00 -0.00000000000E+00 -0.74505805969E-08  0.93827000000E+00  0.93827000000E+00 0. -1.
     999902    2    1    2    0    0 -0.18086041071E-01  0.13095616615E-01  0.60575091881E-02  0.10207935899E+01  0.10205313614E+01 0.  0.
     999903    2    3    3    0    0  0.23511401464E-01 -0.12027469219E+00  0.35763834767E-01  0.12927777269E+00  0.20369169247E-01 0.  0.
         14    1    1    2    0    0  0.18086041071E-01 -0.13095616615E-01 -0.60575091881E-02  0.23136410130E-01  0.00000000000E+00 0.  1.
     999901    1    3    3    0    0 -0.41597442535E-01  0.13337030880E+00 -0.29706325579E-01  0.89151581718E+00  0.88000000000E+00 0. -1.
        -11    1    4    4    0    0  0.41020275451E-02 -0.55233362233E-01  0.24106830263E-01  0.60406550306E-01  0.51100000000E-03 0. -1.
         11    1    4    4    0    0  0.19409373919E-01 -0.65041329954E-01  0.11657004504E-01  0.68871222388E-01  0.51100000000E-03 0.  1.
</event>
<event>
 8    1  0.1150307E+005  0.1043930E+01  0.7957747E-01            NaN
         13   -1    0    0    0    0  0.00000000000E+00  0.00000000000E+00  0.74505805969E-08  0.10566000000E+00  0.10566000000E+00 0. -1.
     999900   -1    0    0    0    0 -0.00000000000E+00 -0.00000000000E+00 -0.74505805969E-08  0.93827000000E+00  0.93827000000E+00 0.  1.
     999902    2    1    2    0    0  0.10462095707E-01 -0.21195316377E-01 -0.22853527756E-03  0.10202921255E+01  0.10200182705E+01 0.  0.
     999903    2    3    3    0    0  0.79829673142E-02 -0.35473715772E-01 -0.12537290383E+00  0.13132017332E+00  0.14300721293E-01 0.  0.
         14    1    1    2    0    0 -0.10462095707E-01  0.21195316377E-01  0.22853527756E-03  0.23637874508E-01  0.00000000000E+00 0. -1.
     999901    1    3    3    0    0  0.24791283930E-02  0.14278399395E-01  0.12514436855E+00  0.88897195217E+00  0.88000000000E+00 0. -1.
        -11    1    4    4    0    0  0.41231116988E-02 -0.18728511438E-01 -0.41724173175E-01  0.45923032771E-01  0.51100000000E-03 0. -1.
         11    1    4    4    0    0  0.38598556154E-02 -0.16745204333E-01 -0.83648730651E-01  0.85397140550E-01  0.51100000000E-03 0.  1.
</event>
<event>
 8    1  0.1150307E+005  0.1043930E+01  0.7957747E-01            NaN
         13   -1    0    0    0    0  0.00000000000E+00  0.00000000000E+00  0.74505805969E-08  0.10566000000E+00  0.10566000000E+00 0.  1.
     999900   -1    0    0    0    0 -0.00000000000E+00 -0.00000000000E+00 -0.74505805969E-08  0.93827000000E+00  0.93827000000E+00 0. -1.
     999902    2    1    2    0    0  0.96578792899E-02 -0.13671522880E-01 -0.17668745010E-01  0.10195913534E+01  0.10193008183E+01 0.  0.
     999903    2    3    3    0    0  0.87930802512E-01 -0.62757007747E-01 -0.74775006929E-01  0.13291375666E+00  0.20112110683E-01 0.  0.
         14    1    1    2    0    0 -0.96578792899E-02  0.13671522880E-01  0.17668745010E-01  0.24338646644E-01  0.00000000000E+00 0.  1.
     999901    1    3    3    0    0 -0.78272923222E-01  0.49085484866E-01  0.57106261919E-01  0.88667759670E+00  0.88000000000E+00 0. -1.
        -11    1    4    4    0    0  0.16237870397E-01 -0.19479679746E-01 -0.24344679436E-01  0.35157515496E-01  0.51100000000E-03 0.  1.
         11    1    4    4    0    0  0.71692932115E-01 -0.43277328001E-01 -0.50430327493E-01  0.97756241162E-01  0.51100000000E-03 0. -1.
</event>
<event>
 8    1  0.1150307E+005  0.1043930E+01  0.7957747E-01            NaN
         13   -1    0    0    0    0  0.00000000000E+00  0.00000000000E+00  0.74505805969E-08  0.10566000000E+00  0.10566000000E+00 0. -1.
     999900   -1    0    0    0    0 -0.00000000000E+00 -0.00000000000E+00 -0.74505805969E-08  0.93827000000E+00  0.93827000000E+00 0. -1.
     999902    2    1    2    0    0 -0.67621419540E-04  0.13587369897E-01  0.19400024440E-01  0.10202449384E+01  0.10199699762E+01 0.  0.
     999903    2    3    3    0    0  0.12588319355E+00  0.22379246253E-01  0.21557183342E-01  0.13123112627E+00  0.20235791745E-01 0.  0.
         14    1    1    2    0    0  0.67621419540E-04 -0.13587369897E-01 -0.19400024440E-01  0.23685061571E-01  0.00000000000E+00 0.  1.
     999901    1    3    3    0    0 -0.12595081497E+00 -0.87918763563E-02 -0.21571589018E-02  0.88901381216E+00  0.88000000000E+00 0.  1.
        -11    1    4    4    0    0  0.21359662182E-01  0.49605996450E-02  0.11561269810E-01  0.24794491283E-01  0.51100000000E-03 0.  1.
         11    1    4    4    0    0  0.10452353136E+00  0.17418646608E-01  0.99959135323E-02  0.10643663498E+00  0.51100000000E-03 0. -1.
</event>
<event>
 8    1  0.1150307E+005  0.1043930E+01  0.7957747E-01            NaN
         13   -1    0    0    0    0  0.00000000000E+00  0.00000000000E+00  0.74505805969E-08  0.10566000000E+00  0.10566000000E+00 0.  1.
     999900   -1    0    0    0    0 -0.00000000000E+00 -0.00000000000E+00 -0.74505805969E-08  0.93827000000E+00  0.93827000000E+00 0.  1.
     999902    2    1    2    0    0 -0.73964159464E-02  0.73596502151E-02 -0.21412497643E-01  0.10201105442E+01  0.10198324156E+01 0.  0.
     999903    2    3    3    0    0  0.37406298230E-01 -0.50483261328E-01 -0.11458351300E+00  0.13217252623E+00  0.19809200341E-01 0.  0.
         14    1    1    2    0    0  0.73964159464E-02 -0.73596502151E-02  0.21412497643E-01  0.23819455818E-01  0.00000000000E+00 0.  1.
     999901    1    3    3    0    0 -0.44802714176E-01  0.57842911543E-01  0.93171015358E-01  0.88793801795E+00  0.88000000000E+00 0. -1.
        -11    1    4    4    0    0  0.23808262270E-01 -0.15727578281E-01 -0.51139793556E-01  0.58563893969E-01  0.51100000000E-03 0.  1.
         11    1    4    4    0    0  0.13598035960E-01 -0.34755683047E-01 -0.63443719444E-01  0.73608632265E-01  0.51100000000E-03 0. -1.
</event>
<event>
 8    1  0.1150307E+005  0.1043930E+01  0.7957747E-01            NaN
         13   -1    0    0    0    0  0.00000000000E+00  0.00000000000E+00  0.74505805969E-08  0.10566000000E+00  0.10566000000E+00 0. -1.
     999900   -1    0    0    0    0 -0.00000000000E+00 -0.00000000000E+00 -0.74505805969E-08  0.93827000000E+00  0.93827000000E+00 0.  1.
     999902    2    1    2    0    0 -0.18392818855E-01  0.12353545632E-01 -0.72031256879E-02  0.10206321268E+01  0.10203661830E+01 0.  0.
     999903    2    3    3    0    0  0.13599170602E-01  0.54685945793E-01 -0.11756879137E+00  0.13215247052E+00  0.21595477584E-01 0.  0.
         14    1    1    2    0    0  0.18392818855E-01 -0.12353545632E-01  0.72031256879E-02  0.23297873181E-01  0.00000000000E+00 0.  1.
     999901    1    3    3    0    0 -0.31991989457E-01 -0.42332400161E-01  0.11036566568E+00  0.88847965630E+00  0.88000000000E+00 0. -1.
        -11    1    4    4    0    0  0.58030591304E-02  0.72859470838E-02 -0.38669450953E-01  0.39778739022E-01  0.51100000000E-03 0.  1.
         11    1    4    4    0    0  0.77961114715E-02  0.47399998709E-01 -0.78899340418E-01  0.92373731499E-01  0.51100000000E-03 0. -1.
</event>
<event>
 8    1  0.1150307E+005  0.1043930E+01  0.7957747E-01            NaN
         13   -1    0    0    0    0  0.00000000000E+00  0.00000000000E+00  0.74505805969E-08  0.10566000000E+00  0.10566000000E+00 0. -1.
     999900   -1    0    0    0    0 -0.00000000000E+00 -0.00000000000E+00 -0.74505805969E-08  0.93827000000E+00  0.93827000000E+00 0.  1.
     999902    2    1    2    0    0  0.47682567959E-02  0.21501205598E-01  0.94553923208E-02  0.10199624687E+01  0.10196808299E+01 0.  0.
     999903    2    3    3    0    0  0.90692559486E-01  0.35414069841E-01  0.88054980027E-01  0.13218183765E+00  0.15461630230E-01 0.  0.
         14    1    1    2    0    0 -0.47682567959E-02 -0.21501205598E-01 -0.94553923208E-02  0.23967531349E-01  0.00000000000E+00 0. -1.
     999901    1    3    3    0    0 -0.85924302690E-01 -0.13912864243E-01 -0.78599587707E-01  0.88778063100E+00  0.88000000000E+00 0.  1.
        -11    1    4    4    0    0  0.74562757436E-02  0.24211871894E-02  0.22609408176E-02  0.81750333181E-02  0.51100000000E-03 0.  1.
         11    1    4    4    0    0  0.83236283742E-01  0.32992882652E-01  0.85794039210E-01  0.12400680434E+00  0.51100000000E-03 0. -1.
</event>
<event>
 8    1  0.1150307E+005  0.1043930E+01  0.7957747E-01            NaN
         13   -1    0    0    0    0  0.00000000000E+00  0.00000000000E+00  0.74505805969E-08  0.10566000000E+00  0.10566000000E+00 0. -1.
     999900   -1    0    0    0    0 -0.00000000000E+00 -0.00000000000E+00 -0.74505805969E-08  0.93827000000E+00  0.93827000000E+00 0. -1.
     999902    2    1    2    0    0 -0.11821848204E-01 -0.18116788951E-01  0.90145663969E-02  0.10204942038E+01  0.10202250651E+01 0.  0.
     999903    2    3    3    0    0 -0.10385608544E-01 -0.86837737802E-02  0.12944444897E+00  0.13224063572E+00  0.23419043024E-01 0.  0.
         14    1    1    2    0    0  0.11821848204E-01  0.18116788951E-01 -0.90145663969E-02  0.23435796214E-01  0.00000000000E+00 0.  1.
     999901    1    3    3    0    0 -0.14362396601E-02 -0.94330151708E-02 -0.12042988257E+00  0.88825356806E+00  0.88000000000E+00 0. -1.
        -11    1    4    4    0    0 -0.16941311754E-01 -0.10663065332E-02  0.80071892223E-01  0.81853002992E-01  0.51100000000E-03 0. -1.
         11    1    4    4    0    0  0.65557032100E-02 -0.76174672469E-02  0.49372556745E-01  0.50387632732E-01  0.51100000000E-03 0.  1.
</event>
<event>
 8    1  0.1150307E+005  0.1043930E+01  0.7957747E-01            NaN
         13   -1    0    0    0    0  0.00000000000E+00  0.00000000000E+00  0.74505805969E-08  0.10566000000E+00  0.10566000000E+00 0.  1.
     999900   -1    0    0    0    0 -0.00000000000E+00 -0.00000000000E+00 -0.74505805969E-08  0.93827000000E+00  0.93827000000E+00 0.  1.
     999902    2    1    2    0    0  0.27363820681E-02 -0.15726033061E-01  0.15560156541E-01  0.10216384237E+01  0.10213951999E+01 0.  0.
     999903    2    3    3    0    0 -0.32006852110E-01 -0.10267242734E+00  0.78203006613E-01  0.13445699103E+00  0.19922506737E-01 0.  0.
         14    1    1    2    0    0 -0.27363820681E-02  0.15726033061E-01 -0.15560156541E-01  0.22291576307E-01  0.00000000000E+00 0. -1.
     999901    1    3    3    0    0  0.34743234179E-01  0.86946394282E-01 -0.62642850071E-01  0.88718143266E+00  0.88000000000E+00 0. -1.
        -11    1    4    4    0    0 -0.22628966761E-01 -0.73506232927E-01  0.44295106242E-01  0.88755585591E-01  0.51100000000E-03 0. -1.
         11    1    4    4    0    0 -0.93778853499E-02 -0.29166194416E-01  0.33907900371E-01  0.45701405437E-01  0.51100000000E-03 0.  1.
</event>
<event>
 8    1  0.1150307E+005  0.1043930E+01  0.7957747E-01            NaN
         13   -1    0    0    0    0  0.00000000000E+00  0.00000000000E+00  0.74505805969E-08  0.10566000000E+00  0.10566000000E+00 0.  1.
     999900   -1    0    0    0    0 -0.00000000000E+00 -0.00000000000E+00 -0.74505805969E-08  0.93827000000E+00  0.93827000000E+00 0. -1.
     999902    2    1    2    0    0  0.15568744124E-01  0.16625715231E-01 -0.79814457822E-02  0.10197948870E+01  0.10195092486E+01 0.  0.
     999903    2    3    3    0    0  0.33652559622E-01  0.14894974900E-01  0.12343122244E+00  0.12985145670E+00  0.16485723723E-01 0.  0.
         14    1    1    2    0    0 -0.15568744124E-01 -0.16625715231E-01  0.79814457822E-02  0.24135112954E-01  0.00000000000E+00 0. -1.
     999901    1    3    3    0    0 -0.18083815499E-01  0.17307403310E-02 -0.13141266823E+00  0.88994343035E+00  0.88000000000E+00 0. -1.
        -11    1    4    4    0    0  0.13685714876E-01  0.15046561512E-01  0.61220961428E-01  0.64513293547E-01  0.51100000000E-03 0.  1.
         11    1    4    4    0    0  0.19966844747E-01 -0.15158661208E-03  0.62210261016E-01  0.65338163154E-01  0.51100000000E-03 0. -1.
</event>
<event>
 8    1  0.1150307E+005  0.1043930E+01  0.7957747E-01            NaN
         13   -1    0    0    0    0  0.00000000000E+00  0.00000000000E+00  0.74505805969E-08  0.10566000000E+00  0.10566000000E+00 0.  1.
     999900   -1    0    0    0    0 -0.00000000000E+00 -0.00000000000E+00 -0.74505805969E-08  0.93827000000E+00  0.93827000000E+00 0.  1.
     999902    2    1    2    0    0 -0.14701433970E-01  0.16496818462E-01 -0.91910173157E-02  0.10199977628E+01  0.10197169627E+01 0.  0.
     999903    2    3    3    0    0  0.69595694661E-01 -0.52741870387E-01 -0.93525267292E-01  0.12926083883E+00  0.18333663722E-01 0.  0.
         14    1    1    2    0    0  0.14701433970E-01 -0.16496818462E-01  0.91910173157E-02  0.23932237243E-01  0.00000000000E+00 0. -1.
     999901    1    3    3    0    0 -0.84297128632E-01  0.69238688849E-01  0.84334249976E-01  0.89073692393E+00  0.88000000000E+00 0. -1.
        -11    1    4    4    0    0  0.36017975851E-01 -0.16163055368E-01 -0.44299757427E-01  0.59340277824E-01  0.51100000000E-03 0.  1.
         11    1    4    4    0    0  0.33577718810E-01 -0.36578815019E-01 -0.49225509865E-01  0.69920561005E-01  0.51100000000E-03 0. -1.
</event>
<event>
 8    1  0.1150307E+005  0.1043930E+01  0.7957747E-01            NaN
         13   -1    0    0    0    0  0.00000000000E+00  0.00000000000E+00  0.74505805969E-08  0.10566000000E+00  0.10566000000E+00 0. -1.
     999900   -1    0    0    0    0 -0.00000000000E+00 -0.00000000000E+00 -0.74505805969E-08  0.93827000000E+00  0.93827000000E+00 0. -1.
     999902    2    1    2    0    0 -0.19952913656E-02 -0.14670779425E-02 -0.23014038658E-01  0.10207830892E+01  0.10205206199E+01 0.  0.
     999903    2    3    3    0    0  0.37609176578E-01  0.29361220155E-01 -0.12329006285E+00  0.13366743783E+00  0.19748744921E-01 0.  0.
         14    1    1    2    0    0  0.19952913656E-02  0.14670779425E-02  0.23014038658E-01  0.23146910823E-01  0.00000000000E+00 0. -1.
     999901    1    3    3    0    0 -0.39604467943E-01 -0.30828298097E-01  0.10027602419E+00  0.88711565135E+00  0.88000000000E+00 0.  1.
        -11    1    4    4    0    0  0.33489517217E-01  0.15141694216E-01 -0.84692137550E-01  0.92324633500E-01  0.51100000000E-03 0. -1.
         11    1    4    4    0    0  0.41196593607E-02  0.14219525939E-01 -0.38597925298E-01  0.41342804326E-01  0.51100000000E-03 0.  1.
</event>
<event>
 8    1  0.1150307E+005  0.1043930E+01  0.7957747E-01            NaN
         13   -1    0    0    0    0  0.00000000000E+00  0.00000000000E+00  0.74505805969E-08  0.10566000000E+00  0.10566000000E+00 0. -1.
     999900   -1    0    0    0    0 -0.00000000000E+00 -0.00000000000E+00 -0.74505805969E-08  0.93827000000E+00  0.93827000000E+00 0. -1.
     999902    2    1    2    0    0  0.13208701138E-02  0.51096836511E-02 -0.22811760982E-01  0.10205156881E+01  0.10202470483E+01 0.  0.
     999903    2    3    3    0    0 -0.58887701905E-01  0.93264832094E-01 -0.70834627205E-01  0.13276425999E+00  0.21040769445E-01 0.  0.
         14    1    1    2    0    0 -0.13208701138E-02 -0.51096836511E-02  0.22811760982E-01  0.23414311948E-01  0.00000000000E+00 0. -1.
     999901    1    3    3    0    0  0.60208572019E-01 -0.88155148443E-01  0.48022866223E-01  0.88775142806E+00  0.88000000000E+00 0.  1.
        -11    1    4    4    0    0 -0.26341620879E-01  0.45777745809E-01 -0.21797617697E-01  0.57139130726E-01  0.51100000000E-03 0. -1.
         11    1    4    4    0    0 -0.32546081026E-01  0.47487086285E-01 -0.49037009509E-01  0.75625129266E-01  0.51100000000E-03 0.  1.
</event>
<event>
 8    1  0.1150307E+005  0.1043930E+01  0.7957747E-01            NaN
         13   -1    0    0    0    0  0.00000000000E+00  0.00000000000E+00  0.74505805969E-08  0.10566000000E+00  0.10566000000E+00 0.  1.
     999900   -1    0    0    0    0 -0.00000000000E+00 -0.00000000000E+00 -0.74505805969E-08  0.93827000000E+00  0.93827000000E+00 0. -1.
     999902    2    1    2    0    0  0.22370848490E-01  0.53474490169E-03  0.77352725214E-02  0.10202535295E+01  0.10199787690E+01 0.  0.
     999903    2    3    3    0    0 -0.14685186371E-01 -0.39313129765E-01 -0.12063731314E+00  0.12927624383E+00  0.19945150407E-01 0.  0.
         14    1    1    2    0    0 -0.22370848490E-01 -0.53474490169E-03 -0.77352725214E-02  0.23676470499E-01  0.00000000000E+00 0. -1.
     999901    1    3    3    0    0  0.37056034862E-01  0.39847874667E-01  0.12837258567E+00  0.89097728567E+00  0.88000000000E+00 0.  1.
        -11    1    4    4    0    0 -0.17075684157E-01 -0.18469603121E-01 -0.73236560199E-01  0.77437459280E-01  0.51100000000E-03 0. -1.
         11    1    4    4    0    0  0.23904977860E-02 -0.20843526644E-01 -0.47400752946E-01  0.51838784548E-01  0.51100000000E-03 0.  1.
</event>
<event>
 8    1  0.1150307E+005  0.1043930E+01  0.7957747E-01            NaN
         13   -1    0    0    0    0  0.00000000000E+00  0.00000000000E+00  0.74505805969E-08  0.10566000000E+00  0.10566000000E+00 0.  1.
     999900   -1    0    0    0    0 -0.00000000000E+00 -0.00000000000E+00 -0.74505805969E-08  0.93827000000E+00  0.93827000000E+00 0. -1.
     999902    2    1    2    0    0  0.10653005279E-01  0.13801955800E-01  0.22052063483E-01  0.10158181874E+01  0.10154291289E+01 0.  0.
     999903    2    3    3    0    0  0.11575385434E+00  0.22447441161E-01  0.48993820205E-01  0.12911260425E+00  0.19152747768E-01 0.  0.
         14    1    1    2    0    0 -0.10653005279E-01 -0.13801955800E-01 -0.22052063483E-01  0.28111812629E-01  0.00000000000E+00 0. -1.
     999901    1    3    3    0    0 -0.10510084906E+00 -0.86454853602E-02 -0.26941756722E-01  0.88670558313E+00  0.88000000000E+00 0. -1.
        -11    1    4    4    0    0  0.64322124270E-01  0.30496468310E-02  0.23947554047E-01  0.68705039715E-01  0.51100000000E-03 0. -1.
         11    1    4    4    0    0  0.51431730072E-01  0.19397794330E-01  0.25046266159E-01  0.60407564531E-01  0.51100000000E-03 0.  1.
</event>
<event>
 8    1  0.1150307E+005  0.1043930E+01  0.7957747E-01            NaN
         13   -1    0    0    0    0  0.00000000000E+00  0.00000000000E+00  0.74505805969E-08  0.10566000000E+00  0.10566000000E+00 0. -1.
     999900   -1    0    0    0    0 -0.00000000000E+00 -0.00000000000E+00 -0.74505805969E-08  0.93827000000E+00  0.93827000000E+00 0. -1.
     999902    2    1    2    0    0  0.31711139340E-02 -0.21092568045E-01  0.84021371481E-02  0.10210051598E+01  0.10207477592E+01 0.  0.
     999903    2    3    3    0    0 -0.67284913576E-02 -0.10379266044E+00 -0.79907029034E-01  0.13267199239E+00  0.19963349375E-01 0.  0.
         14    1    1    2    0    0 -0.31711139340E-02  0.21092568045E-01 -0.84021371481E-02  0.22924840217E-01  0.00000000000E+00 0. -1.
     999901    1    3    3    0    0  0.98996052916E-02  0.82700092391E-01  0.88309166182E-01  0.88833316740E+00  0.88000000000E+00 0.  1.
        -11    1    4    4    0    0 -0.31973938965E-02 -0.84795957818E-01 -0.54911327997E-01  0.10107468948E+00  0.51100000000E-03 0.  1.
         11    1    4    4    0    0 -0.35310974611E-02 -0.18996702619E-01 -0.24995701037E-01  0.31597302907E-01  0.51100000000E-03 0. -1.
</event>
<event>
 8    1  0.1150307E+005  0.1043930E+01  0.7957747E-01            NaN
         13   -1    0    0    0    0  0.00000000000E+00  0.00000000000E+00  0.74505805969E-08  0.10566000000E+00  0.10566000000E+00 0. -1.
     999900   -1    0    0    0    0 -0.00000000000E+00 -0.00000000000E+00 -0.74505805969E-08  0.93827000000E+00  0.93827000000E+00 0.  1.
     999902    2    1    2    0    0  0.12018884977E-02  0.22003818696E-01 -0.10751396170E-01  0.10194105161E+01  0.10191155946E+01 0.  0.
     999903    2    3    3    0    0  0.85823552831E-01  0.13470955250E-01 -0.97713829115E-01  0.13104341819E+00  0.87884125052E-02 0.  0.
         14    1    1    2    0    0 -0.12018884977E-02 -0.22003818696E-01  0.10751396170E-01  0.24519483942E-01  0.00000000000E+00 0. -1.
     999901    1    3    3    0    0 -0.84621664333E-01  0.85328634466E-02  0.86962432945E-01  0.88836709787E+00  0.88000000000E+00 0. -1.
        -11    1    4    4    0    0  0.71849524517E-01  0.95611709828E-02 -0.77026046294E-01  0.10576881909E+00  0.51100000000E-03 0.  1.
         11    1    4    4    0    0  0.13974028314E-01  0.39097842671E-02 -0.20687782821E-01  0.25274599094E-01  0.51100000000E-03 0. -1.
</event>
<event>
 8    1  0.1150307E+005  0.1043930E+01  0.7957747E-01            NaN
         13   -1    0    0    0    0  0.00000000000E+00  0.00000000000E+00  0.74505805969E-08  0.10566000000E+00  0.10566000000E+00 0. -1.
     999900   -1    0    0    0    0 -0.00000000000E+00 -0.00000000000E+00 -0.74505805969E-08  0.93827000000E+00  0.93827000000E+00 0. -1.
     999902    2    1    2    0    0  0.23945697043E-01 -0.11809174542E-02  0.29891454712E-02  0.10197695786E+01  0.10194833336E+01 0.  0.
     999903    2    3    3    0    0  0.12267553901E+00 -0.46973531927E-01  0.11382557500E-01  0.13302553737E+00  0.17619035313E-01 0.  0.
         14    1    1    2    0    0 -0.23945697043E-01  0.11809174542E-02 -0.29891454712E-02  0.24160421428E-01  0.00000000000E+00 0.  1.
     999901    1    3    3    0    0 -0.98729841967E-01  0.45792614473E-01 -0.83934120283E-02  0.88674404120E+00  0.88000000000E+00 0. -1.
        -11    1    4    4    0    0  0.55028313362E-01 -0.16911290936E-01 -0.28530239444E-02  0.57641199668E-01  0.51100000000E-03 0. -1.
         11    1    4    4    0    0  0.67647225648E-01 -0.30062240992E-01  0.14235581444E-01  0.75384337706E-01  0.51100000000E-03 0.  1.
</event>
<event>
 8    1  0.1150307E+005  0.1043930E+01  0.7957747E-01            NaN
         13   -1    0    0    0    0  0.00000000000E+00  0.00000000000E+00  0.74505805969E-08  0.10566000000E+00  0.10566000000E+00 0.  1.
     999900   -1    0    0    0    0 -0.00000000000E+00 -0.00000000000E+00 -0.74505805969E-08  0.93827000000E+00  0.93827000000E+00 0. -1.
     999902    2    1    2    0    0  0.18973634400E-01  0.11387175833E-02  0.11791689909E-01  0.10215617316E+01  0.10213168128E+01 0.  0.
     999903    2    3    3    0    0  0.45233382399E-01  0.44905103742E-01  0.11611065496E+00  0.13393144968E+00  0.19834863061E-01 0.  0.
         14    1    1    2    0    0 -0.18973634400E-01 -0.11387175833E-02 -0.11791689909E-01  0.22368268395E-01  0.00000000000E+00 0. -1.
     999901    1    3    3    0    0 -0.26259747999E-01 -0.43766386159E-01 -0.10431896505E+00  0.88763028193E+00  0.88000000000E+00 0. -1.
        -11    1    4    4    0    0  0.90313949225E-02  0.20956197111E-01  0.48213075899E-01  0.53343135456E-01  0.51100000000E-03 0.  1.
         11    1    4    4    0    0  0.36201987476E-01  0.23948906631E-01  0.67897579061E-01  0.80588314223E-01  0.51100000000E-03 0. -1.
</event>
<event>
 8    1  0.1150307E+005  0.1043930E+01  0.7957747E-01            NaN
         13   -1    0    0    0    0  0.00000000000E+00  0.00000000000E+00  0.74505805969E-08  0.10566000000E+00  0.10566000000E+00 0. -1.
     999900   -1    0    0    0    0 -0.00000000000E+00 -0.00000000000E+00 -0.74505805969E-08  0.93827000000E+00  0.93827000000E+00 0. -1.
     999902    2    1    2    0    0  0.24665985862E-01 -0.15322059173E-02 -0.60723444233E-02  0.10184813875E+01  0.10181633978E+01 0.  0.
     999903    2    3    3    0    0  0.12709928990E-01 -0.48760618174E-01  0.11662601685E+00  0.12863400837E+00  0.20147955786E-01 0.  0.
         14    1    1    2    0    0 -0.24665985862E-01  0.15322059173E-02  0.60723444233E-02  0.25448612542E-01  0.00000000000E+00 0.  1.
     999901    1    3    3    0    0  0.11956056872E-01  0.47228412256E-01 -0.12269836127E+00  0.88984737909E+00  0.88000000000E+00 0. -1.
        -11    1    4    4    0    0 -0.11318793717E-02 -0.63683091092E-02  0.35214938631E-01  0.35807674256E-01  0.51100000000E-03 0. -1.
         11    1    4    4    0    0  0.13841808362E-01 -0.42392309065E-01  0.81411078218E-01  0.92826334109E-01  0.51100000000E-03 0.  1.
</event>
<event>
 8    1  0.1150307E+005  0.1043930E+01  0.7957747E-01            NaN
         13   -1    0    0    0    0  0.00000000000E+00  0.00000000000E+00  0.74505805969E-08  0.10566000000E+00  0.10566000000E+00 0.  1.
     999900   -1    0    0    0    0 -0.00000000000E+00 -0.00000000000E+00 -0.74505805969E-08  0.93827000000E+00  0.93827000000E+00 0. -1.
     999902    2    1    2    0    0 -0.16318976337E-01 -0.77262700641E-02 -0.71828155204E-02  0.10244981427E+01  0.10243138422E+01 0.  0.
     999903    2    3    3    0    0 -0.12590404017E+00  0.19268105707E-01 -0.44882964887E-01  0.13648976226E+00  0.19796147020E-01 0.  0.
         14    1    1    2    0    0  0.16318976337E-01  0.77262700641E-02  0.71828155204E-02  0.19431857260E-01  0.00000000000E+00 0.  1.
     999901    1    3    3    0    0  0.10958506383E+00 -0.26994375772E-01  0.37700149366E-01  0.88800838048E+00  0.88000000000E+00 0. -1.
        -11    1    4    4    0    0 -0.98218810592E-01  0.86588704166E-02 -0.40147434850E-01  0.10646120625E+00  0.51100000000E-03 0.  1.
         11    1    4    4    0    0 -0.27685229577E-01  0.10609235291E-01 -0.47355300366E-02  0.30028556008E-01  0.51100000000E-03 0. -1.
</event>
<event>
 8    1  0.1150307E+005  0.1043930E+01  0.7957747E-01            NaN
         13   -1    0    0    0    0  0.00000000000E+00  0.00000000000E+00  0.74505805969E-08  0.10566000000E+00  0.10566000000E+00 0.  1.
     999900   -1    0    0    0    0 -0.00000000000E+00 -0.00000000000E+00 -0.74505805969E-08  0.93827000000E+00  0.93827000000E+00 0. -1.
     999902    2    1    2    0    0  0.70141802548E-02  0.12732575797E-01  0.19525858281E-01  0.10195871088E+01  0.10192964711E+01 0.  0.
     999903    2    3    3    0    0 -0.78642086306E-01 -0.43359864611E-01 -0.87550673262E-01  0.12720336763E+00  0.21234894631E-01 0.  0.
         14    1    1    2    0    0 -0.70141802548E-02 -0.12732575797E-01 -0.19525858281E-01  0.24342891215E-01  0.00000000000E+00 0. -1.
     999901    1    3    3    0    0  0.85656266561E-01  0.56092440408E-01  0.10707653154E+00  0.89238374116E+00  0.88000000000E+00 0.  1.
        -11    1    4    4    0    0 -0.39580606157E-01 -0.31406934718E-01 -0.39522294260E-01  0.64150547907E-01  0.51100000000E-03 0. -1.
         11    1    4    4    0    0 -0.39061480149E-01 -0.11952929893E-01 -0.48028379001E-01  0.63052819723E-01  0.51100000000E-03 0.  1.
</event>
<event>
 8    1  0.1150307E+005  0.1043930E+01  0.7957747E-01            NaN
         13   -1    0    0    0    0  0.00000000000E+00  0.00000000000E+00  0.74505805969E-08  0.10566000000E+00  0.10566000000E+00 0.  1.
     999900   -1    0    0    0    0 -0.00000000000E+00 -0.00000000000E+00 -0.74505805969E-08  0.93827000000E+00  0.93827000000E+00 0.  1.
     999902    2    1    2    0    0 -0.17118146105E-01 -0.15518829796E-01  0.48652144223E-02  0.10203178143E+01  0.10200445612E+01 0.  0.
     999903    2    3    3    0    0  0.52287978163E-01  0.10277422735E+00 -0.51249724802E-01  0.12792813264E+00  0.21035645008E-01 0.  0.
         14    1    1    2    0    0  0.17118146105E-01  0.15518829796E-01 -0.48652144223E-02  0.23612185745E-01  0.00000000000E+00 0. -1.
     999901    1    3    3    0    0 -0.69406124268E-01 -0.11829305714E+00  0.56114939224E-01  0.89238968162E+00  0.88000000000E+00 0. -1.
        -11    1    4    4    0    0  0.38873138618E-01  0.53798152511E-01 -0.30996562060E-01  0.73255785438E-01  0.51100000000E-03 0.  1.
         11    1    4    4    0    0  0.13414839545E-01  0.48976074834E-01 -0.20253162742E-01  0.54672347199E-01  0.51100000000E-03 0. -1.
</event>
<event>
 8    1  0.1150307E+005  0.1043930E+01  0.7957747E-01            NaN
         13   -1    0    0    0    0  0.00000000000E+00  0.00000000000E+00  0.74505805969E-08  0.10566000000E+00  0.10566000000E+00 0.  1.
     999900   -1    0    0    0    0 -0.00000000000E+00 -0.00000000000E+00 -0.74505805969E-08  0.93827000000E+00  0.93827000000E+00 0.  1.
     999902    2    1    2    0    0  0.19965194593E-01 -0.38337512740E-03  0.13480388456E-01  0.10198369129E+01  0.10195522802E+01 0.  0.
     999903    2    3    3    0    0 -0.90887395801E-01 -0.79364254723E-01  0.37699950959E-01  0.12904352311E+00  0.25917965030E-01 0.  0.
         14    1    1    2    0    0 -0.19965194593E-01  0.38337512740E-03 -0.13480388456E-01  0.24093087069E-01  0.00000000000E+00 0.  1.
     999901    1    3    3    0    0  0.11085259039E+00  0.78980879596E-01 -0.24219562503E-01  0.89079338982E+00  0.88000000000E+00 0.  1.
        -11    1    4    4    0    0 -0.18154741796E-01 -0.13905030819E-01 -0.29887964766E-02  0.23068128601E-01  0.51100000000E-03 0.  1.
         11    1    4    4    0    0 -0.72732654006E-01 -0.65459223904E-01  0.40688747435E-01  0.10597539451E+00  0.51100000000E-03 0. -1.
</event>
<event>
 8    1  0.1150307E+005  0.1043930E+01  0.7957747E-01            NaN
         13   -1    0    0    0    0  0.00000000000E+00  0.00000000000E+00  0.74505805969E-08  0.10566000000E+00  0.10566000000E+00 0.  1.
     999900   -1    0    0    0    0 -0.00000000000E+00 -0.00000000000E+00 -0.74505805969E-08  0.93827000000E+00  0.93827000000E+00 0.  1.
     999902    2    1    2    0    0  0.18602225508E-01  0.65347527261E-02  0.11845152846E-01  0.10209288384E+01  0.10206697016E+01 0.  0.
     999903    2    3    3    0    0  0.97530039653E-01  0.86718529382E-01 -0.18305697694E-01  0.13325315911E+00  0.19725462548E-01 0.  0.
         14    1    1    2    0    0 -0.18602225508E-01 -0.65347527261E-02 -0.11845152846E-01  0.23001161557E-01  0.00000000000E+00 0. -1.
     999901    1    3    3    0    0 -0.78927814145E-01 -0.80183776656E-01  0.30150850540E-01  0.88767567933E+00  0.88000000000E+00 0. -1.
        -11    1    4    4    0    0  0.76879686984E-01  0.61347569694E-01 -0.20468330253E-01  0.10046503990E+00  0.51100000000E-03 0.  1.
         11    1    4    4    0    0  0.20650352669E-01  0.25370959688E-01  0.21626325592E-02  0.32788119212E-01  0.51100000000E-03 0. -1.
</event>
<event>
 8    1  0.1150307E+005  0.1043930E+01  0.7957747E-01            NaN
         13   -1    0    0    0    0  0.00000000000E+00  0.00000000000E+00  0.74505805969E-08  0.10566000000E+00  0.10566000000E+00 0. -1.
     999900   -1    0    0    0    0 -0.00000000000E+00 -0.00000000000E+00 -0.74505805969E-08  0.93827000000E+00  0.93827000000E+00 0.  1.
     999902    2    1    2    0    0 -0.22713158571E-01  0.37751398969E-02  0.72651702050E-02  0.10197862233E+01  0.10195003773E+01 0.  0.
     999903    2    3    3    0    0 -0.12701649941E+00 -0.13377853711E-01  0.31727697337E-01  0.13312291219E+00  0.20072490578E-01 0.  0.
         14    1    1    2    0    0  0.22713158571E-01 -0.37751398969E-02 -0.72651702050E-02  0.24143776664E-01  0.00000000000E+00 0.  1.
     999901    1    3    3    0    0  0.10430334084E+00  0.17152993608E-01 -0.24462527132E-01  0.88666331115E+00  0.88000000000E+00 0. -1.
        -11    1    4    4    0    0 -0.43785835460E-01 -0.11094428446E-01  0.39355870034E-02  0.45343529809E-01  0.51100000000E-03 0.  1.
         11    1    4    4    0    0 -0.83230663954E-01 -0.22834252645E-02  0.27792110333E-01  0.87779382379E-01  0.51100000000E-03 0. -1.
</event>
<event>
 7    1  0.1150307E+005  0.1043930E+01  0.7957747E-01            NaN
         13   -1    0    0    0    0  0.00000000000E+00  0.00000000000E+00  0.74505805969E-08  0.10566000000E+00  0.10566000000E+00 0.  1.
     999900   -1    0    0    0    0 -0.00000000000E+00 -0.00000000000E+00 -0.74505805969E-08  0.93827000000E+00  0.93827000000E+00 0. -1.
     999903    2    1    2    0    0  0.73338333609E-01  0.68289961407E-01  0.51653299378E-01  0.11540021355E+00  0.24639722907E-01 0.  0.
         14    1    1    2    0    0  0.83922830220E-02 -0.41946328988E-01  0.93074264262E-03  0.42787746047E-01  0.00000000000E+00 0.  1.
     999901    1    1    2    0    0 -0.81730616631E-01 -0.26343632419E-01 -0.52584042021E-01  0.88574204040E+00  0.88000000000E+00 0. -1.
        -11    1    3    3    0    0  0.51488209026E-01  0.54149256598E-01  0.26725584151E-01  0.79358021825E-01  0.51100000000E-03 0. -1.
         11    1    3    3    0    0  0.21850124583E-01  0.14140704810E-01  0.24927715227E-01  0.36042191724E-01  0.51100000000E-03 0.  1.
</event>
<event>
 8    1  0.1150307E+005  0.1043930E+01  0.7957747E-01            NaN
         13   -1    0    0    0    0  0.00000000000E+00  0.00000000000E+00  0.74505805969E-08  0.10566000000E+00  0.10566000000E+00 0. -1.
     999900   -1    0    0    0    0 -0.00000000000E+00 -0.00000000000E+00 -0.74505805969E-08  0.93827000000E+00  0.93827000000E+00 0.  1.
     999902    2    1    2    0    0 -0.58813109144E-02  0.11191403893E-01 -0.19075235848E-01  0.10210454646E+01  0.10207889786E+01 0.  0.
     999903    2    3    3    0    0  0.91338641571E-01 -0.86346133887E-01  0.23218659450E-01  0.12933134894E+00  0.19725348928E-01 0.  0.
         14    1    1    2    0    0  0.58813109144E-02 -0.11191403893E-01  0.19075235848E-01  0.22884535430E-01  0.00000000000E+00 0. -1.
     999901    1    3    3    0    0 -0.97219952485E-01  0.97537537780E-01 -0.42293895298E-01  0.89171411563E+00  0.88000000000E+00 0.  1.
        -11    1    4    4    0    0  0.17078304214E-01 -0.21126029640E-01 -0.22597581554E-02  0.27264358256E-01  0.51100000000E-03 0.  1.
         11    1    4    4    0    0  0.74260337357E-01 -0.65220104247E-01  0.25478417605E-01  0.10206699068E+00  0.51100000000E-03 0. -1.
</event>
<event>
 8    1  0.1150307E+005  0.1043930E+01  0.7957747E-01            NaN
         13   -1    0    0    0    0  0.00000000000E+00  0.00000000000E+00  0.74505805969E-08  0.10566000000E+00  0.10566000000E+00 0. -1.
     999900   -1    0    0    0    0 -0.00000000000E+00 -0.00000000000E+00 -0.74505805969E-08  0.93827000000E+00  0.93827000000E+00 0.  1.
     999902    2    1    2    0    0  0.22580181693E-01  0.69087763050E-02 -0.20887310501E-02  0.10202243342E+01  0.10199488877E+01 0.  0.
     999903    2    3    3    0    0 -0.11192664830E+00 -0.55874256728E-01 -0.15355851026E-01  0.12769432737E+00  0.20506874889E-01 0.  0.
         14    1    1    2    0    0 -0.22580181693E-01 -0.69087763050E-02  0.20887310501E-02  0.23705665836E-01  0.00000000000E+00 0.  1.
     999901    1    3    3    0    0  0.13450682999E+00  0.62783033033E-01  0.13267119976E-01  0.89253000679E+00  0.88000000000E+00 0.  1.
        -11    1    4    4    0    0 -0.52700827614E-01 -0.17165820786E-01 -0.67696300016E-03  0.55432499803E-01  0.51100000000E-03 0. -1.
         11    1    4    4    0    0 -0.59225820686E-01 -0.38708435942E-01 -0.14678888026E-01  0.72261827569E-01  0.51100000000E-03 0.  1.
</event>
<event>
 8    1  0.1150307E+005  0.1043930E+01  0.7957747E-01            NaN
         13   -1    0    0    0    0  0.00000000000E+00  0.00000000000E+00  0.74505805969E-08  0.10566000000E+00  0.10566000000E+00 0.  1.
     999900   -1    0    0    0    0 -0.00000000000E+00 -0.00000000000E+00 -0.74505805969E-08  0.93827000000E+00  0.93827000000E+00 0. -1.
     999902    2    1    2    0    0 -0.63475173176E-03  0.22690464549E-01 -0.66025812753E-02  0.10202899033E+01  0.10200159963E+01 0.  0.
     999903    2    3    3    0    0 -0.35807491746E-01  0.11382747074E+00  0.54750137873E-01  0.13276118172E+00  0.19725217713E-01 0.  0.
         14    1    1    2    0    0  0.63475173176E-03 -0.22690464549E-01  0.66025812753E-02  0.23640096673E-01  0.00000000000E+00 0.  1.
     999901    1    3    3    0    0  0.35172740014E-01 -0.91137006190E-01 -0.61352719148E-01  0.88752872161E+00  0.88000000000E+00 0. -1.
        -11    1    4    4    0    0 -0.56631511937E-02  0.20310603405E-01  0.18585981026E-02  0.21173270886E-01  0.51100000000E-03 0. -1.
         11    1    4    4    0    0 -0.30144340552E-01  0.93516867334E-01  0.52891539770E-01  0.11158791083E+00  0.51100000000E-03 0.  1.
</event>
<event>
 8    1  0.1150307E+005  0.1043930E+01  0.7957747E-01            NaN
         13   -1    0    0    0    0  0.00000000000E+00  0.00000000000E+00  0.74505805969E-08  0.10566000000E+00  0.10566000000E+00 0. -1.
     999900   -1    0    0    0    0 -0.00000000000E+00 -0.00000000000E+00 -0.74505805969E-08  0.93827000000E+00  0.93827000000E+00 0.  1.
     999902    2    1    2    0    0  0.21379517324E-01 -0.88641869012E-02  0.11770703394E-01  0.10179645031E+01  0.10176332947E+01 0.  0.
     999903    2    3    3    0    0 -0.39451032493E-02  0.10839062232E+00 -0.62340168180E-01  0.12673925213E+00  0.20308880196E-01 0.  0.
         14    1    1    2    0    0 -0.21379517324E-01  0.88641869012E-02 -0.11770703394E-01  0.25965496891E-01  0.00000000000E+00 0. -1.
     999901    1    3    3    0    0  0.25324620573E-01 -0.11725480922E+00  0.74110871574E-01  0.89122525098E+00  0.88000000000E+00 0. -1.
        -11    1    4    4    0    0  0.70326471895E-03  0.89443166248E-02 -0.12525374766E-01  0.15415625682E-01  0.51100000000E-03 0. -1.
         11    1    4    4    0    0 -0.46483679682E-02  0.99446305699E-01 -0.49814793414E-01  0.11132362645E+00  0.51100000000E-03 0.  1.
</event>
<event>
 8    1  0.1150307E+005  0.1043930E+01  0.7957747E-01            NaN
         13   -1    0    0    0    0  0.00000000000E+00  0.00000000000E+00  0.74505805969E-08  0.10566000000E+00  0.10566000000E+00 0. -1.
     999900   -1    0    0    0    0 -0.00000000000E+00 -0.00000000000E+00 -0.74505805969E-08  0.93827000000E+00  0.93827000000E+00 0.  1.
     999902    2    1    2    0    0 -0.21042289864E-01  0.10426357818E-01  0.82161369860E-03  0.10204318735E+01  0.10201612846E+01 0.  0.
     999903    2    3    3    0    0 -0.13076475449E+00 -0.11673068090E-01 -0.10871089222E-01  0.13326552880E+00  0.20145447340E-01 0.  0.
         14    1    1    2    0    0  0.21042289864E-01 -0.10426357818E-01 -0.82161369860E-03  0.23498126503E-01  0.00000000000E+00 0.  1.
     999901    1    3    3    0    0  0.10972246463E+00  0.22099425908E-01  0.11692702921E-01  0.88716634470E+00  0.88000000000E+00 0. -1.
        -11    1    4    4    0    0 -0.64864346969E-01 -0.17053297977E-02  0.38658995469E-02  0.65003830331E-01  0.51100000000E-03 0. -1.
         11    1    4    4    0    0 -0.65900407523E-01 -0.99677382919E-02 -0.14736988769E-01  0.68261698465E-01  0.51100000000E-03 0.  1.
</event>
<event>
 8    1  0.1150307E+005  0.1043930E+01  0.7957747E-01            NaN
         13   -1    0    0    0    0  0.00000000000E+00  0.00000000000E+00  0.74505805969E-08  0.10566000000E+00  0.10566000000E+00 0.  1.
     999900   -1    0    0    0    0 -0.00000000000E+00 -0.00000000000E+00 -0.74505805969E-08  0.93827000000E+00  0.93827000000E+00 0.  1.
     999902    2    1    2    0    0 -0.58675243969E-02 -0.14044365421E-01 -0.18448655144E-01  0.10200129576E+01  0.10197325182E+01 0.  0.
     999903    2    3    3    0    0 -0.12337295216E+00 -0.34932406048E-01  0.19753993581E-01  0.13113541922E+00  0.19108102868E-01 0.  0.
         14    1    1    2    0    0  0.58675243969E-02  0.14044365421E-01  0.18448655144E-01  0.23917042443E-01  0.00000000000E+00 0.  1.
     999901    1    3    3    0    0  0.11750542776E+00  0.20888040626E-01 -0.38202648725E-01  0.88887753834E+00  0.88000000000E+00 0.  1.
        -11    1    4    4    0    0 -0.44713451218E-01 -0.65437424137E-02 -0.61662263090E-04  0.45192678697E-01  0.51100000000E-03 0. -1.
         11    1    4    4    0    0 -0.78659500937E-01 -0.28388663634E-01  0.19815655844E-01  0.85942740520E-01  0.51100000000E-03 0.  1.
</event>
<event>
 8    1  0.1150307E+005  0.1043930E+01  0.7957747E-01            NaN
         13   -1    0    0    0    0  0.00000000000E+00  0.00000000000E+00  0.74505805969E-08  0.10566000000E+00  0.10566000000E+00 0.  1.
     999900   -1    0    0    0    0 -0.00000000000E+00 -0.00000000000E+00 -0.74505805969E-08  0.93827000000E+00  0.93827000000E+00 0. -1.
     999902    2    1    2    0    0 -0.58404615491E-02 -0.21664672567E-01 -0.12517617043E-01  0.10182364256E+01  0.10179122058E+01 0.  0.
     999903    2    3    3    0    0 -0.79144865387E-01  0.74390968596E-01 -0.65330035975E-01  0.12841095204E+00  0.20577489573E-01 0.  0.
         14    1    1    2    0    0  0.58404615491E-02  0.21664672567E-01  0.12517617043E-01  0.25693574391E-01  0.00000000000E+00 0. -1.
     999901    1    3    3    0    0  0.73304403838E-01 -0.96055641164E-01  0.52812418932E-01  0.88982547357E+00  0.88000000000E+00 0.  1.
        -11    1    4    4    0    0 -0.44401003425E-01  0.32406202361E-01 -0.41755636872E-01  0.69031915721E-01  0.51100000000E-03 0.  1.
         11    1    4    4    0    0 -0.34743861962E-01  0.41984766236E-01 -0.23574399103E-01  0.59379036318E-01  0.51100000000E-03 0. -1.
</event>
<event>
 8    1  0.1150307E+005  0.1043930E+01  0.7957747E-01            NaN
         13   -1    0    0    0    0  0.00000000000E+00  0.00000000000E+00  0.74505805969E-08  0.10566000000E+00  0.10566000000E+00 0. -1.
     999900   -1    0    0    0    0 -0.00000000000E+00 -0.00000000000E+00 -0.74505805969E-08  0.93827000000E+00  0.93827000000E+00 0.  1.
     999902    2    1    2    0    0 -0.17586108663E-01 -0.16135742590E-01 -0.72708140280E-02  0.10189800873E+01  0.10186745899E+01 0.  0.
     999903    2    3    3    0    0 -0.86647092419E-01 -0.67420677489E-01  0.69744007186E-01  0.13143806198E+00  0.18933336260E-01 0.  0.
         14    1    1    2    0    0  0.17586108663E-01  0.16135742590E-01  0.72708140280E-02  0.24949912695E-01  0.00000000000E+00 0. -1.
     999901    1    3    3    0    0  0.69060983756E-01  0.51284934899E-01 -0.77014821214E-01  0.88754202532E+00  0.88000000000E+00 0.  1.
        -11    1    4    4    0    0 -0.46510577137E-01 -0.33319046355E-01  0.47093111758E-01  0.74104081748E-01  0.51100000000E-03 0.  1.
         11    1    4    4    0    0 -0.40136515282E-01 -0.34101631135E-01  0.22650895427E-01  0.57333980236E-01  0.51100000000E-03 0. -1.
</event>
<event>
 8    1  0.1150307E+005  0.1043930E+01  0.7957747E-01            NaN
         13   -1    0    0    0    0  0.00000000000E+00  0.00000000000E+00  0.74505805969E-08  0.10566000000E+00  0.10566000000E+00 0.  1.
     999900   -1    0    0    0    0 -0.00000000000E+00 -0.00000000000E+00 -0.74505805969E-08  0.93827000000E+00  0.93827000000E+00 0.  1.
     999902    2    1    2    0    0  0.21378060463E-01 -0.18109860223E-02 -0.74641159998E-02  0.10212140548E+01  0.10209613761E+01 0.  0.
     999903    2    3    3    0    0 -0.19490877696E-01  0.35647208653E-01 -0.12389863380E+00  0.13181516599E+00  0.19332582032E-01 0.  0.
         14    1    1    2    0    0 -0.21378060463E-01  0.18109860223E-02  0.74641159998E-02  0.22715945219E-01  0.00000000000E+00 0. -1.
     999901    1    3    3    0    0  0.40868938159E-01 -0.37458194676E-01  0.11643451780E+00  0.88939888880E+00  0.88000000000E+00 0. -1.
        -11    1    4    4    0    0 -0.78597374571E-02  0.14029067228E-01 -0.79189670537E-01  0.80807519705E-01  0.51100000000E-03 0. -1.
         11    1    4    4    0    0 -0.11631140239E-01  0.21618141426E-01 -0.44708963264E-01  0.51007646281E-01  0.51100000000E-03 0.  1.
</event>
<event>
 8    1  0.1202876E+005  0.1043930E+01  0.7957747E-01            NaN
         13   -1    0    0    0    0  0.00000000000E+00  0.00000000000E+00  0.74505805969E-08  0.10566000000E+00  0.10566000000E+00 0.  1.
     999900   -1    0    0    0    0 -0.00000000000E+00 -0.00000000000E+00 -0.74505805969E-08  0.93827000000E+00  0.93827000000E+00 0.  1.
     999902    2    1    2    0    0 -0.72709338805E-02  0.21386842100E-01  0.15573820679E-01  0.10164926644E+01  0.10161223004E+01 0.  0.
     999903    2    3    3    0    0  0.58827934275E-01  0.11205556641E+00  0.12012428987E-01  0.12936101608E+00  0.23933203227E-01 0.  0.
         14    1    1    2    0    0  0.72709338805E-02 -0.21386842100E-01 -0.15573820679E-01  0.27437335604E-01  0.00000000000E+00 0. -1.
     999901    1    3    3    0    0 -0.66098868155E-01 -0.90668724306E-01  0.35613916919E-02  0.88713164832E+00  0.88000000000E+00 0. -1.
        -11    1    4    4    0    0  0.10723394452E-01  0.45054308828E-01  0.47569960905E-02  0.46559339185E-01  0.51100000000E-03 0.  1.
         11    1    4    4    0    0  0.48104539823E-01  0.67001257578E-01  0.72554328963E-02  0.82801676892E-01  0.51100000000E-03 0. -1.
</event>
<event>
 8    1  0.1150307E+005  0.1043930E+01  0.7957747E-01            NaN
         13   -1    0    0    0    0  0.00000000000E+00  0.00000000000E+00  0.74505805969E-08  0.10566000000E+00  0.10566000000E+00 0.  1.
     999900   -1    0    0    0    0 -0.00000000000E+00 -0.00000000000E+00 -0.74505805969E-08  0.93827000000E+00  0.93827000000E+00 0. -1.
     999902    2    1    2    0    0 -0.96723760048E-03  0.16468356686E-01  0.17789534311E-01  0.10196687170E+01  0.10193800482E+01 0.  0.
     999903    2    3    3    0    0 -0.69719784060E-01  0.78967209227E-01 -0.72835538198E-01  0.13014866499E+00  0.23173065198E-01 0.  0.
         14    1    1    2    0    0  0.96723760048E-03 -0.16468356686E-01 -0.17789534311E-01  0.24261282974E-01  0.00000000000E+00 0. -1.
     999901    1    3    3    0    0  0.68752546460E-01 -0.62498852541E-01  0.90625072509E-01  0.88952005204E+00  0.88000000000E+00 0.  1.
        -11    1    4    4    0    0 -0.26125874551E-01  0.46975951194E-01 -0.37832987701E-01  0.65733533231E-01  0.51100000000E-03 0. -1.
         11    1    4    4    0    0 -0.43593909509E-01  0.31991258033E-01 -0.35002550497E-01  0.64415131756E-01  0.51100000000E-03 0.  1.
</event>
<event>
 8    1  0.1150307E+005  0.1043930E+01  0.7957747E-01            NaN
         13   -1    0    0    0    0  0.00000000000E+00  0.00000000000E+00  0.74505805969E-08  0.10566000000E+00  0.10566000000E+00 0.  1.
     999900   -1    0    0    0    0 -0.00000000000E+00 -0.00000000000E+00 -0.74505805969E-08  0.93827000000E+00  0.93827000000E+00 0.  1.
     999902    2    1    2    0    0  0.16054226899E-01  0.49843482294E-02 -0.12761395109E-01  0.10228246658E+01  0.10226068950E+01 0.  0.
     999903    2    3    3    0    0  0.11170521156E+00  0.66688416433E-01  0.28192194765E-01  0.13454897689E+00  0.19576214132E-01 0.  0.
         14    1    1    2    0    0 -0.16054226899E-01 -0.49843482294E-02  0.12761395109E-01  0.21105334248E-01  0.00000000000E+00 0. -1.
     999901    1    3    3    0    0 -0.95650984664E-01 -0.61704068203E-01 -0.40953589874E-01  0.88827568886E+00  0.88000000000E+00 0.  1.
        -11    1    4    4    0    0  0.64161221215E-01  0.28225318482E-01  0.19648241938E-01  0.72798663748E-01  0.51100000000E-03 0.  1.
         11    1    4    4    0    0  0.47543990348E-01  0.38463097951E-01  0.85439528268E-02  0.61750313142E-01  0.51100000000E-03 0. -1.
</event>
<event>
 8    1  0.1150307E+005  0.1043930E+01  0.7957747E-01            NaN
         13   -1    0    0    0    0  0.00000000000E+00  0.00000000000E+00  0.74505805969E-08  0.10566000000E+00  0.10566000000E+00 0.  1.
     999900   -1    0    0    0    0 -0.00000000000E+00 -0.00000000000E+00 -0.74505805969E-08  0.93827000000E+00  0.93827000000E+00 0.  1.
     999902    2    1    2    0    0 -0.16148241735E-02  0.85401590783E-02  0.22512637562E-01  0.10197978467E+01  0.10195122791E+01 0.  0.
     999903    2    3    3    0    0  0.82431618647E-01 -0.22271139952E-01  0.98994695826E-01  0.13195628089E+00  0.17931392494E-01 0.  0.
         14    1    1    2    0    0  0.16148241735E-02 -0.85401590783E-02 -0.22512637562E-01  0.24132153327E-01  0.00000000000E+00 0. -1.
     999901    1    3    3    0    0 -0.84046442821E-01  0.30811299030E-01 -0.76482058264E-01  0.88784156578E+00  0.88000000000E+00 0.  1.
        -11    1    4    4    0    0  0.57969775382E-01 -0.21166277610E-01  0.61165574395E-01  0.86890705935E-01  0.51100000000E-03 0. -1.
         11    1    4    4    0    0  0.24461843265E-01 -0.11048623412E-02  0.37829121431E-01  0.45065574954E-01  0.51100000000E-03 0.  1.
</event>
<event>
 8    1  0.1150307E+005  0.1043930E+01  0.7957747E-01            NaN
         13   -1    0    0    0    0  0.00000000000E+00  0.00000000000E+00  0.74505805969E-08  0.10566000000E+00  0.10566000000E+00 0. -1.
     999900   -1    0    0    0    0 -0.00000000000E+00 -0.00000000000E+00 -0.74505805969E-08  0.93827000000E+00  0.93827000000E+00 0.  1.
     999902    2    1    2    0    0 -0.15684990481E-01 -0.78446256027E-02 -0.16190983705E-01  0.10200615055E+01  0.10197822169E+01 0.  0.
     999903    2    3    3    0    0  0.20989193245E-01  0.12112040899E+00 -0.36184524166E-01  0.12968140824E+00  0.19931084939E-01 0.  0.
         14    1    1    2    0    0  0.15684990481E-01  0.78446256027E-02  0.16190983705E-01  0.23868494518E-01  0.00000000000E+00 0. -1.
     999901    1    3    3    0    0 -0.36674183727E-01 -0.12896503460E+00  0.19993540461E-01  0.89038009724E+00  0.88000000000E+00 0.  1.
        -11    1    4    4    0    0  0.17854229746E-01  0.78524544127E-01 -0.32386502043E-01  0.86798756821E-01  0.51100000000E-03 0.  1.
         11    1    4    4    0    0  0.31349634990E-02  0.42595864866E-01 -0.37980221231E-02  0.42882651421E-01  0.51100000000E-03 0. -1.
</event>
<event>
 8    1  0.1150307E+005  0.1043930E+01  0.7957747E-01            NaN
         13   -1    0    0    0    0  0.00000000000E+00  0.00000000000E+00  0.74505805969E-08  0.10566000000E+00  0.10566000000E+00 0.  1.
     999900   -1    0    0    0    0 -0.00000000000E+00 -0.00000000000E+00 -0.74505805969E-08  0.93827000000E+00  0.93827000000E+00 0. -1.
     999902    2    1    2    0    0  0.98989408671E-02 -0.44637416191E-02 -0.21096903969E-01  0.10202025185E+01  0.10199265589E+01 0.  0.
     999903    2    3    3    0    0  0.41821761101E-01  0.11860683796E+00  0.25432732508E-01  0.12984840860E+00  0.19928462596E-01 0.  0.
         14    1    1    2    0    0 -0.98989408671E-02  0.44637416191E-02  0.21096903969E-01  0.23727481464E-01  0.00000000000E+00 0.  1.
     999901    1    3    3    0    0 -0.31922820233E-01 -0.12307057958E+00 -0.46529636477E-01  0.89035410994E+00  0.88000000000E+00 0. -1.
        -11    1    4    4    0    0  0.21307721505E-01  0.52593637234E-01  0.17504767473E-02  0.56775302404E-01  0.51100000000E-03 0.  1.
         11    1    4    4    0    0  0.20514039596E-01  0.66013200723E-01  0.23682255760E-01  0.73073106196E-01  0.51100000000E-03 0. -1.
</event>
<event>
 8    1  0.1150307E+005  0.1043930E+01  0.7957747E-01            NaN
         13   -1    0    0    0    0  0.00000000000E+00  0.00000000000E+00  0.74505805969E-08  0.10566000000E+00  0.10566000000E+00 0. -1.
     999900   -1    0    0    0    0 -0.00000000000E+00 -0.00000000000E+00 -0.74505805969E-08  0.93827000000E+00  0.93827000000E+00 0.  1.
     999902    2    1    2    0    0 -0.55056295465E-02 -0.18222501099E-01 -0.13950839966E-01  0.10203292068E+01  0.10200562204E+01 0.  0.
     999903    2    3    3    0    0  0.56795627593E-01 -0.11603383171E+00  0.17276382951E-01  0.13217176442E+00  0.21938743946E-01 0.  0.
         14    1    1    2    0    0  0.55056295465E-02  0.18222501099E-01  0.13950839966E-01  0.23600793181E-01  0.00000000000E+00 0.  1.
     999901    1    3    3    0    0 -0.62301257139E-01  0.97811330616E-01 -0.31227222917E-01  0.88815744240E+00  0.88000000000E+00 0.  1.
        -11    1    4    4    0    0  0.41869261250E-01 -0.65461680040E-01  0.16470134497E-01  0.79434205747E-01  0.51100000000E-03 0. -1.
         11    1    4    4    0    0  0.14926366343E-01 -0.50572151675E-01  0.80624845372E-03  0.52737558673E-01  0.51100000000E-03 0.  1.
</event>
<event>
 8    1  0.1150307E+005  0.1043930E+01  0.7957747E-01            NaN
         13   -1    0    0    0    0  0.00000000000E+00  0.00000000000E+00  0.74505805969E-08  0.10566000000E+00  0.10566000000E+00 0. -1.
     999900   -1    0    0    0    0 -0.00000000000E+00 -0.00000000000E+00 -0.74505805969E-08  0.93827000000E+00  0.93827000000E+00 0.  1.
     999902    2    1    2    0    0 -0.13175931544E-01 -0.20684129941E-02  0.20306572114E-01  0.10196351369E+01  0.10193456587E+01 0.  0.
     999903    2    3    3    0    0  0.21758537054E-01 -0.51452762243E-01  0.11805761320E+00  0.13215865994E+00  0.20186398531E-01 0.  0.
         14    1    1    2    0    0  0.13175931544E-01  0.20684129941E-02 -0.20306572114E-01  0.24294863148E-01  0.00000000000E+00 0.  1.
     999901    1    3    3    0    0 -0.34934468598E-01  0.49384349249E-01 -0.97751041081E-01  0.88747647692E+00  0.88000000000E+00 0.  1.
        -11    1    4    4    0    0  0.10023765172E-01 -0.38107928610E-01  0.96368972458E-01  0.10411498482E+00  0.51100000000E-03 0.  1.
         11    1    4    4    0    0  0.11734771882E-01 -0.13344833633E-01  0.21688640737E-01  0.28043675113E-01  0.51100000000E-03 0. -1.
</event>
<event>
 8    1  0.1150307E+005  0.1043930E+01  0.7957747E-01            NaN
         13   -1    0    0    0    0  0.00000000000E+00  0.00000000000E+00  0.74505805969E-08  0.10566000000E+00  0.10566000000E+00 0.  1.
     999900   -1    0    0    0    0 -0.00000000000E+00 -0.00000000000E+00 -0.74505805969E-08  0.93827000000E+00  0.93827000000E+00 0.  1.
     999902    2    1    2    0    0 -0.10097900594E-01  0.20036898173E-01  0.90446608465E-02  0.10197380432E+01  0.10194510415E+01 0.  0.
     999903    2    3    3    0    0  0.10888504649E+00  0.64467147212E-01 -0.22495010946E-01  0.13006071987E+00  0.19944896991E-01 0.  0.
         14    1    1    2    0    0  0.10097900594E-01 -0.20036898173E-01 -0.90446608465E-02  0.24191956817E-01  0.00000000000E+00 0. -1.
     999901    1    3    3    0    0 -0.11898294708E+00 -0.44430249039E-01  0.31539671793E-01  0.88967732332E+00  0.88000000000E+00 0.  1.
        -11    1    4    4    0    0  0.98740366928E-01  0.52099684165E-01 -0.15980304762E-01  0.11278150740E+00  0.51100000000E-03 0.  1.
         11    1    4    4    0    0  0.10144679561E-01  0.12367463047E-01 -0.65147061844E-02  0.17279212462E-01  0.51100000000E-03 0. -1.
</event>
<event>
 8    1  0.1150307E+005  0.1043930E+01  0.7957747E-01            NaN
         13   -1    0    0    0    0  0.00000000000E+00  0.00000000000E+00  0.74505805969E-08  0.10566000000E+00  0.10566000000E+00 0. -1.
     999900   -1    0    0    0    0 -0.00000000000E+00 -0.00000000000E+00 -0.74505805969E-08  0.93827000000E+00  0.93827000000E+00 0.  1.
     999902    2    1    2    0    0  0.88167668481E-02 -0.16441576289E-01  0.14098989635E-01  0.10205453401E+01  0.10202773882E+01 0.  0.
     999903    2    3    3    0    0 -0.12648676525E+00 -0.15477380756E-01 -0.13094108061E-01  0.12978867300E+00  0.20861276918E-01 0.  0.
         14    1    1    2    0    0 -0.88167668481E-02  0.16441576289E-01 -0.14098989635E-01  0.23384659871E-01  0.00000000000E+00 0.  1.
     999901    1    3    3    0    0  0.13530353210E+00 -0.96419553352E-03  0.27193097697E-01  0.89075666713E+00  0.88000000000E+00 0. -1.
        -11    1    4    4    0    0 -0.48897502897E-01  0.36123211495E-02 -0.15824777492E-02  0.49058944245E-01  0.51100000000E-03 0. -1.
         11    1    4    4    0    0 -0.77589262354E-01 -0.19089701905E-01 -0.11511630312E-01  0.80729728755E-01  0.51100000000E-03 0.  1.
</event>
<event>
 8    1  0.1150307E+005  0.1043930E+01  0.7957747E-01            NaN
         13   -1    0    0    0    0  0.00000000000E+00  0.00000000000E+00  0.74505805969E-08  0.10566000000E+00  0.10566000000E+00 0.  1.
     999900   -1    0    0    0    0 -0.00000000000E+00 -0.00000000000E+00 -0.74505805969E-08  0.93827000000E+00  0.93827000000E+00 0.  1.
     999902    2    1    2    0    0  0.11856047312E-01 -0.43394279726E-02  0.20064484084E-01  0.10202238823E+01  0.10199484252E+01 0.  0.
     999903    2    3    3    0    0 -0.31662316732E-01 -0.60502205452E-01 -0.10676424624E+00  0.12829696133E+00  0.19962135317E-01 0.  0.
         14    1    1    2    0    0 -0.11856047312E-01  0.43394279726E-02 -0.20064484084E-01  0.23706117661E-01  0.00000000000E+00 0. -1.
     999901    1    3    3    0    0  0.43518364044E-01  0.56162777479E-01  0.12682873032E+00  0.89192692101E+00  0.88000000000E+00 0. -1.
        -11    1    4    4    0    0 -0.10533685597E-01 -0.48531387544E-02 -0.18133766225E-01  0.21531513800E-01  0.51100000000E-03 0. -1.
         11    1    4    4    0    0 -0.21128631135E-01 -0.55649066698E-01 -0.88630480014E-01  0.10676544753E+00  0.51100000000E-03 0.  1.
</event>
<event>
 8    1  0.1150307E+005  0.1043930E+01  0.7957747E-01            NaN
         13   -1    0    0    0    0  0.00000000000E+00  0.00000000000E+00  0.74505805969E-08  0.10566000000E+00  0.10566000000E+00 0. -1.
     999900   -1    0    0    0    0 -0.00000000000E+00 -0.00000000000E+00 -0.74505805969E-08  0.93827000000E+00  0.93827000000E+00 0. -1.
     999902    2    1    2    0    0 -0.22370875780E-01 -0.18052466885E-02  0.53909237506E-02  0.10208480361E+01  0.10205870545E+01 0.  0.
     999903    2    3    3    0    0  0.47827170807E-01 -0.26276202082E-01  0.11711979476E+00  0.13067393289E+00  0.19512902092E-01 0.  0.
         14    1    1    2    0    0  0.22370875780E-01  0.18052466885E-02 -0.53909237506E-02  0.23081963903E-01  0.00000000000E+00 0. -1.
     999901    1    3    3    0    0 -0.70198046587E-01  0.24470955393E-01 -0.11172887101E+00  0.89017410321E+00  0.88000000000E+00 0. -1.
        -11    1    4    4    0    0  0.18106330524E-01 -0.12425724680E-01  0.69236770936E-01  0.72637658342E-01  0.51100000000E-03 0. -1.
         11    1    4    4    0    0  0.29720840283E-01 -0.13850477402E-01  0.47883023828E-01  0.58036274547E-01  0.51100000000E-03 0.  1.
</event>
<event>
 8    1  0.1150307E+005  0.1043930E+01  0.7957747E-01            NaN
         13   -1    0    0    0    0  0.00000000000E+00  0.00000000000E+00  0.74505805969E-08  0.10566000000E+00  0.10566000000E+00 0.  1.
     999900   -1    0    0    0    0 -0.00000000000E+00 -0.00000000000E+00 -0.74505805969E-08  0.93827000000E+00  0.93827000000E+00 0. -1.
     999902    2    1    2    0    0  0.22611028186E-01  0.63564866663E-02  0.23086455238E-02  0.10203292932E+01  0.10200563088E+01 0.  0.
     999903    2    3    3    0    0 -0.60833065500E-01 -0.59086420757E-01 -0.94568402602E-01  0.12868426664E+00  0.20605599546E-01 0.  0.
         14    1    1    2    0    0 -0.22611028186E-01 -0.63564866663E-02 -0.23086455238E-02  0.23600706823E-01  0.00000000000E+00 0. -1.
     999901    1    3    3    0    0  0.83444093687E-01  0.65442907423E-01  0.96877048126E-01  0.89164502654E+00  0.88000000000E+00 0.  1.
        -11    1    4    4    0    0 -0.41335157747E-01 -0.52039769345E-01 -0.74282292960E-01  0.99673732888E-01  0.51100000000E-03 0. -1.
         11    1    4    4    0    0 -0.19497907753E-01 -0.70466514125E-02 -0.20286109642E-01  0.29010533747E-01  0.51100000000E-03 0.  1.
</event>
<event>
 8    1  0.1150307E+005  0.1043930E+01  0.7957747E-01            NaN
         13   -1    0    0    0    0  0.00000000000E+00  0.00000000000E+00  0.74505805969E-08  0.10566000000E+00  0.10566000000E+00 0.  1.
     999900   -1    0    0    0    0 -0.00000000000E+00 -0.00000000000E+00 -0.74505805969E-08  0.93827000000E+00  0.93827000000E+00 0. -1.
     999902    2    1    2    0    0  0.13725654763E-01  0.16249316206E-02  0.18595787723E-01  0.10207602498E+01  0.10204972564E+01 0.  0.
     999903    2    3    3    0    0  0.44286440829E-01  0.93391121646E-01 -0.76702003413E-01  0.13034648969E+00  0.20586879371E-01 0.  0.
         14    1    1    2    0    0 -0.13725654763E-01 -0.16249316206E-02 -0.18595787723E-01  0.23169750160E-01  0.00000000000E+00 0. -1.
     999901    1    3    3    0    0 -0.30560786066E-01 -0.91766190026E-01  0.95297791135E-01  0.89041376015E+00  0.88000000000E+00 0.  1.
        -11    1    4    4    0    0  0.24665339880E-01  0.48750872851E-01 -0.27870774914E-01  0.61335697685E-01  0.51100000000E-03 0.  1.
         11    1    4    4    0    0  0.19621100949E-01  0.44640248795E-01 -0.48831228499E-01  0.69010792001E-01  0.51100000000E-03 0. -1.
</event>
<event>
 8    1  0.1150307E+005  0.1043930E+01  0.7957747E-01            NaN
         13   -1    0    0    0    0  0.00000000000E+00  0.00000000000E+00  0.74505805969E-08  0.10566000000E+00  0.10566000000E+00 0.  1.
     999900   -1    0    0    0    0 -0.00000000000E+00 -0.00000000000E+00 -0.74505805969E-08  0.93827000000E+00  0.93827000000E+00 0. -1.
     999902    2    1    2    0    0 -0.19316605122E-01 -0.12014828061E-01 -0.46860403720E-02  0.10207040167E+01  0.10204397304E+01 0.  0.
     999903    2    3    3    0    0 -0.11903814266E+00  0.22240819257E-01 -0.52069766437E-01  0.13314384863E+00  0.18742742655E-01 0.  0.
         14    1    1    2    0    0  0.19316605122E-01  0.12014828061E-01  0.46860403720E-02  0.23225983319E-01  0.00000000000E+00 0.  1.
     999901    1    3    3    0    0  0.99721537533E-01 -0.34255647318E-01  0.47383726065E-01  0.88756016805E+00  0.88000000000E+00 0. -1.
        -11    1    4    4    0    0 -0.64318870918E-01  0.20657274832E-01 -0.32881805049E-01  0.75133976229E-01  0.51100000000E-03 0.  1.
         11    1    4    4    0    0 -0.54719271737E-01  0.15835444257E-02 -0.19187961388E-01  0.58009872397E-01  0.51100000000E-03 0. -1.
</event>
<event>
 8    1  0.1150307E+005  0.1043930E+01  0.7957747E-01            NaN
         13   -1    0    0    0    0  0.00000000000E+00  0.00000000000E+00  0.74505805969E-08  0.10566000000E+00  0.10566000000E+00 0. -1.
     999900   -1    0    0    0    0 -0.00000000000E+00 -0.00000000000E+00 -0.74505805969E-08  0.93827000000E+00  0.93827000000E+00 0.  1.
     999902    2    1    2    0    0 -0.81849227805E-02 -0.12113705577E-01 -0.21244684745E-01  0.10181410207E+01  0.10178143576E+01 0.  0.
     999903    2    3    3    0    0  0.22536296060E-02 -0.12253262362E+00 -0.42083800738E-01  0.13093441026E+00  0.18800287463E-01 0.  0.
         14    1    1    2    0    0  0.81849227805E-02  0.12113705577E-01  0.21244684745E-01  0.25788979306E-01  0.00000000000E+00 0. -1.
     999901    1    3    3    0    0 -0.10438552386E-01  0.11041891804E+00  0.20839115992E-01  0.88720661043E+00  0.88000000000E+00 0. -1.
        -11    1    4    4    0    0  0.85712782151E-02 -0.10465675479E+00 -0.34979041555E-01  0.11068106253E+00  0.51100000000E-03 0. -1.
         11    1    4    4    0    0 -0.63176486091E-02 -0.17875868827E-01 -0.71047591827E-02  0.20253347731E-01  0.51100000000E-03 0.  1.
</event>
<event>
 8    1  0.1150307E+005  0.1043930E+01  0.7957747E-01            NaN
         13   -1    0    0    0    0  0.00000000000E+00  0.00000000000E+00  0.74505805969E-08  0.10566000000E+00  0.10566000000E+00 0.  1.
     999900   -1    0    0    0    0 -0.00000000000E+00 -0.00000000000E+00 -0.74505805969E-08  0.93827000000E+00  0.93827000000E+00 0.  1.
     999902    2    1    2    0    0  0.97899480545E-02 -0.62525268775E-03  0.22082294161E-01  0.10197667689E+01  0.10194804565E+01 0.  0.
     999903    2    3    3    0    0 -0.11699336119E+00 -0.45745785507E-01  0.24376955932E-01  0.12953357724E+00  0.20114377878E-01 0.  0.
         14    1    1    2    0    0 -0.97899480545E-02  0.62525268775E-03 -0.22082294161E-01  0.24163231142E-01  0.00000000000E+00 0. -1.
     999901    1    3    3    0    0  0.12678330925E+00  0.45120532819E-01 -0.22946617708E-02  0.89023319162E+00  0.88000000000E+00 0. -1.
        -11    1    4    4    0    0 -0.28785612636E-01 -0.20737392748E-01  0.51417965436E-02  0.35851780228E-01  0.51100000000E-03 0.  1.
         11    1    4    4    0    0 -0.88207748556E-01 -0.25008392759E-01  0.19235159388E-01  0.93681797012E-01  0.51100000000E-03 0. -1.
</event>
<event>
 8    1  0.1150307E+005  0.1043930E+01  0.7957747E-01            NaN
         13   -1    0    0    0    0  0.00000000000E+00  0.00000000000E+00  0.74505805969E-08  0.10566000000E+00  0.10566000000E+00 0.  1.
     999900   -1    0    0    0    0 -0.00000000000E+00 -0.00000000000E+00 -0.74505805969E-08  0.93827000000E+00  0.93827000000E+00 0. -1.
     999902    2    1    2    0    0  0.22228898602E-01  0.35103034241E-02 -0.62182054958E-02  0.10205823611E+01  0.10203152667E+01 0.  0.
     999903    2    3    3    0    0  0.65528986519E-01  0.41636488977E-01  0.10466747813E+00  0.13174934051E+00  0.19363947402E-01 0.  0.
         14    1    1    2    0    0 -0.22228898602E-01 -0.35103034241E-02  0.62182054958E-02  0.23347638912E-01  0.00000000000E+00 0. -1.
     999901    1    3    3    0    0 -0.43300087917E-01 -0.38126185553E-01 -0.11088568362E+00  0.88883302058E+00  0.88000000000E+00 0. -1.
        -11    1    4    4    0    0  0.15332505117E-01  0.18763447183E-01  0.24742130902E-01  0.34635051984E-01  0.51100000000E-03 0.  1.
         11    1    4    4    0    0  0.50196481401E-01  0.22873041795E-01  0.79925347224E-01  0.97114288526E-01  0.51100000000E-03 0. -1.
</event>
<event>
 8    1  0.1150307E+005  0.1043930E+01  0.7957747E-01            NaN
         13   -1    0    0    0    0  0.00000000000E+00  0.00000000000E+00  0.74505805969E-08  0.10566000000E+00  0.10566000000E+00 0.  1.
     999900   -1    0    0    0    0 -0.00000000000E+00 -0.00000000000E+00 -0.74505805969E-08  0.93827000000E+00  0.93827000000E+00 0. -1.
     999902    2    1    2    0    0  0.75576177167E-02 -0.21589131988E-01 -0.59964144466E-02  0.10202833260E+01  0.10200092647E+01 0.  0.
     999903    2    3    3    0    0  0.67163230955E-01  0.46872100030E-01  0.98054256434E-01  0.12951606597E+00  0.21257487741E-01 0.  0.
         14    1    1    2    0    0 -0.75576177167E-02  0.21589131988E-01  0.59964144466E-02  0.23646674010E-01  0.00000000000E+00 0.  1.
     999901    1    3    3    0    0 -0.59605613238E-01 -0.68461232018E-01 -0.10405067088E+00  0.89076726002E+00  0.88000000000E+00 0. -1.
        -11    1    4    4    0    0  0.29239411064E-01  0.89656780439E-02  0.29650768639E-01  0.42599950047E-01  0.51100000000E-03 0. -1.
         11    1    4    4    0    0  0.37923819891E-01  0.37906421986E-01  0.68403487795E-01  0.86916115919E-01  0.51100000000E-03 0.  1.
</event>
<event>
 8    1  0.1150307E+005  0.1043930E+01  0.7957747E-01            NaN
         13   -1    0    0    0    0  0.00000000000E+00  0.00000000000E+00  0.74505805969E-08  0.10566000000E+00  0.10566000000E+00 0. -1.
     999900   -1    0    0    0    0 -0.00000000000E+00 -0.00000000000E+00 -0.74505805969E-08  0.93827000000E+00  0.93827000000E+00 0.  1.
     999902    2    1    2    0    0  0.66192436491E-02  0.84437882490E-02 -0.21431113017E-01  0.10199632616E+01  0.10196816417E+01 0.  0.
     999903    2    3    3    0    0  0.43994091751E-01  0.43868148283E-01  0.11094458309E+00  0.12857384639E+00  0.19043080487E-01 0.  0.
         14    1    1    2    0    0 -0.66192436491E-02 -0.84437882490E-02  0.21431113017E-01  0.23966738444E-01  0.00000000000E+00 0. -1.
     999901    1    3    3    0    0 -0.37374848102E-01 -0.35424360034E-01 -0.13237569611E+00  0.89138941517E+00  0.88000000000E+00 0.  1.
        -11    1    4    4    0    0  0.33249527035E-01  0.26666215488E-01  0.58825037381E-01  0.72644781233E-01  0.51100000000E-03 0. -1.
         11    1    4    4    0    0  0.10744564715E-01  0.17201932796E-01  0.52119545712E-01  0.55929065155E-01  0.51100000000E-03 0.  1.
</event>
<event>
 8    1  0.1150307E+005  0.1043930E+01  0.7957747E-01            NaN
         13   -1    0    0    0    0  0.00000000000E+00  0.00000000000E+00  0.74505805969E-08  0.10566000000E+00  0.10566000000E+00 0.  1.
     999900   -1    0    0    0    0 -0.00000000000E+00 -0.00000000000E+00 -0.74505805969E-08  0.93827000000E+00  0.93827000000E+00 0. -1.
     999902    2    1    2    0    0  0.49541426850E-02 -0.16054201460E-01 -0.18387883582E-01  0.10190222667E+01  0.10187178142E+01 0.  0.
     999903    2    3    3    0    0  0.10864504017E+00  0.56108731473E-01 -0.37978980161E-01  0.12978489562E+00  0.21208057333E-01 0.  0.
         14    1    1    2    0    0 -0.49541426850E-02  0.16054201460E-01  0.18387883582E-01  0.24907733274E-01  0.00000000000E+00 0.  1.
     999901    1    3    3    0    0 -0.10369089748E+00 -0.72162932932E-01  0.19591096579E-01  0.88923737111E+00  0.88000000000E+00 0. -1.
        -11    1    4    4    0    0  0.27146112600E-01  0.49325639979E-02 -0.49291027458E-02  0.28032102878E-01  0.51100000000E-03 0.  1.
         11    1    4    4    0    0  0.81498927568E-01  0.51176167475E-01 -0.33049877415E-01  0.10175279274E+00  0.51100000000E-03 0. -1.
</event>
<event>
 8    1  0.1150307E+005  0.1043930E+01  0.7957747E-01            NaN
         13   -1    0    0    0    0  0.00000000000E+00  0.00000000000E+00  0.74505805969E-08  0.10566000000E+00  0.10566000000E+00 0.  1.
     999900   -1    0    0    0    0 -0.00000000000E+00 -0.00000000000E+00 -0.74505805969E-08  0.93827000000E+00  0.93827000000E+00 0. -1.
     999902    2    1    2    0    0 -0.14940121701E-01  0.17809814355E-01  0.48164882031E-02  0.10201898382E+01  0.10199135800E+01 0.  0.
     999903    2    3    3    0    0 -0.62557525418E-01  0.88168535311E-02 -0.11300124953E+00  0.13101645252E+00  0.20120823579E-01 0.  0.
         14    1    1    2    0    0  0.14940121701E-01 -0.17809814355E-01 -0.48164882031E-02  0.23740161802E-01  0.00000000000E+00 0. -1.
     999901    1    3    3    0    0  0.47617403717E-01  0.89929608237E-02  0.11781773773E+00  0.88917338568E+00  0.88000000000E+00 0.  1.
        -11    1    4    4    0    0 -0.16774472588E-01  0.51066243570E-02 -0.50429415446E-01  0.53393329229E-01  0.51100000000E-03 0. -1.
         11    1    4    4    0    0 -0.45783052829E-01  0.37102291741E-02 -0.62571834085E-01  0.77623123286E-01  0.51100000000E-03 0.  1.
</event>
<event>
 8    1  0.1150307E+005  0.1043930E+01  0.7957747E-01            NaN
         13   -1    0    0    0    0  0.00000000000E+00  0.00000000000E+00  0.74505805969E-08  0.10566000000E+00  0.10566000000E+00 0. -1.
     999900   -1    0    0    0    0 -0.00000000000E+00 -0.00000000000E+00 -0.74505805969E-08  0.93827000000E+00  0.93827000000E+00 0.  1.
     999902    2    1    2    0    0 -0.18833233785E-01 -0.13279260630E-01  0.38868050785E-02  0.10205604319E+01  0.10202928298E+01 0.  0.
     999903    2    3    3    0    0 -0.66686090310E-01  0.54769947703E-01 -0.96222951661E-01  0.13098606516E+00  0.21253494482E-01 0.  0.
         14    1    1    2    0    0  0.18833233785E-01  0.13279260630E-01 -0.38868050785E-02  0.23369568062E-01  0.00000000000E+00 0.  1.
     999901    1    3    3    0    0  0.47852856525E-01 -0.68049208333E-01  0.10010975674E+00  0.88957436678E+00  0.88000000000E+00 0. -1.
        -11    1    4    4    0    0 -0.20216408272E-01  0.51079389650E-02 -0.22359159826E-01  0.30577562902E-01  0.51100000000E-03 0.  1.
         11    1    4    4    0    0 -0.46469682038E-01  0.49662008738E-01 -0.73863791836E-01  0.10040850226E+00  0.51100000000E-03 0. -1.
</event>
<event>
 8    1  0.1150307E+005  0.1043930E+01  0.7957747E-01            NaN
         13   -1    0    0    0    0  0.00000000000E+00  0.00000000000E+00  0.74505805969E-08  0.10566000000E+00  0.10566000000E+00 0. -1.
     999900   -1    0    0    0    0 -0.00000000000E+00 -0.00000000000E+00 -0.74505805969E-08  0.93827000000E+00  0.93827000000E+00 0.  1.
     999902    2    1    2    0    0  0.11216511739E-01 -0.20369896378E-01  0.22730542901E-02  0.10205652918E+01  0.10202978022E+01 0.  0.
     999903    2    3    3    0    0  0.96038302513E-01 -0.11701838732E-01 -0.88217603949E-01  0.13182549261E+00  0.15340347977E-01 0.  0.
         14    1    1    2    0    0 -0.11216511739E-01  0.20369896378E-01 -0.22730542901E-02  0.23364708212E-01  0.00000000000E+00 0. -1.
     999901    1    3    3    0    0 -0.84821790774E-01 -0.86680576465E-02  0.90490658239E-01  0.88873979918E+00  0.88000000000E+00 0. -1.
        -11    1    4    4    0    0  0.84226620495E-02 -0.53776823518E-02 -0.10958416685E-01  0.14839431280E-01  0.51100000000E-03 0.  1.
         11    1    4    4    0    0  0.87615640463E-01 -0.63241563801E-02 -0.77259187264E-01  0.11698606133E+00  0.51100000000E-03 0. -1.
</event>
<event>
 8    1  0.1150307E+005  0.1043930E+01  0.7957747E-01            NaN
         13   -1    0    0    0    0  0.00000000000E+00  0.00000000000E+00  0.74505805969E-08  0.10566000000E+00  0.10566000000E+00 0.  1.
     999900   -1    0    0    0    0 -0.00000000000E+00 -0.00000000000E+00 -0.74505805969E-08  0.93827000000E+00  0.93827000000E+00 0. -1.
     999902    2    1    2    0    0 -0.13053170613E-01 -0.10511204856E-01  0.18278402377E-01  0.10191313975E+01  0.10188296397E+01 0.  0.
     999903    2    3    3    0    0 -0.10552017087E+00  0.72664237416E-01  0.12918232923E-01  0.13036988186E+00  0.20367314385E-01 0.  0.
         14    1    1    2    0    0  0.13053170613E-01  0.10511204856E-01 -0.18278402377E-01  0.24798602462E-01  0.00000000000E+00 0. -1.
     999901    1    3    3    0    0  0.92467000255E-01 -0.83175442272E-01  0.53601694538E-02  0.88876151568E+00  0.88000000000E+00 0. -1.
        -11    1    4    4    0    0 -0.39333854710E-01  0.36593654936E-01 -0.90570743924E-03  0.53733873254E-01  0.51100000000E-03 0.  1.
         11    1    4    4    0    0 -0.66186316158E-01  0.36070582480E-01  0.13823940363E-01  0.76636008606E-01  0.51100000000E-03 0. -1.
</event>
<event>
 8    1  0.1150307E+005  0.1043930E+01  0.7957747E-01            NaN
         13   -1    0    0    0    0  0.00000000000E+00  0.00000000000E+00  0.74505805969E-08  0.10566000000E+00  0.10566000000E+00 0. -1.
     999900   -1    0    0    0    0 -0.00000000000E+00 -0.00000000000E+00 -0.74505805969E-08  0.93827000000E+00  0.93827000000E+00 0.  1.
     999902    2    1    2    0    0 -0.41849267060E-02 -0.73627359458E-02 -0.22168790118E-01  0.10201986126E+01  0.10199225610E+01 0.  0.
     999903    2    3    3    0    0  0.11985809983E+00  0.38647648285E-01  0.19962153167E-01  0.12931217525E+00  0.21530125289E-01 0.  0.
         14    1    1    2    0    0  0.41849267060E-02  0.73627359458E-02  0.22168790118E-01  0.23731387390E-01  0.00000000000E+00 0. -1.
     999901    1    3    3    0    0 -0.12404302654E+00 -0.46010384231E-01 -0.42130943285E-01  0.89088643736E+00  0.88000000000E+00 0.  1.
        -11    1    4    4    0    0  0.88799749981E-01  0.34673338003E-01  0.22317497636E-01  0.97907955686E-01  0.51100000000E-03 0. -1.
         11    1    4    4    0    0  0.31058349854E-01  0.39743102823E-02 -0.23553444690E-02  0.31404219564E-01  0.51100000000E-03 0.  1.
</event>
<event>
 8    1  0.1150307E+005  0.1043930E+01  0.7957747E-01            NaN
         13   -1    0    0    0    0  0.00000000000E+00  0.00000000000E+00  0.74505805969E-08  0.10566000000E+00  0.10566000000E+00 0. -1.
     999900   -1    0    0    0    0 -0.00000000000E+00 -0.00000000000E+00 -0.74505805969E-08  0.93827000000E+00  0.93827000000E+00 0.  1.
     999902    2    1    2    0    0  0.15644766221E-01 -0.17680517046E-01 -0.23249917815E-02  0.10202073319E+01  0.10199314855E+01 0.  0.
     999903    2    3    3    0    0  0.10460083758E-01  0.11200825438E+00 -0.60179928845E-01  0.12880772901E+00  0.17735411316E-01 0.  0.
         14    1    1    2    0    0 -0.15644766221E-01  0.17680517046E-01  0.23249917815E-02  0.23722668060E-01  0.00000000000E+00 0. -1.
     999901    1    3    3    0    0  0.51846824632E-02 -0.12968877143E+00  0.57854937063E-01  0.89139960293E+00  0.88000000000E+00 0.  1.
        -11    1    4    4    0    0  0.90306280581E-02  0.47241012610E-01 -0.34147984613E-01  0.58988231790E-01  0.51100000000E-03 0.  1.
         11    1    4    4    0    0  0.14294556995E-02  0.64767241771E-01 -0.26031944231E-01  0.69819497217E-01  0.51100000000E-03 0. -1.
</event>
<event>
 8    1  0.1150307E+005  0.1043930E+01  0.7957747E-01            NaN
         13   -1    0    0    0    0  0.00000000000E+00  0.00000000000E+00  0.74505805969E-08  0.10566000000E+00  0.10566000000E+00 0.  1.
     999900   -1    0    0    0    0 -0.00000000000E+00 -0.00000000000E+00 -0.74505805969E-08  0.93827000000E+00  0.93827000000E+00 0.  1.
     999902    2    1    2    0    0 -0.16479433486E-01 -0.10473355173E-02 -0.24524387026E-02  0.10272361959E+01  0.10271005399E+01 0.  0.
     999903    2    3    3    0    0  0.68426689430E-01 -0.35100885368E-01 -0.11029736309E+00  0.13594543432E+00  0.20034191469E-01 0.  0.
         14    1    1    2    0    0  0.16479433486E-01  0.10473355173E-02  0.24524387026E-02  0.16693804099E-01  0.00000000000E+00 0.  1.
     999901    1    3    3    0    0 -0.84906122916E-01  0.34053549850E-01  0.10784492439E+00  0.89129076158E+00  0.88000000000E+00 0. -1.
        -11    1    4    4    0    0  0.13740423399E-01 -0.16028833119E-01 -0.36037542780E-01  0.41769466563E-01  0.51100000000E-03 0. -1.
         11    1    4    4    0    0  0.54686266031E-01 -0.19072052248E-01 -0.74259820309E-01  0.94175967756E-01  0.51100000000E-03 0.  1.
</event>
<event>
 8    1  0.1150307E+005  0.1043930E+01  0.7957747E-01            NaN
         13   -1    0    0    0    0  0.00000000000E+00  0.00000000000E+00  0.74505805969E-08  0.10566000000E+00  0.10566000000E+00 0.  1.
     999900   -1    0    0    0    0 -0.00000000000E+00 -0.00000000000E+00 -0.74505805969E-08  0.93827000000E+00  0.93827000000E+00 0.  1.
     999902    2    1    2    0    0 -0.12316246298E-01  0.18819366894E-01  0.11605280612E-02  0.10214087807E+01  0.10211604634E+01 0.  0.
     999903    2    3    3    0    0  0.48895478236E-01  0.11997397128E+00  0.23596492173E-01  0.13321820335E+00  0.20143824990E-01 0.  0.
         14    1    1    2    0    0  0.12316246298E-01 -0.18819366894E-01 -0.11605280612E-02  0.22521219295E-01  0.00000000000E+00 0.  1.
     999901    1    3    3    0    0 -0.61211724534E-01 -0.10115460439E+00 -0.22435964112E-01  0.88819057735E+00  0.88000000000E+00 0.  1.
        -11    1    4    4    0    0  0.33267850847E-01  0.10141162894E+00  0.21346103889E-01  0.10884385907E+00  0.51100000000E-03 0. -1.
         11    1    4    4    0    0  0.15627627389E-01  0.18562342336E-01  0.22503882841E-02  0.24374344284E-01  0.51100000000E-03 0.  1.
</event>
<event>
 8    1  0.1150307E+005  0.1043930E+01  0.7957747E-01            NaN
         13   -1    0    0    0    0  0.00000000000E+00  0.00000000000E+00  0.74505805969E-08  0.10566000000E+00  0.10566000000E+00 0.  1.
     999900   -1    0    0    0    0 -0.00000000000E+00 -0.00000000000E+00 -0.74505805969E-08  0.93827000000E+00  0.93827000000E+00 0.  1.
     999902    2    1    2    0    0 -0.20750314639E-01 -0.10293989021E-01 -0.14476659957E-02  0.10207214347E+01  0.10204575492E+01 0.  0.
     999903    2    3    3    0    0  0.16334328151E-01  0.11652525005E+00  0.49697441709E-01  0.12938860561E+00  0.20655056838E-01 0.  0.
         14    1    1    2    0    0  0.20750314639E-01  0.10293989021E-01  0.14476659957E-02  0.23208565324E-01  0.00000000000E+00 0. -1.
     999901    1    3    3    0    0 -0.37084642790E-01 -0.12681923907E+00 -0.51145107705E-01  0.89133282907E+00  0.88000000000E+00 0.  1.
        -11    1    4    4    0    0  0.20129629932E-01  0.80673110064E-01  0.30706199739E-01  0.88636812398E-01  0.51100000000E-03 0.  1.
         11    1    4    4    0    0 -0.37953017807E-02  0.35852139989E-01  0.18991241970E-01  0.40751793211E-01  0.51100000000E-03 0. -1.
</event>
<event>
 8    1  0.1150307E+005  0.1043930E+01  0.7957747E-01            NaN
         13   -1    0    0    0    0  0.00000000000E+00  0.00000000000E+00  0.74505805969E-08  0.10566000000E+00  0.10566000000E+00 0. -1.
     999900   -1    0    0    0    0 -0.00000000000E+00 -0.00000000000E+00 -0.74505805969E-08  0.93827000000E+00  0.93827000000E+00 0.  1.
     999902    2    1    2    0    0 -0.19160468680E-01 -0.11343693353E-01 -0.61474113983E-02  0.10208303549E+01  0.10205689687E+01 0.  0.
     999903    2    3    3    0    0 -0.64651593930E-01  0.41938698512E-01  0.10447168710E+00  0.13114218436E+00  0.18581067861E-01 0.  0.
         14    1    1    2    0    0  0.19160468680E-01  0.11343693353E-01  0.61474113983E-02  0.23099645145E-01  0.00000000000E+00 0.  1.
     999901    1    3    3    0    0  0.45491125250E-01 -0.53282391866E-01 -0.11061909850E+00  0.88968817049E+00  0.88000000000E+00 0.  1.
        -11    1    4    4    0    0 -0.44138772252E-01  0.38160527547E-01  0.74724546078E-01  0.94807573464E-01  0.51100000000E-03 0. -1.
         11    1    4    4    0    0 -0.20512821678E-01  0.37781709651E-02  0.29747141025E-01  0.36334610899E-01  0.51100000000E-03 0.  1.
</event>
<event>
 8    1  0.1150307E+005  0.1043930E+01  0.7957747E-01            NaN
         13   -1    0    0    0    0  0.00000000000E+00  0.00000000000E+00  0.74505805969E-08  0.10566000000E+00  0.10566000000E+00 0.  1.
     999900   -1    0    0    0    0 -0.00000000000E+00 -0.00000000000E+00 -0.74505805969E-08  0.93827000000E+00  0.93827000000E+00 0. -1.
     999902    2    1    2    0    0  0.21993046654E-01 -0.10075862825E-01 -0.35738738557E-03  0.10197360991E+01  0.10194490507E+01 0.  0.
     999903    2    3    3    0    0  0.11505470947E+00 -0.59654792805E-02  0.62634798432E-01  0.13258031586E+00  0.19525600259E-01 0.  0.
         14    1    1    2    0    0 -0.21993046654E-01  0.10075862825E-01  0.35738738557E-03  0.24193900854E-01  0.00000000000E+00 0. -1.
     999901    1    3    3    0    0 -0.93061662816E-01 -0.41103835443E-02 -0.62992185817E-01  0.88715578328E+00  0.88000000000E+00 0. -1.
        -11    1    4    4    0    0  0.68578117491E-01  0.45019890295E-02  0.31034847907E-01  0.75409873421E-01  0.51100000000E-03 0. -1.
         11    1    4    4    0    0  0.46476591979E-01 -0.10467468310E-01  0.31599950524E-01  0.57170442442E-01  0.51100000000E-03 0.  1.
</event>
<event>
 8    1  0.1150307E+005  0.1043930E+01  0.7957747E-01            NaN
         13   -1    0    0    0    0  0.00000000000E+00  0.00000000000E+00  0.74505805969E-08  0.10566000000E+00  0.10566000000E+00 0.  1.
     999900   -1    0    0    0    0 -0.00000000000E+00 -0.00000000000E+00 -0.74505805969E-08  0.93827000000E+00  0.93827000000E+00 0.  1.
     999902    2    1    2    0    0  0.39574218317E-02 -0.55609577962E-02  0.16848210215E-01  0.10257517815E+01  0.10255906931E+01 0.  0.
     999903    2    3    3    0    0 -0.65055530774E-01  0.11526273338E+00 -0.12578948864E-01  0.13433318757E+00  0.19221226239E-01 0.  0.
         14    1    1    2    0    0 -0.39574218317E-02  0.55609577962E-02 -0.16848210215E-01  0.18178218467E-01  0.00000000000E+00 0. -1.
     999901    1    3    3    0    0  0.69012952605E-01 -0.12082369117E+00  0.29427159079E-01  0.89141859397E+00  0.88000000000E+00 0.  1.
        -11    1    4    4    0    0 -0.13904613013E-01  0.31290560071E-01 -0.11090892656E-01  0.35995922457E-01  0.51100000000E-03 0. -1.
         11    1    4    4    0    0 -0.51150917761E-01  0.83972173305E-01 -0.14880562083E-02  0.98337265111E-01  0.51100000000E-03 0.  1.
</event>
<event>
 8    1  0.1150307E+005  0.1043930E+01  0.7957747E-01            NaN
         13   -1    0    0    0    0  0.00000000000E+00  0.00000000000E+00  0.74505805969E-08  0.10566000000E+00  0.10566000000E+00 0. -1.
     999900   -1    0    0    0    0 -0.00000000000E+00 -0.00000000000E+00 -0.74505805969E-08  0.93827000000E+00  0.93827000000E+00 0.  1.
     999902    2    1    2    0    0 -0.17283983508E-01  0.13496153508E-01  0.25561617572E-01  0.10102509481E+01  0.10096894075E+01 0.  0.
     999903    2    3    3    0    0  0.80549273301E-01  0.87583956687E-01 -0.98627847257E-02  0.12102924513E+00  0.19790622928E-01 0.  0.
         14    1    1    2    0    0  0.17283983508E-01 -0.13496153508E-01 -0.25561617572E-01  0.33679051921E-01  0.00000000000E+00 0.  1.
     999901    1    3    3    0    0 -0.97833256809E-01 -0.74087803178E-01  0.35424402297E-01  0.88922170295E+00  0.88000000000E+00 0. -1.
        -11    1    4    4    0    0  0.71990206659E-01  0.78644250425E-01 -0.25613349753E-02  0.10665050182E+00  0.51100000000E-03 0. -1.
         11    1    4    4    0    0  0.85590666426E-02  0.89397062619E-02 -0.73014497504E-02  0.14378743314E-01  0.51100000000E-03 0.  1.
</event>
<event>
 8    1  0.1150307E+005  0.1043930E+01  0.7957747E-01            NaN
         13   -1    0    0    0    0  0.00000000000E+00  0.00000000000E+00  0.74505805969E-08  0.10566000000E+00  0.10566000000E+00 0.  1.
     999900   -1    0    0    0    0 -0.00000000000E+00 -0.00000000000E+00 -0.74505805969E-08  0.93827000000E+00  0.93827000000E+00 0.  1.
     999902    2    1    2    0    0  0.94579574358E-02 -0.14029627863E-01 -0.17594161888E-01  0.10195202079E+01  0.10192279512E+01 0.  0.
     999903    2    3    3    0    0 -0.12651312940E+00 -0.23932464048E-03 -0.21531045561E-02  0.12883691114E+00  0.24262823915E-01 0.  0.
         14    1    1    2    0    0 -0.94579574358E-02  0.14029627863E-01  0.17594161888E-01  0.24409792079E-01  0.00000000000E+00 0.  1.
     999901    1    3    3    0    0  0.13597108684E+00 -0.13790303222E-01 -0.15441057331E-01  0.89068329678E+00  0.88000000000E+00 0. -1.
        -11    1    4    4    0    0 -0.63834739493E-01 -0.42476350568E-02 -0.12483673771E-01  0.65184504305E-01  0.51100000000E-03 0.  1.
         11    1    4    4    0    0 -0.62678389911E-01  0.40083104163E-02  0.10330569215E-01  0.63652406832E-01  0.51100000000E-03 0. -1.
</event>
<event>
 8    1  0.1150307E+005  0.1043930E+01  0.7957747E-01            NaN
         13   -1    0    0    0    0  0.00000000000E+00  0.00000000000E+00  0.74505805969E-08  0.10566000000E+00  0.10566000000E+00 0.  1.
     999900   -1    0    0    0    0 -0.00000000000E+00 -0.00000000000E+00 -0.74505805969E-08  0.93827000000E+00  0.93827000000E+00 0. -1.
     999902    2    1    2    0    0  0.19161642390E-01  0.43896591199E-02 -0.12061806063E-01  0.10208665048E+01  0.10206059454E+01 0.  0.
     999903    2    3    3    0    0  0.12550551625E+00 -0.33462240069E-01 -0.24188726029E-01  0.13357351598E+00  0.19632462534E-01 0.  0.
         14    1    1    2    0    0 -0.19161642390E-01 -0.43896591199E-02  0.12061806063E-01  0.23063495221E-01  0.00000000000E+00 0.  1.
     999901    1    3    3    0    0 -0.10634387386E+00  0.37851899189E-01  0.12126919966E-01  0.88729298880E+00  0.88000000000E+00 0.  1.
        -11    1    4    4    0    0  0.46604947697E-01 -0.21150032829E-01 -0.14049354826E-01  0.53075328831E-01  0.51100000000E-03 0.  1.
         11    1    4    4    0    0  0.78900568554E-01 -0.12312207240E-01 -0.10139371203E-01  0.80498187152E-01  0.51100000000E-03 0. -1.
</event>
<event>
 8    1  0.1150307E+005  0.1043930E+01  0.7957747E-01            NaN
         13   -1    0    0    0    0  0.00000000000E+00  0.00000000000E+00  0.74505805969E-08  0.10566000000E+00  0.10566000000E+00 0. -1.
     999900   -1    0    0    0    0 -0.00000000000E+00 -0.00000000000E+00 -0.74505805969E-08  0.93827000000E+00  0.93827000000E+00 0.  1.
     999902    2    1    2    0    0  0.12861144320E-01 -0.26946336313E-01 -0.62907952693E-02  0.10134162625E+01  0.10129567774E+01 0.  0.
     999903    2    3    3    0    0 -0.55105019122E-01  0.21644856795E-01 -0.10686043248E+00  0.12375635252E+00  0.19784332169E-01 0.  0.
         14    1    1    2    0    0 -0.12861144320E-01  0.26946336313E-01  0.62907952693E-02  0.30513737546E-01  0.00000000000E+00 0.  1.
     999901    1    3    3    0    0  0.67966163441E-01 -0.48591193107E-01  0.10056963722E+00  0.88965990994E+00  0.88000000000E+00 0. -1.
        -11    1    4    4    0    0 -0.20105874451E-02 -0.31099516002E-02 -0.82272476840E-02  0.90367575094E-02  0.51100000000E-03 0. -1.
         11    1    4    4    0    0 -0.53094431677E-01  0.24754808395E-01 -0.98633184801E-01  0.11471959501E+00  0.51100000000E-03 0.  1.
</event>
<event>
 8    1  0.1150307E+005  0.1043930E+01  0.7957747E-01            NaN
         13   -1    0    0    0    0  0.00000000000E+00  0.00000000000E+00  0.74505805969E-08  0.10566000000E+00  0.10566000000E+00 0. -1.
     999900   -1    0    0    0    0 -0.00000000000E+00 -0.00000000000E+00 -0.74505805969E-08  0.93827000000E+00  0.93827000000E+00 0. -1.
     999902    2    1    2    0    0 -0.35759774482E-02 -0.19834140128E-01  0.14137905256E-01  0.10193116919E+01  0.10190143591E+01 0.  0.
     999903    2    3    3    0    0  0.85725880976E-01  0.88672335959E-01  0.30062901993E-01  0.12801932527E+00  0.16536617929E-01 0.  0.
         14    1    1    2    0    0  0.35759774482E-02  0.19834140128E-01 -0.14137905256E-01  0.24618308113E-01  0.00000000000E+00 0.  1.
     999901    1    3    3    0    0 -0.89301858424E-01 -0.10850647609E+00 -0.15924996737E-01  0.89129236662E+00  0.88000000000E+00 0. -1.
        -11    1    4    4    0    0  0.49878970089E-01  0.39762306675E-01  0.16091600902E-01  0.65788702904E-01  0.51100000000E-03 0. -1.
         11    1    4    4    0    0  0.35846910887E-01  0.48910029284E-01  0.13971301091E-01  0.62230622364E-01  0.51100000000E-03 0.  1.
</event>
<event>
 8    1  0.1150307E+005  0.1043930E+01  0.7957747E-01            NaN
         13   -1    0    0    0    0  0.00000000000E+00  0.00000000000E+00  0.74505805969E-08  0.10566000000E+00  0.10566000000E+00 0.  1.
     999900   -1    0    0    0    0 -0.00000000000E+00 -0.00000000000E+00 -0.74505805969E-08  0.93827000000E+00  0.93827000000E+00 0. -1.
     999902    2    1    2    0    0 -0.23316012750E-01 -0.39618368583E-02  0.26932579353E-03  0.10202782530E+01  0.10200040727E+01 0.  0.
     999903    2    3    3    0    0 -0.24009854410E-01 -0.11212366352E+00 -0.61192707147E-01  0.13152798226E+00  0.20171110017E-01 0.  0.
         14    1    1    2    0    0  0.23316012750E-01  0.39618368583E-02 -0.26932579353E-03  0.23651747044E-01  0.00000000000E+00 0.  1.
     999901    1    3    3    0    0  0.69384166018E-03  0.10816182667E+00  0.61462032941E-01  0.88875027069E+00  0.88000000000E+00 0.  1.
        -11    1    4    4    0    0 -0.10911379208E-01 -0.31862375840E-01 -0.27567947787E-01  0.43526107758E-01  0.51100000000E-03 0. -1.
         11    1    4    4    0    0 -0.13098475203E-01 -0.80261287684E-01 -0.33624759360E-01  0.88001874505E-01  0.51100000000E-03 0.  1.
</event>
<event>
 8    1  0.1150307E+005  0.1043930E+01  0.7957747E-01            NaN
         13   -1    0    0    0    0  0.00000000000E+00  0.00000000000E+00  0.74505805969E-08  0.10566000000E+00  0.10566000000E+00 0.  1.
     999900   -1    0    0    0    0 -0.00000000000E+00 -0.00000000000E+00 -0.74505805969E-08  0.93827000000E+00  0.93827000000E+00 0. -1.
     999902    2    1    2    0    0 -0.20882304825E-01  0.82744518809E-02  0.76193818999E-02  0.10202109741E+01  0.10199352134E+01 0.  0.
     999903    2    3    3    0    0  0.12042571648E+00 -0.13089169264E-01 -0.34997675461E-01  0.12766373459E+00  0.19987803810E-01 0.  0.
         14    1    1    2    0    0  0.20882304825E-01 -0.82744518809E-02 -0.76193818999E-02  0.23719025892E-01  0.00000000000E+00 0.  1.
     999901    1    3    3    0    0 -0.14130802130E+00  0.21363621145E-01  0.42617057361E-01  0.89254723952E+00  0.88000000000E+00 0. -1.
        -11    1    4    4    0    0  0.25720056738E-01  0.22513498481E-02 -0.88622675195E-03  0.25838661219E-01  0.51100000000E-03 0.  1.
         11    1    4    4    0    0  0.94705659738E-01 -0.15340519112E-01 -0.34111448709E-01  0.10182507337E+00  0.51100000000E-03 0. -1.
</event>
<event>
 8    1  0.1150307E+005  0.1043930E+01  0.7957747E-01            NaN
         13   -1    0    0    0    0  0.00000000000E+00  0.00000000000E+00  0.74505805969E-08  0.10566000000E+00  0.10566000000E+00 0. -1.
     999900   -1    0    0    0    0 -0.00000000000E+00 -0.00000000000E+00 -0.74505805969E-08  0.93827000000E+00  0.93827000000E+00 0.  1.
     999902    2    1    2    0    0  0.20881157754E-01  0.90307525461E-03 -0.10929615072E-01  0.10203440979E+01  0.10200714599E+01 0.  0.
     999903    2    3    3    0    0 -0.37695979283E-01 -0.11582324035E+00 -0.41321635521E-01  0.13018681477E+00  0.20127576075E-01 0.  0.
         14    1    1    2    0    0 -0.20881157754E-01 -0.90307525461E-03  0.10929615072E-01  0.23585902139E-01  0.00000000000E+00 0. -1.
     999901    1    3    3    0    0  0.58577137038E-01  0.11672631560E+00  0.30392020449E-01  0.89015728309E+00  0.88000000000E+00 0. -1.
        -11    1    4    4    0    0 -0.24246260427E-01 -0.52495067604E-01 -0.11739059517E-01  0.59005761640E-01  0.51100000000E-03 0. -1.
         11    1    4    4    0    0 -0.13449718856E-01 -0.63328172743E-01 -0.29582576004E-01  0.71181053127E-01  0.51100000000E-03 0.  1.
</event>
<event>
 8    1  0.1150307E+005  0.1043930E+01  0.7957747E-01            NaN
         13   -1    0    0    0    0  0.00000000000E+00  0.00000000000E+00  0.74505805969E-08  0.10566000000E+00  0.10566000000E+00 0.  1.
     999900   -1    0    0    0    0 -0.00000000000E+00 -0.00000000000E+00 -0.74505805969E-08  0.93827000000E+00  0.93827000000E+00 0.  1.
     999902    2    1    2    0    0 -0.19099761844E-01 -0.13423759235E-01  0.50734740032E-03  0.10205792909E+01  0.10203121255E+01 0.  0.
     999903    2    3    3    0    0 -0.43598192848E-02 -0.51136072482E-01  0.11961354373E+00  0.13163285241E+00  0.19644390006E-01 0.  0.
         14    1    1    2    0    0  0.19099761844E-01  0.13423759235E-01 -0.50734740032E-03  0.23350709108E-01  0.00000000000E+00 0. -1.
     999901    1    3    3    0    0 -0.14739942559E-01  0.37712313247E-01 -0.11910619633E+00  0.88894643848E+00  0.88000000000E+00 0.  1.
        -11    1    4    4    0    0 -0.11161008035E-01 -0.34899390527E-01  0.90064943644E-01  0.97234205679E-01  0.51100000000E-03 0.  1.
         11    1    4    4    0    0  0.68011887502E-02 -0.16236681955E-01  0.29548600084E-01  0.34398646736E-01  0.51100000000E-03 0. -1.
</event>
<event>
 8    1  0.1150307E+005  0.1043930E+01  0.7957747E-01            NaN
         13   -1    0    0    0    0  0.00000000000E+00  0.00000000000E+00  0.74505805969E-08  0.10566000000E+00  0.10566000000E+00 0. -1.
     999900   -1    0    0    0    0 -0.00000000000E+00 -0.00000000000E+00 -0.74505805969E-08  0.93827000000E+00  0.93827000000E+00 0. -1.
     999902    2    1    2    0    0  0.23200680080E-01 -0.53343252105E-02  0.23391974815E-02  0.10200093306E+01  0.10197288051E+01 0.  0.
     999903    2    3    3    0    0 -0.92767411681E-01 -0.46425568039E-02 -0.85860949618E-01  0.12802931800E+00  0.19800444327E-01 0.  0.
         14    1    1    2    0    0 -0.23200680080E-01  0.53343252105E-02 -0.23391974815E-02  0.23920669441E-01  0.00000000000E+00 0.  1.
     999901    1    3    3    0    0  0.11596809176E+00 -0.69176840667E-03  0.88200147099E-01  0.89198001256E+00  0.88000000000E+00 0.  1.
        -11    1    4    4    0    0 -0.37614737508E-01  0.76710400983E-02 -0.37074897793E-01  0.53371551423E-01  0.51100000000E-03 0. -1.
         11    1    4    4    0    0 -0.55152674173E-01 -0.12313596902E-01 -0.48786051825E-01  0.74657766580E-01  0.51100000000E-03 0.  1.
</event>
<event>
 8    1  0.1150307E+005  0.1043930E+01  0.7957747E-01            NaN
         13   -1    0    0    0    0  0.00000000000E+00  0.00000000000E+00  0.74505805969E-08  0.10566000000E+00  0.10566000000E+00 0.  1.
     999900   -1    0    0    0    0 -0.00000000000E+00 -0.00000000000E+00 -0.74505805969E-08  0.93827000000E+00  0.93827000000E+00 0. -1.
     999902    2    1    2    0    0  0.12744389064E-01  0.13410471076E-01  0.14913837851E-01  0.10201669458E+01  0.10198901482E+01 0.  0.
     999903    2    3    3    0    0 -0.12372746928E+00  0.28330135784E-01  0.15980958121E-01  0.12952206521E+00  0.20235886548E-01 0.  0.
         14    1    1    2    0    0 -0.12744389064E-01 -0.13410471076E-01 -0.14913837851E-01  0.23763054234E-01  0.00000000000E+00 0. -1.
     999901    1    3    3    0    0  0.13647185835E+00 -0.14919664708E-01 -0.10671202703E-02  0.89064488056E+00  0.88000000000E+00 0.  1.
        -11    1    4    4    0    0 -0.11712737553E+00  0.29895987109E-01  0.11618050401E-01  0.12144065365E+00  0.51100000000E-03 0. -1.
         11    1    4    4    0    0 -0.66000937554E-02 -0.15658513257E-02  0.43629077204E-02  0.80814115556E-02  0.51100000000E-03 0.  1.
</event>
<event>
 8    1  0.1150307E+005  0.1043930E+01  0.7957747E-01            NaN
         13   -1    0    0    0    0  0.00000000000E+00  0.00000000000E+00  0.74505805969E-08  0.10566000000E+00  0.10566000000E+00 0.  1.
     999900   -1    0    0    0    0 -0.00000000000E+00 -0.00000000000E+00 -0.74505805969E-08  0.93827000000E+00  0.93827000000E+00 0.  1.
     999902    2    1    2    0    0 -0.17922692637E-01 -0.11262416222E-01 -0.11969814833E-01  0.10196124878E+01  0.10193224632E+01 0.  0.
     999903    2    3    3    0    0 -0.51173885272E-01 -0.10512849340E+00 -0.59478387213E-01  0.13272267129E+00  0.20170827167E-01 0.  0.
         14    1    1    2    0    0  0.17922692637E-01  0.11262416222E-01  0.11969814833E-01  0.24317512160E-01  0.00000000000E+00 0. -1.
     999901    1    3    3    0    0  0.33251192635E-01  0.93866077183E-01  0.47508572380E-01  0.88688981655E+00  0.88000000000E+00 0. -1.
        -11    1    4    4    0    0 -0.30237254996E-02 -0.22977606575E-01 -0.83352805804E-02  0.24634352907E-01  0.51100000000E-03 0.  1.
         11    1    4    4    0    0 -0.48150159773E-01 -0.82150886830E-01 -0.51143106632E-01  0.10808831838E+00  0.51100000000E-03 0. -1.
</event>
<event>
 8    1  0.1150307E+005  0.1043930E+01  0.7957747E-01            NaN
         13   -1    0    0    0    0  0.00000000000E+00  0.00000000000E+00  0.74505805969E-08  0.10566000000E+00  0.10566000000E+00 0.  1.
     999900   -1    0    0    0    0 -0.00000000000E+00 -0.00000000000E+00 -0.74505805969E-08  0.93827000000E+00  0.93827000000E+00 0.  1.
     999902    2    1    2    0    0  0.54503551551E-02 -0.15829147715E-01 -0.16120470417E-01  0.10206891339E+01  0.10204245049E+01 0.  0.
     999903    2    3    3    0    0  0.10297942482E+00 -0.25199610831E-01  0.73679572608E-01  0.13070948657E+00  0.20408530996E-01 0.  0.
         14    1    1    2    0    0 -0.54503551551E-02  0.15829147715E-01  0.16120470417E-01  0.23240866058E-01  0.00000000000E+00 0.  1.
     999901    1    3    3    0    0 -0.97529069665E-01  0.93704631164E-02 -0.89800043025E-01  0.88997964737E+00  0.88000000000E+00 0. -1.
        -11    1    4    4    0    0  0.40279300331E-01 -0.12615821047E-01  0.41185740035E-01  0.58975480321E-01  0.51100000000E-03 0. -1.
         11    1    4    4    0    0  0.62700124489E-01 -0.12583789784E-01  0.32493832573E-01  0.71734006249E-01  0.51100000000E-03 0.  1.
</event>
<event>
 8    1  0.1150307E+005  0.1043930E+01  0.7957747E-01            NaN
         13   -1    0    0    0    0  0.00000000000E+00  0.00000000000E+00  0.74505805969E-08  0.10566000000E+00  0.10566000000E+00 0. -1.
     999900   -1    0    0    0    0 -0.00000000000E+00 -0.00000000000E+00 -0.74505805969E-08  0.93827000000E+00  0.93827000000E+00 0. -1.
     999902    2    1    2    0    0 -0.12076611093E-02 -0.23599254643E-01 -0.28307407105E-02  0.10201309169E+01  0.10198532694E+01 0.  0.
     999903    2    3    3    0    0 -0.64444174178E-01 -0.93031150726E-02 -0.11193922006E+00  0.13102580696E+00  0.19944261499E-01 0.  0.
         14    1    1    2    0    0  0.12076611093E-02  0.23599254643E-01  0.28307407105E-02  0.23799083135E-01  0.00000000000E+00 0.  1.
     999901    1    3    3    0    0  0.63236513069E-01 -0.14296139571E-01  0.10910847935E+00  0.88910510990E+00  0.88000000000E+00 0.  1.
        -11    1    4    4    0    0 -0.23525877258E-01 -0.10160932468E-01 -0.57162633958E-01  0.62646143468E-01  0.51100000000E-03 0.  1.
         11    1    4    4    0    0 -0.40918296920E-01  0.85781739579E-03 -0.54776586102E-01  0.68379663494E-01  0.51100000000E-03 0. -1.
</event>
<event>
 8    1  0.1150307E+005  0.1043930E+01  0.7957747E-01            NaN
         13   -1    0    0    0    0  0.00000000000E+00  0.00000000000E+00  0.74505805969E-08  0.10566000000E+00  0.10566000000E+00 0.  1.
     999900   -1    0    0    0    0 -0.00000000000E+00 -0.00000000000E+00 -0.74505805969E-08  0.93827000000E+00  0.93827000000E+00 0.  1.
     999902    2    1    2    0    0 -0.27412204781E-02 -0.81742898699E-02 -0.20390762246E-01  0.10217914253E+01  0.10215515652E+01 0.  0.
     999903    2    3    3    0    0 -0.60275040008E-01  0.11469499312E+00 -0.71893627656E-02  0.13129646292E+00  0.19976294525E-01 0.  0.
         14    1    1    2    0    0  0.27412204781E-02  0.81742898699E-02  0.20390762246E-01  0.22138574696E-01  0.00000000000E+00 0. -1.
     999901    1    3    3    0    0  0.57533819530E-01 -0.12286928299E+00 -0.13201399481E-01  0.89049496239E+00  0.88000000000E+00 0. -1.
        -11    1    4    4    0    0 -0.10599698952E-01  0.38626353594E-01 -0.54482186450E-02  0.40426390109E-01  0.51100000000E-03 0.  1.
         11    1    4    4    0    0 -0.49675341056E-01  0.76068639523E-01 -0.17411441205E-02  0.90870072806E-01  0.51100000000E-03 0. -1.
</event>
<event>
 8    1  0.1150307E+005  0.1043930E+01  0.7957747E-01            NaN
         13   -1    0    0    0    0  0.00000000000E+00  0.00000000000E+00  0.74505805969E-08  0.10566000000E+00  0.10566000000E+00 0.  1.
     999900   -1    0    0    0    0 -0.00000000000E+00 -0.00000000000E+00 -0.74505805969E-08  0.93827000000E+00  0.93827000000E+00 0. -1.
     999902    2    1    2    0    0 -0.25851903466E-02 -0.23345245228E-01 -0.19480201550E-02  0.10203614093E+01  0.10200891761E+01 0.  0.
     999903    2    3    3    0    0  0.12250866749E+00  0.18198336010E-01 -0.33850207039E-01  0.12997267852E+00  0.20186817504E-01 0.  0.
         14    1    1    2    0    0  0.25851903466E-02  0.23345245228E-01  0.19480201550E-02  0.23568590675E-01  0.00000000000E+00 0.  1.
     999901    1    3    3    0    0 -0.12509385784E+00 -0.41543581238E-01  0.31902186884E-01  0.89038873080E+00  0.88000000000E+00 0. -1.
        -11    1    4    4    0    0  0.83898960769E-01  0.30466278003E-02 -0.20891023204E-01  0.86515972691E-01  0.51100000000E-03 0. -1.
         11    1    4    4    0    0  0.38609706725E-01  0.15151708210E-01 -0.12959183835E-01  0.43456705832E-01  0.51100000000E-03 0.  1.
</event>
<event>
 8    1  0.1150307E+005  0.1043930E+01  0.7957747E-01            NaN
         13   -1    0    0    0    0  0.00000000000E+00  0.00000000000E+00  0.74505805969E-08  0.10566000000E+00  0.10566000000E+00 0.  1.
     999900   -1    0    0    0    0 -0.00000000000E+00 -0.00000000000E+00 -0.74505805969E-08  0.93827000000E+00  0.93827000000E+00 0. -1.
     999902    2    1    2    0    0 -0.21509363313E-01 -0.99609245596E-03  0.11745855814E-01  0.10194022598E+01  0.10191071373E+01 0.  0.
     999903    2    3    3    0    0  0.15143679446E-01  0.10448171490E+00  0.73635825343E-01  0.13018947216E+00  0.19527009774E-01 0.  0.
         14    1    1    2    0    0  0.21509363313E-01  0.99609245596E-03 -0.11745855814E-01  0.24527740196E-01  0.00000000000E+00 0. -1.
     999901    1    3    3    0    0 -0.36653042759E-01 -0.10547780736E+00 -0.61889969529E-01  0.88921278765E+00  0.88000000000E+00 0.  1.
        -11    1    4    4    0    0  0.34249974020E-02  0.43651157804E-01  0.41802640152E-01  0.60538219577E-01  0.51100000000E-03 0. -1.
         11    1    4    4    0    0  0.11718682044E-01  0.60830557097E-01  0.31833185191E-01  0.69651252580E-01  0.51100000000E-03 0.  1.
</event>
<event>
 8    1  0.1150307E+005  0.1043930E+01  0.7957747E-01            NaN
         13   -1    0    0    0    0  0.00000000000E+00  0.00000000000E+00  0.74505805969E-08  0.10566000000E+00  0.10566000000E+00 0. -1.
     999900   -1    0    0    0    0 -0.00000000000E+00 -0.00000000000E+00 -0.74505805969E-08  0.93827000000E+00  0.93827000000E+00 0. -1.
     999902    2    1    2    0    0  0.48993322554E-02  0.20313941342E-01  0.11837589355E-01  0.10199135850E+01  0.10196307825E+01 0.  0.
     999903    2    3    3    0    0 -0.48882739746E-01 -0.22953390497E-01  0.11761569531E+00  0.13089526065E+00  0.19589208653E-01 0.  0.
         14    1    1    2    0    0 -0.48993322554E-02 -0.20313941342E-01 -0.11837589355E-01  0.24016415035E-01  0.00000000000E+00 0. -1.
     999901    1    3    3    0    0  0.53782072002E-01  0.43267331838E-01 -0.10577810596E+00  0.88901832432E+00  0.88000000000E+00 0. -1.
        -11    1    4    4    0    0 -0.15478998198E-01 -0.72898236237E-03  0.49157382935E-01  0.51544545963E-01  0.51100000000E-03 0.  1.
         11    1    4    4    0    0 -0.33403741548E-01 -0.22224408134E-01  0.68458312377E-01  0.79350714684E-01  0.51100000000E-03 0. -1.
</event>
<event>
 8    1  0.1150307E+005  0.1043930E+01  0.7957747E-01            NaN
         13   -1    0    0    0    0  0.00000000000E+00  0.00000000000E+00  0.74505805969E-08  0.10566000000E+00  0.10566000000E+00 0. -1.
     999900   -1    0    0    0    0 -0.00000000000E+00 -0.00000000000E+00 -0.74505805969E-08  0.93827000000E+00  0.93827000000E+00 0.  1.
     999902    2    1    2    0    0  0.14479405550E-02 -0.22095806193E-01 -0.11060329879E-01  0.10191781904E+01  0.10188775842E+01 0.  0.
     999903    2    3    3    0    0 -0.41446974818E-01  0.88029646834E-01  0.78774415599E-01  0.12674451179E+00  0.19791217026E-01 0.  0.
         14    1    1    2    0    0 -0.14479405550E-02  0.22095806193E-01  0.11060329879E-01  0.24751809635E-01  0.00000000000E+00 0.  1.
     999901    1    3    3    0    0  0.42894915373E-01 -0.11012545303E+00 -0.89834745478E-01  0.89243367858E+00  0.88000000000E+00 0.  1.
        -11    1    4    4    0    0 -0.99200406286E-02  0.42854341218E-01  0.30901184511E-01  0.53759148919E-01  0.51100000000E-03 0.  1.
         11    1    4    4    0    0 -0.31526934189E-01  0.45175305616E-01  0.47873231088E-01  0.72985362866E-01  0.51100000000E-03 0. -1.
</event>
<event>
 8    1  0.1150307E+005  0.1043930E+01  0.7957747E-01            NaN
         13   -1    0    0    0    0  0.00000000000E+00  0.00000000000E+00  0.74505805969E-08  0.10566000000E+00  0.10566000000E+00 0. -1.
     999900   -1    0    0    0    0 -0.00000000000E+00 -0.00000000000E+00 -0.74505805969E-08  0.93827000000E+00  0.93827000000E+00 0. -1.
     999902    2    1    2    0    0  0.10496344239E-01 -0.12375246167E-01 -0.56409445230E-02  0.10267503546E+01  0.10266066192E+01 0.  0.
     999903    2    3    3    0    0  0.10312714635E+00 -0.73824530957E-01  0.50156327962E-01  0.13800415029E+00  0.21076493488E-01 0.  0.
         14    1    1    2    0    0 -0.10496344239E-01  0.12375246167E-01  0.56409445230E-02  0.17179645375E-01  0.00000000000E+00 0. -1.
     999901    1    3    3    0    0 -0.92630802111E-01  0.61449284790E-01 -0.55797272485E-01  0.88874620433E+00  0.88000000000E+00 0. -1.
        -11    1    4    4    0    0  0.37217523252E-01 -0.33570130416E-01  0.29079257014E-01  0.57947924921E-01  0.51100000000E-03 0. -1.
         11    1    4    4    0    0  0.65909623098E-01 -0.40254400541E-01  0.21077070948E-01  0.80056225371E-01  0.51100000000E-03 0.  1.
</event>
<event>
 8    1  0.1150307E+005  0.1043930E+01  0.7957747E-01            NaN
         13   -1    0    0    0    0  0.00000000000E+00  0.00000000000E+00  0.74505805969E-08  0.10566000000E+00  0.10566000000E+00 0. -1.
     999900   -1    0    0    0    0 -0.00000000000E+00 -0.00000000000E+00 -0.74505805969E-08  0.93827000000E+00  0.93827000000E+00 0.  1.
     999902    2    1    2    0    0 -0.19329549004E-01 -0.14438656934E-01 -0.31272461084E-02  0.10196012938E+01  0.10193109988E+01 0.  0.
     999903    2    3    3    0    0 -0.16924056530E-01  0.18936781599E-01  0.12546757915E+00  0.12962582479E+00  0.20389106155E-01 0.  0.
         14    1    1    2    0    0  0.19329549004E-01  0.14438656934E-01  0.31272461084E-02  0.24328706233E-01  0.00000000000E+00 0.  1.
     999901    1    3    3    0    0 -0.24054924736E-02 -0.33375438533E-01 -0.12859482526E+00  0.88997546897E+00  0.88000000000E+00 0.  1.
        -11    1    4    4    0    0 -0.16098137328E-01  0.19976193490E-01  0.77510257829E-01  0.81647409766E-01  0.51100000000E-03 0. -1.
         11    1    4    4    0    0 -0.82591920246E-03 -0.10394118916E-02  0.47957321318E-01  0.47978415028E-01  0.51100000000E-03 0.  1.
</event>
<event>
 8    1  0.1150307E+005  0.1043930E+01  0.7957747E-01            NaN
         13   -1    0    0    0    0  0.00000000000E+00  0.00000000000E+00  0.74505805969E-08  0.10566000000E+00  0.10566000000E+00 0.  1.
     999900   -1    0    0    0    0 -0.00000000000E+00 -0.00000000000E+00 -0.74505805969E-08  0.93827000000E+00  0.93827000000E+00 0.  1.
     999902    2    1    2    0    0 -0.10372187377E-01  0.15526916696E-01 -0.11985996267E-01  0.10217414552E+01  0.10215004992E+01 0.  0.
     999903    2    3    3    0    0  0.38018076971E-01 -0.18204052494E-01  0.11989753618E+00  0.12996084201E+00  0.27159520779E-01 0.  0.
         14    1    1    2    0    0  0.10372187377E-01 -0.15526916696E-01  0.11985996267E-01  0.22188544783E-01  0.00000000000E+00 0.  1.
     999901    1    3    3    0    0 -0.48390264347E-01  0.33730969190E-01 -0.13188353245E+00  0.89178061321E+00  0.88000000000E+00 0.  1.
        -11    1    4    4    0    0  0.55138997599E-03  0.51786145733E-02  0.21116482057E-01  0.21755206624E-01  0.51100000000E-03 0.  1.
         11    1    4    4    0    0  0.37466686995E-01 -0.23382667067E-01  0.98781054125E-01  0.10820563538E+00  0.51100000000E-03 0. -1.
</event>
<event>
 8    1  0.1150307E+005  0.1043930E+01  0.7957747E-01            NaN
         13   -1    0    0    0    0  0.00000000000E+00  0.00000000000E+00  0.74505805969E-08  0.10566000000E+00  0.10566000000E+00 0.  1.
     999900   -1    0    0    0    0 -0.00000000000E+00 -0.00000000000E+00 -0.74505805969E-08  0.93827000000E+00  0.93827000000E+00 0. -1.
     999902    2    1    2    0    0 -0.79957868746E-02  0.14934700385E-01  0.18074523788E-01  0.10191577112E+01  0.10188566013E+01 0.  0.
     999903    2    3    3    0    0 -0.10701002204E+00  0.22800609718E-01 -0.66473849373E-01  0.12954312120E+00  0.19789769558E-01 0.  0.
         14    1    1    2    0    0  0.79957868746E-02 -0.14934700385E-01 -0.18074523788E-01  0.24772288822E-01  0.00000000000E+00 0. -1.
     999901    1    3    3    0    0  0.99014235167E-01 -0.78659093330E-02  0.84548373161E-01  0.88961458998E+00  0.88000000000E+00 0. -1.
        -11    1    4    4    0    0 -0.48131383082E-01  0.18355979854E-01 -0.37832956826E-01  0.63915301587E-01  0.51100000000E-03 0. -1.
         11    1    4    4    0    0 -0.58878638960E-01  0.44446298637E-02 -0.28640892548E-01  0.65627819614E-01  0.51100000000E-03 0.  1.
</event>
<event>
 8    1  0.1150307E+005  0.1043930E+01  0.7957747E-01            NaN
         13   -1    0    0    0    0  0.00000000000E+00  0.00000000000E+00  0.74505805969E-08  0.10566000000E+00  0.10566000000E+00 0.  1.
     999900   -1    0    0    0    0 -0.00000000000E+00 -0.00000000000E+00 -0.74505805969E-08  0.93827000000E+00  0.93827000000E+00 0. -1.
     999902    2    1    2    0    0  0.27100257361E-01 -0.61248520314E-02  0.35109478255E-02  0.10159252769E+01  0.10155392182E+01 0.  0.
     999903    2    3    3    0    0 -0.94355262948E-01  0.56178525041E-01 -0.53109308029E-01  0.12360302144E+00  0.19954097038E-01 0.  0.
         14    1    1    2    0    0 -0.27100257361E-01  0.61248520314E-02 -0.35109478255E-02  0.28004723103E-01  0.00000000000E+00 0. -1.
     999901    1    3    3    0    0  0.12145552031E+00 -0.62303377072E-01  0.56620255854E-01  0.89232225546E+00  0.88000000000E+00 0.  1.
        -11    1    4    4    0    0 -0.29622507483E-01  0.25471241640E-01 -0.26323240027E-01  0.47111051642E-01  0.51100000000E-03 0.  1.
         11    1    4    4    0    0 -0.64732755465E-01  0.30707283400E-01 -0.26786068002E-01  0.76491969800E-01  0.51100000000E-03 0. -1.
</event>
<event>
 8    1  0.1150307E+005  0.1043930E+01  0.7957747E-01            NaN
         13   -1    0    0    0    0  0.00000000000E+00  0.00000000000E+00  0.74505805969E-08  0.10566000000E+00  0.10566000000E+00 0. -1.
     999900   -1    0    0    0    0 -0.00000000000E+00 -0.00000000000E+00 -0.74505805969E-08  0.93827000000E+00  0.93827000000E+00 0.  1.
     999902    2    1    2    0    0  0.81321222162E-02  0.92573173794E-03  0.21971278033E-01  0.10204837754E+01  0.10202143943E+01 0.  0.
     999903    2    3    3    0    0 -0.89138115723E-01 -0.16771219692E-01 -0.88235603208E-01  0.12811600480E+00  0.20032761369E-01 0.  0.
         14    1    1    2    0    0 -0.81321222162E-02 -0.92573173794E-03 -0.21971278033E-01  0.23446224630E-01  0.00000000000E+00 0.  1.
     999901    1    3    3    0    0  0.97270237939E-01  0.17696951430E-01  0.11020688124E+00  0.89236777057E+00  0.88000000000E+00 0. -1.
        -11    1    4    4    0    0 -0.59687847178E-01 -0.44603971855E-02 -0.66633025933E-01  0.89569835937E-01  0.51100000000E-03 0. -1.
         11    1    4    4    0    0 -0.29450268545E-01 -0.12310822507E-01 -0.21602577275E-01  0.38546168864E-01  0.51100000000E-03 0.  1.
</event>
<event>
 8    1  0.1150307E+005  0.1043930E+01  0.7957747E-01            NaN
         13   -1    0    0    0    0  0.00000000000E+00  0.00000000000E+00  0.74505805969E-08  0.10566000000E+00  0.10566000000E+00 0.  1.
     999900   -1    0    0    0    0 -0.00000000000E+00 -0.00000000000E+00 -0.74505805969E-08  0.93827000000E+00  0.93827000000E+00 0. -1.
     999902    2    1    2    0    0  0.65900098993E-02 -0.18635702500E-01  0.14154455500E-01  0.10196181459E+01  0.10193282578E+01 0.  0.
     999903    2    3    3    0    0 -0.99154619765E-01  0.61408357398E-01  0.51281193119E-01  0.12890642327E+00  0.19608167003E-01 0.  0.
         14    1    1    2    0    0 -0.65900098993E-02  0.18635702500E-01 -0.14154455500E-01  0.24311854077E-01  0.00000000000E+00 0. -1.
     999901    1    3    3    0    0  0.10574462966E+00 -0.80044059899E-01 -0.37126737619E-01  0.89071172265E+00  0.88000000000E+00 0. -1.
        -11    1    4    4    0    0 -0.73505245904E-01  0.55037108724E-01  0.40331099294E-01  0.10029438271E+00  0.51100000000E-03 0. -1.
         11    1    4    4    0    0 -0.25649373861E-01  0.63712486747E-02  0.10950093825E-01  0.28612040558E-01  0.51100000000E-03 0.  1.
</event>
<event>
 8    1  0.1150307E+005  0.1043930E+01  0.7957747E-01            NaN
         13   -1    0    0    0    0  0.00000000000E+00  0.00000000000E+00  0.74505805969E-08  0.10566000000E+00  0.10566000000E+00 0.  1.
     999900   -1    0    0    0    0 -0.00000000000E+00 -0.00000000000E+00 -0.74505805969E-08  0.93827000000E+00  0.93827000000E+00 0.  1.
     999902    2    1    2    0    0  0.18981327674E-01  0.54783326388E-02  0.14537250507E-01  0.10194017595E+01  0.10191066248E+01 0.  0.
     999903    2    3    3    0    0  0.83307331828E-01  0.49388807145E-02  0.10105983063E+00  0.13282165446E+00  0.21540623189E-01 0.  0.
         14    1    1    2    0    0 -0.18981327674E-01 -0.54783326388E-02 -0.14537250507E-01  0.24528240480E-01  0.00000000000E+00 0. -1.
     999901    1    3    3    0    0 -0.64326004154E-01  0.53945192430E-03 -0.86522580123E-01  0.88658010506E+00  0.88000000000E+00 0.  1.
        -11    1    4    4    0    0  0.54631175070E-01 -0.55188121068E-02  0.56319777160E-01  0.78658763002E-01  0.51100000000E-03 0.  1.
         11    1    4    4    0    0  0.28676156757E-01  0.10457692821E-01  0.44740053470E-01  0.54162891457E-01  0.51100000000E-03 0. -1.
</event>
<event>
 8    1  0.1150307E+005  0.1043930E+01  0.7957747E-01            NaN
         13   -1    0    0    0    0  0.00000000000E+00  0.00000000000E+00  0.74505805969E-08  0.10566000000E+00  0.10566000000E+00 0. -1.
     999900   -1    0    0    0    0 -0.00000000000E+00 -0.00000000000E+00 -0.74505805969E-08  0.93827000000E+00  0.93827000000E+00 0. -1.
     999902    2    1    2    0    0  0.10700526549E-01  0.75695676176E-02 -0.21226835940E-01  0.10189824914E+01  0.10186770536E+01 0.  0.
     999903    2    3    3    0    0  0.48516221302E-01 -0.61372335615E-01  0.98388992364E-01  0.12741591553E+00  0.20833492351E-01 0.  0.
         14    1    1    2    0    0 -0.10700526549E-01 -0.75695676176E-02  0.21226835940E-01  0.24947508621E-01  0.00000000000E+00 0. -1.
     999901    1    3    3    0    0 -0.37815694753E-01  0.68941903233E-01 -0.11961582830E+00  0.89156657585E+00  0.88000000000E+00 0. -1.
        -11    1    4    4    0    0  0.10948418149E-01 -0.55179223471E-02  0.77461575829E-02  0.14511354358E-01  0.51100000000E-03 0.  1.
         11    1    4    4    0    0  0.37567803153E-01 -0.55854413268E-01  0.90642834782E-01  0.11290456117E+00  0.51100000000E-03 0. -1.
</event>
<event>
 8    1  0.1150307E+005  0.1043930E+01  0.7957747E-01            NaN
         13   -1    0    0    0    0  0.00000000000E+00  0.00000000000E+00  0.74505805969E-08  0.10566000000E+00  0.10566000000E+00 0. -1.
     999900   -1    0    0    0    0 -0.00000000000E+00 -0.00000000000E+00 -0.74505805969E-08  0.93827000000E+00  0.93827000000E+00 0.  1.
     999902    2    1    2    0    0  0.20926467352E-01 -0.97396133555E-02 -0.23569788078E-02  0.10207280076E+01  0.10204642732E+01 0.  0.
     999903    2    3    3    0    0 -0.78334546009E-01 -0.59292196389E-01 -0.82931350938E-01  0.13010999926E+00  0.19978420567E-01 0.  0.
         14    1    1    2    0    0 -0.20926467352E-01  0.97396133555E-02  0.23569788078E-02  0.23201992441E-01  0.00000000000E+00 0. -1.
     999901    1    3    3    0    0  0.99261013361E-01  0.49552583033E-01  0.80574372130E-01  0.89061800830E+00  0.88000000000E+00 0. -1.
        -11    1    4    4    0    0 -0.23143889092E-01 -0.21840786917E-01 -0.16013998984E-01  0.35628203153E-01  0.51100000000E-03 0. -1.
         11    1    4    4    0    0 -0.55190656917E-01 -0.37451409472E-01 -0.66917351954E-01  0.94481796109E-01  0.51100000000E-03 0.  1.
</event>
<event>
 8    1  0.1150307E+005  0.1043930E+01  0.7957747E-01            NaN
         13   -1    0    0    0    0  0.00000000000E+00  0.00000000000E+00  0.74505805969E-08  0.10566000000E+00  0.10566000000E+00 0. -1.
     999900   -1    0    0    0    0 -0.00000000000E+00 -0.00000000000E+00 -0.74505805969E-08  0.93827000000E+00  0.93827000000E+00 0.  1.
     999902    2    1    2    0    0 -0.30859556297E-04 -0.11370546512E-01  0.16624015953E-01  0.10237892903E+01  0.10235911600E+01 0.  0.
     999903    2    3    3    0    0 -0.64348948867E-01 -0.71765577102E-01  0.93815781905E-01  0.13601513825E+00  0.20189889122E-01 0.  0.
         14    1    1    2    0    0  0.30859556297E-04  0.11370546512E-01 -0.16624015953E-01  0.20140709687E-01  0.00000000000E+00 0.  1.
     999901    1    3    3    0    0  0.64318089311E-01  0.60395030590E-01 -0.77191765952E-01  0.88777415206E+00  0.88000000000E+00 0.  1.
        -11    1    4    4    0    0 -0.94792011356E-02 -0.92013940762E-02  0.23954339866E-01  0.27360417148E-01  0.51100000000E-03 0. -1.
         11    1    4    4    0    0 -0.54869747732E-01 -0.62564183026E-01  0.69861442039E-01  0.10865472111E+00  0.51100000000E-03 0.  1.
</event>
<event>
 8    1  0.1150307E+005  0.1043930E+01  0.7957747E-01            NaN
         13   -1    0    0    0    0  0.00000000000E+00  0.00000000000E+00  0.74505805969E-08  0.10566000000E+00  0.10566000000E+00 0.  1.
     999900   -1    0    0    0    0 -0.00000000000E+00 -0.00000000000E+00 -0.74505805969E-08  0.93827000000E+00  0.93827000000E+00 0. -1.
     999902    2    1    2    0    0 -0.26230847576E-02 -0.18299218672E-01  0.61626510791E-02  0.10244435882E+01  0.10242582414E+01 0.  0.
     999903    2    3    3    0    0  0.22462650547E-01 -0.11954026972E+00  0.59204070295E-01  0.13669788320E+00  0.19665771730E-01 0.  0.
         14    1    1    2    0    0  0.26230847576E-02  0.18299218672E-01 -0.61626510791E-02  0.19486411829E-01  0.00000000000E+00 0. -1.
     999901    1    3    3    0    0 -0.25085735304E-01  0.10124105105E+00 -0.53041419216E-01  0.88774570497E+00  0.88000000000E+00 0.  1.
        -11    1    4    4    0    0  0.11618980062E-01 -0.52780509170E-01  0.37045152119E-01  0.65523944191E-01  0.51100000000E-03 0.  1.
         11    1    4    4    0    0  0.10843670485E-01 -0.66759760555E-01  0.22158918176E-01  0.71173939013E-01  0.51100000000E-03 0. -1.
</event>
<event>
 8    1  0.1150307E+005  0.1043930E+01  0.7957747E-01            NaN
         13   -1    0    0    0    0  0.00000000000E+00  0.00000000000E+00  0.74505805969E-08  0.10566000000E+00  0.10566000000E+00 0.  1.
     999900   -1    0    0    0    0 -0.00000000000E+00 -0.00000000000E+00 -0.74505805969E-08  0.93827000000E+00  0.93827000000E+00 0.  1.
     999902    2    1    2    0    0  0.20779571932E-01 -0.52696005266E-02 -0.17000025175E-01  0.10165701726E+01  0.10162019266E+01 0.  0.
     999903    2    3    3    0    0  0.21892381297E-01  0.11494615182E+00  0.42672122606E-01  0.12639388069E+00  0.21508343776E-01 0.  0.
         14    1    1    2    0    0 -0.20779571932E-01  0.52696005266E-02  0.17000025175E-01  0.27359827400E-01  0.00000000000E+00 0.  1.
     999901    1    3    3    0    0 -0.11128093650E-02 -0.12021575234E+00 -0.59672147781E-01  0.89017629191E+00  0.88000000000E+00 0.  1.
        -11    1    4    4    0    0 -0.42015754811E-02  0.22087133449E-01  0.91221893072E-02  0.24268707408E-01  0.51100000000E-03 0. -1.
         11    1    4    4    0    0  0.26093956778E-01  0.92859018368E-01  0.33549933299E-01  0.10212517328E+00  0.51100000000E-03 0.  1.
</event>
<event>
 8    1  0.1150307E+005  0.1043930E+01  0.7957747E-01            NaN
         13   -1    0    0    0    0  0.00000000000E+00  0.00000000000E+00  0.74505805969E-08  0.10566000000E+00  0.10566000000E+00 0. -1.
     999900   -1    0    0    0    0 -0.00000000000E+00 -0.00000000000E+00 -0.74505805969E-08  0.93827000000E+00  0.93827000000E+00 0. -1.
     999902    2    1    2    0    0 -0.15795291300E-01 -0.27792845433E-02  0.19232712671E-01  0.10188877779E+01  0.10185799876E+01 0.  0.
     999903    2    3    3    0    0 -0.87368662207E-01  0.90059670192E-01 -0.26206214112E-01  0.12995217002E+00  0.21372260127E-01 0.  0.
         14    1    1    2    0    0  0.15795291300E-01  0.27792845433E-02 -0.19232712671E-01  0.25042222076E-01  0.00000000000E+00 0.  1.
     999901    1    3    3    0    0  0.71573370907E-01 -0.92838954735E-01  0.45438926782E-01  0.88893560791E+00  0.88000000000E+00 0. -1.
        -11    1    4    4    0    0 -0.60092688993E-01  0.72864536534E-01 -0.24908559733E-01  0.97678397938E-01  0.51100000000E-03 0.  1.
         11    1    4    4    0    0 -0.27275973214E-01  0.17195133658E-01 -0.12976543787E-02  0.32273772078E-01  0.51100000000E-03 0. -1.
</event>
<event>
 8    1  0.1150307E+005  0.1043930E+01  0.7957747E-01            NaN
         13   -1    0    0    0    0  0.00000000000E+00  0.00000000000E+00  0.74505805969E-08  0.10566000000E+00  0.10566000000E+00 0.  1.
     999900   -1    0    0    0    0 -0.00000000000E+00 -0.00000000000E+00 -0.74505805969E-08  0.93827000000E+00  0.93827000000E+00 0. -1.
     999902    2    1    2    0    0  0.18747951137E-01  0.14726190165E-01 -0.17733070738E-02  0.10200241228E+01  0.10197439483E+01 0.  0.
     999903    2    3    3    0    0 -0.10636152468E+00 -0.60151815654E-01 -0.31224479915E-01  0.12754080736E+00  0.18991433217E-01 0.  0.
         14    1    1    2    0    0 -0.18747951137E-01 -0.14726190165E-01  0.17733070738E-02  0.23905877239E-01  0.00000000000E+00 0. -1.
     999901    1    3    3    0    0  0.12510947582E+00  0.74878005819E-01  0.29451172841E-01  0.89248331541E+00  0.88000000000E+00 0.  1.
        -11    1    4    4    0    0 -0.68099067990E-01 -0.27862942199E-01 -0.19402158671E-01  0.76095541862E-01  0.51100000000E-03 0. -1.
         11    1    4    4    0    0 -0.38262456692E-01 -0.32288873455E-01 -0.11822321243E-01  0.51445265493E-01  0.51100000000E-03 0.  1.
</event>
<event>
 8    1  0.1150307E+005  0.1043930E+01  0.7957747E-01            NaN
         13   -1    0    0    0    0  0.00000000000E+00  0.00000000000E+00  0.74505805969E-08  0.10566000000E+00  0.10566000000E+00 0.  1.
     999900   -1    0    0    0    0 -0.00000000000E+00 -0.00000000000E+00 -0.74505805969E-08  0.93827000000E+00  0.93827000000E+00 0.  1.
     999902    2    1    2    0    0 -0.14988737184E-01 -0.10997751302E-01 -0.14415867920E-01  0.10204049065E+01  0.10201336889E+01 0.  0.
     999903    2    3    3    0    0 -0.99034846278E-01  0.82198008340E-01 -0.18287383060E-01  0.13149310734E+00  0.19788773223E-01 0.  0.
         14    1    1    2    0    0  0.14988737184E-01  0.10997751302E-01  0.14415867920E-01  0.23525093496E-01  0.00000000000E+00 0.  1.
     999901    1    3    3    0    0  0.84046109093E-01 -0.93195759642E-01  0.38715151400E-02  0.88891179917E+00  0.88000000000E+00 0. -1.
        -11    1    4    4    0    0 -0.25243220800E-01  0.29076754005E-01  0.10984114804E-02  0.38524608350E-01  0.51100000000E-03 0.  1.
         11    1    4    4    0    0 -0.73791625478E-01  0.53121254336E-01 -0.19385794541E-01  0.92968498987E-01  0.51100000000E-03 0. -1.
</event>
<event>
 8    1  0.1150307E+005  0.1043930E+01  0.7957747E-01            NaN
         13   -1    0    0    0    0  0.00000000000E+00  0.00000000000E+00  0.74505805969E-08  0.10566000000E+00  0.10566000000E+00 0. -1.
     999900   -1    0    0    0    0 -0.00000000000E+00 -0.00000000000E+00 -0.74505805969E-08  0.93827000000E+00  0.93827000000E+00 0. -1.
     999902    2    1    2    0    0  0.21126129314E-01 -0.11014865083E-01  0.93120678986E-03  0.10200865997E+01  0.10198079050E+01 0.  0.
     999903    2    3    3    0    0 -0.11031966077E+00 -0.44731404950E-01 -0.44221468216E-01  0.12854099521E+00  0.19897815431E-01 0.  0.
         14    1    1    2    0    0 -0.21126129314E-01  0.11014865083E-01 -0.93120678986E-03  0.23843400317E-01  0.00000000000E+00 0. -1.
     999901    1    3    3    0    0  0.13144579008E+00  0.33716539867E-01  0.45152675006E-01  0.89154560447E+00  0.88000000000E+00 0.  1.
        -11    1    4    4    0    0 -0.16167401792E-01 -0.10851387035E-01 -0.89144078123E-03  0.19498545303E-01  0.51100000000E-03 0.  1.
         11    1    4    4    0    0 -0.94152258974E-01 -0.33880017915E-01 -0.43330027435E-01  0.10904244991E+00  0.51100000000E-03 0. -1.
</event>
<event>
 8    1  0.1150307E+005  0.1043930E+01  0.7957747E-01            NaN
         13   -1    0    0    0    0  0.00000000000E+00  0.00000000000E+00  0.74505805969E-08  0.10566000000E+00  0.10566000000E+00 0. -1.
     999900   -1    0    0    0    0 -0.00000000000E+00 -0.00000000000E+00 -0.74505805969E-08  0.93827000000E+00  0.93827000000E+00 0.  1.
     999902    2    1    2    0    0 -0.20684548395E-01  0.39750867834E-02 -0.13744585335E-01  0.10187791455E+01  0.10184686455E+01 0.  0.
     999903    2    3    3    0    0  0.11669342656E+00 -0.14751685018E-01  0.41123510003E-01  0.12623564073E+00  0.20231804178E-01 0.  0.
         14    1    1    2    0    0  0.20684548395E-01 -0.39750867834E-02  0.13744585335E-01  0.25150854524E-01  0.00000000000E+00 0. -1.
     999901    1    3    3    0    0 -0.13737797496E+00  0.18726771801E-01 -0.54868095338E-01  0.89254350475E+00  0.88000000000E+00 0.  1.
        -11    1    4    4    0    0  0.11147344995E+00 -0.18333499473E-01  0.38334261005E-01  0.11929888488E+00  0.51100000000E-03 0.  1.
         11    1    4    4    0    0  0.52199766170E-02  0.35818144553E-02  0.27892489985E-02  0.69367558448E-02  0.51100000000E-03 0. -1.
</event>
<event>
 8    1  0.1150307E+005  0.1043930E+01  0.7957747E-01            NaN
         13   -1    0    0    0    0  0.00000000000E+00  0.00000000000E+00  0.74505805969E-08  0.10566000000E+00  0.10566000000E+00 0. -1.
     999900   -1    0    0    0    0 -0.00000000000E+00 -0.00000000000E+00 -0.74505805969E-08  0.93827000000E+00  0.93827000000E+00 0. -1.
     999902    2    1    2    0    0 -0.45153001344E-02  0.17335397783E-03  0.22641138296E-01  0.10208423598E+01  0.10205812483E+01 0.  0.
     999903    2    3    3    0    0 -0.64505078834E-01  0.10935624360E+00 -0.25390437651E-01  0.13077117769E+00  0.18350296457E-01 0.  0.
         14    1    1    2    0    0  0.45153001344E-02 -0.17335397783E-03 -0.22641138296E-01  0.23087640205E-01  0.00000000000E+00 0.  1.
     999901    1    3    3    0    0  0.59989778700E-01 -0.10918288962E+00  0.48031575946E-01  0.89007118211E+00  0.88000000000E+00 0.  1.
        -11    1    4    4    0    0 -0.52221885286E-01  0.99282373023E-01 -0.24670521228E-01  0.11486083159E+00  0.51100000000E-03 0. -1.
         11    1    4    4    0    0 -0.12283193548E-01  0.10073870575E-01 -0.71991642313E-03  0.15910346092E-01  0.51100000000E-03 0.  1.
</event>
<event>
 8    1  0.1150307E+005  0.1043930E+01  0.7957747E-01            NaN
         13   -1    0    0    0    0  0.00000000000E+00  0.00000000000E+00  0.74505805969E-08  0.10566000000E+00  0.10566000000E+00 0. -1.
     999900   -1    0    0    0    0 -0.00000000000E+00 -0.00000000000E+00 -0.74505805969E-08  0.93827000000E+00  0.93827000000E+00 0.  1.
     999902    2    1    2    0    0 -0.10301620670E-01  0.21450080007E-01 -0.23790408448E-02  0.10200157959E+01  0.10197354239E+01 0.  0.
     999903    2    3    3    0    0  0.35714722416E-01  0.46440472619E-01  0.11510753497E+00  0.13066484212E+00  0.19781240221E-01 0.  0.
         14    1    1    2    0    0  0.10301620670E-01 -0.21450080007E-01  0.23790408448E-02  0.23914204066E-01  0.00000000000E+00 0.  1.
     999901    1    3    3    0    0 -0.46016343087E-01 -0.24990392612E-01 -0.11748657582E+00  0.88935095381E+00  0.88000000000E+00 0.  1.
        -11    1    4    4    0    0  0.29734838396E-01  0.46973323234E-01  0.10028948240E+00  0.11466863177E+00  0.51100000000E-03 0.  1.
         11    1    4    4    0    0  0.59798840199E-02 -0.53285061499E-03  0.14818052568E-01  0.15996210351E-01  0.51100000000E-03 0. -1.
</event>
<event>
 8    1  0.1150307E+005  0.1043930E+01  0.7957747E-01            NaN
         13   -1    0    0    0    0  0.00000000000E+00  0.00000000000E+00  0.74505805969E-08  0.10566000000E+00  0.10566000000E+00 0.  1.
     999900   -1    0    0    0    0 -0.00000000000E+00 -0.00000000000E+00 -0.74505805969E-08  0.93827000000E+00  0.93827000000E+00 0.  1.
     999902    2    1    2    0    0  0.19628799381E-01  0.58204242785E-02  0.51815769978E-02  0.10228109128E+01  0.10225928552E+01 0.  0.
     999903    2    3    3    0    0 -0.41478580857E-01  0.88752398849E-01 -0.86229106643E-01  0.13209898552E+00  0.20426017002E-01 0.  0.
         14    1    1    2    0    0 -0.19628799381E-01 -0.58204242785E-02 -0.51815769978E-02  0.21119087198E-01  0.00000000000E+00 0.  1.
     999901    1    3    3    0    0  0.61107380238E-01 -0.82931974570E-01  0.91410683641E-01  0.89071192729E+00  0.88000000000E+00 0. -1.
        -11    1    4    4    0    0 -0.23648547081E-01  0.31161002468E-01 -0.41462318563E-01  0.57005673713E-01  0.51100000000E-03 0.  1.
         11    1    4    4    0    0 -0.17830033776E-01  0.57591396380E-01 -0.44766788080E-01  0.75093311803E-01  0.51100000000E-03 0. -1.
</event>
<event>
 8    1  0.1150307E+005  0.1043930E+01  0.7957747E-01            NaN
         13   -1    0    0    0    0  0.00000000000E+00  0.00000000000E+00  0.74505805969E-08  0.10566000000E+00  0.10566000000E+00 0. -1.
     999900   -1    0    0    0    0 -0.00000000000E+00 -0.00000000000E+00 -0.74505805969E-08  0.93827000000E+00  0.93827000000E+00 0. -1.
     999902    2    1    2    0    0 -0.11552729102E-01  0.13495459993E-01 -0.27385293556E-03  0.10261629523E+01  0.10260091309E+01 0.  0.
     999903    2    3    3    0    0 -0.83824202859E-01 -0.73238232536E-01  0.74949962073E-01  0.13576724153E+00  0.20613378358E-01 0.  0.
         14    1    1    2    0    0  0.11552729102E-01 -0.13495459993E-01  0.27385293556E-03  0.17767047745E-01  0.00000000000E+00 0.  1.
     999901    1    3    3    0    0  0.72271473757E-01  0.86733692529E-01 -0.75223815008E-01  0.89039571073E+00  0.88000000000E+00 0.  1.
        -11    1    4    4    0    0 -0.65474145894E-01 -0.60103864272E-01  0.49441184750E-01  0.10170560531E+00  0.51100000000E-03 0. -1.
         11    1    4    4    0    0 -0.18350056965E-01 -0.13134368264E-01  0.25508777322E-01  0.34061636217E-01  0.51100000000E-03 0.  1.
</event>
<event>
 8    1  0.1150307E+005  0.1043930E+01  0.7957747E-01            NaN
         13   -1    0    0    0    0  0.00000000000E+00  0.00000000000E+00  0.74505805969E-08  0.10566000000E+00  0.10566000000E+00 0.  1.
     999900   -1    0    0    0    0 -0.00000000000E+00 -0.00000000000E+00 -0.74505805969E-08  0.93827000000E+00  0.93827000000E+00 0. -1.
     999902    2    1    2    0    0 -0.38863263370E-02 -0.23147435377E-01 -0.11301102018E-02  0.10204313948E+01  0.10201607947E+01 0.  0.
     999903    2    3    3    0    0  0.15911132629E-01 -0.83584900051E-01  0.99938589272E-01  0.13236635860E+00  0.17132764093E-01 0.  0.
         14    1    1    2    0    0  0.38863263370E-02  0.23147435377E-01  0.11301102018E-02  0.23498605193E-01  0.00000000000E+00 0. -1.
     999901    1    3    3    0    0 -0.19797458966E-01  0.60437464674E-01 -0.10106869947E+00  0.88806503621E+00  0.88000000000E+00 0. -1.
        -11    1    4    4    0    0  0.13858536905E-01 -0.75090286059E-01  0.96263964577E-01  0.12287238137E+00  0.51100000000E-03 0. -1.
         11    1    4    4    0    0  0.20525957243E-02 -0.84946139920E-02  0.36746246953E-02  0.94939772346E-02  0.51100000000E-03 0.  1.
</event>
<event>
 8    1  0.1150307E+005  0.1043930E+01  0.7957747E-01            NaN
         13   -1    0    0    0    0  0.00000000000E+00  0.00000000000E+00  0.74505805969E-08  0.10566000000E+00  0.10566000000E+00 0.  1.
     999900   -1    0    0    0    0 -0.00000000000E+00 -0.00000000000E+00 -0.74505805969E-08  0.93827000000E+00  0.93827000000E+00 0.  1.
     999902    2    1    2    0    0 -0.78120613066E-02  0.36739351975E-03 -0.21010784622E-01  0.10215108932E+01  0.10212648474E+01 0.  0.
     999903    2    3    3    0    0 -0.87193284454E-01  0.17724887020E-01  0.93250427555E-01  0.13041141177E+00  0.19865890556E-01 0.  0.
         14    1    1    2    0    0  0.78120613066E-02 -0.36739351975E-03  0.21010784622E-01  0.22419106813E-01  0.00000000000E+00 0.  1.
     999901    1    3    3    0    0  0.79381223147E-01 -0.17357493500E-01 -0.11426121218E+00  0.89109948141E+00  0.88000000000E+00 0.  1.
        -11    1    4    4    0    0 -0.46257375413E-01  0.24653485641E-02  0.58280338338E-01  0.74449188588E-01  0.51100000000E-03 0.  1.
         11    1    4    4    0    0 -0.40935909041E-01  0.15259538456E-01  0.34970089217E-01  0.55962223185E-01  0.51100000000E-03 0. -1.
</event>
<event>
 8    1  0.1150307E+005  0.1043930E+01  0.7957747E-01            NaN
         13   -1    0    0    0    0  0.00000000000E+00  0.00000000000E+00  0.74505805969E-08  0.10566000000E+00  0.10566000000E+00 0.  1.
     999900   -1    0    0    0    0 -0.00000000000E+00 -0.00000000000E+00 -0.74505805969E-08  0.93827000000E+00  0.93827000000E+00 0. -1.
     999902    2    1    2    0    0  0.18388122438E-01  0.17838027914E-02 -0.14318377010E-01  0.10205564911E+01  0.10202887976E+01 0.  0.
     999903    2    3    3    0    0 -0.38232471107E-01 -0.19372047785E-01 -0.12316871375E+00  0.13179226057E+00  0.19017618569E-01 0.  0.
         14    1    1    2    0    0 -0.18388122438E-01 -0.17838027914E-02  0.14318377010E-01  0.23373508924E-01  0.00000000000E+00 0. -1.
     999901    1    3    3    0    0  0.56620593545E-01  0.21155850576E-01  0.10885033674E+00  0.88876423051E+00  0.88000000000E+00 0.  1.
        -11    1    4    4    0    0 -0.26659613427E-01 -0.10275305236E-01 -0.10252412964E+00  0.10643202133E+00  0.51100000000E-03 0.  1.
         11    1    4    4    0    0 -0.11572857680E-01 -0.90967425490E-02 -0.20644584114E-01  0.25360239236E-01  0.51100000000E-03 0. -1.
</event>
<event>
 7    1  0.1150307E+005  0.1043930E+01  0.7957747E-01            NaN
         13   -1    0    0    0    0  0.00000000000E+00  0.00000000000E+00  0.74505805969E-08  0.10566000000E+00  0.10566000000E+00 0. -1.
     999900   -1    0    0    0    0 -0.00000000000E+00 -0.00000000000E+00 -0.74505805969E-08  0.93827000000E+00  0.93827000000E+00 0.  1.
     999903    2    1    2    0    0 -0.62405188922E-01 -0.25324368633E-02 -0.87741338849E-01  0.10942332723E+00  0.19341694816E-01 0.  0.
         14    1    1    2    0    0  0.33181295405E-02  0.34653643925E-01 -0.27613028918E-01  0.44433820306E-01  0.00000000000E+00 0. -1.
     999901    1    1    2    0    0  0.59087059381E-01 -0.32121207062E-01  0.11535436777E+00  0.89007285246E+00  0.88000000000E+00 0. -1.
        -11    1    3    3    0    0 -0.35738953879E-01 -0.17507909526E-02 -0.33709726956E-01  0.49162433888E-01  0.51100000000E-03 0. -1.
         11    1    3    3    0    0 -0.26666235042E-01 -0.78164591064E-03 -0.54031611893E-01  0.60260893342E-01  0.51100000000E-03 0.  1.
</event>
<event>
 8    1  0.1150307E+005  0.1043930E+01  0.7957747E-01            NaN
         13   -1    0    0    0    0  0.00000000000E+00  0.00000000000E+00  0.74505805969E-08  0.10566000000E+00  0.10566000000E+00 0.  1.
     999900   -1    0    0    0    0 -0.00000000000E+00 -0.00000000000E+00 -0.74505805969E-08  0.93827000000E+00  0.93827000000E+00 0.  1.
     999902    2    1    2    0    0  0.27770285496E-01  0.15953826986E-02  0.88914982680E-02  0.10147273846E+01  0.10143070898E+01 0.  0.
     999903    2    3    3    0    0 -0.97067949308E-01  0.74774638874E-04  0.74108495746E-01  0.12352586204E+00  0.18557399536E-01 0.  0.
         14    1    1    2    0    0 -0.27770285496E-01 -0.15953826986E-02 -0.88914982680E-02  0.29202615361E-01  0.00000000000E+00 0.  1.
     999901    1    3    3    0    0  0.12483823480E+00  0.15206080598E-02 -0.65216997478E-01  0.89120152260E+00  0.88000000000E+00 0.  1.
        -11    1    4    4    0    0 -0.48881182252E-01 -0.78655106822E-02  0.43347871593E-01  0.65806803062E-01  0.51100000000E-03 0. -1.
         11    1    4    4    0    0 -0.48186767057E-01  0.79402853211E-02  0.30760624153E-01  0.57719058981E-01  0.51100000000E-03 0.  1.
</event>
<event>
 8    1  0.1150307E+005  0.1043930E+01  0.7957747E-01            NaN
         13   -1    0    0    0    0  0.00000000000E+00  0.00000000000E+00  0.74505805969E-08  0.10566000000E+00  0.10566000000E+00 0.  1.
     999900   -1    0    0    0    0 -0.00000000000E+00 -0.00000000000E+00 -0.74505805969E-08  0.93827000000E+00  0.93827000000E+00 0.  1.
     999902    2    1    2    0    0  0.23391505563E-01  0.44449676197E-02  0.25397025721E-02  0.10199848469E+01  0.10197037400E+01 0.  0.
     999903    2    3    3    0    0 -0.35922243268E-01  0.73356413674E-01 -0.97938474728E-01  0.12961258072E+00  0.23149627665E-01 0.  0.
         14    1    1    2    0    0 -0.23391505563E-01 -0.44449676197E-02 -0.25397025721E-02  0.23945153138E-01  0.00000000000E+00 0.  1.
     999901    1    3    3    0    0  0.59313748831E-01 -0.68911446054E-01  0.10047817730E+00  0.89037226614E+00  0.88000000000E+00 0. -1.
        -11    1    4    4    0    0 -0.24781107785E-01  0.60626915666E-01 -0.88909907378E-01  0.11043078809E+00  0.51100000000E-03 0.  1.
         11    1    4    4    0    0 -0.11141135483E-01  0.12729498008E-01 -0.90285673500E-02  0.19181792637E-01  0.51100000000E-03 0. -1.
</event>
<event>
 8    1  0.1150307E+005  0.1043930E+01  0.7957747E-01            NaN
         13   -1    0    0    0    0  0.00000000000E+00  0.00000000000E+00  0.74505805969E-08  0.10566000000E+00  0.10566000000E+00 0.  1.
     999900   -1    0    0    0    0 -0.00000000000E+00 -0.00000000000E+00 -0.74505805969E-08  0.93827000000E+00  0.93827000000E+00 0. -1.
     999902    2    1    2    0    0 -0.18351663990E-01  0.59297603529E-02  0.18388696388E-01  0.10172824901E+01  0.10169334171E+01 0.  0.
     999903    2    3    3    0    0  0.51661852904E-01 -0.89808216172E-01  0.71898737954E-01  0.12771463027E+00  0.20177599648E-01 0.  0.
         14    1    1    2    0    0  0.18351663990E-01 -0.59297603529E-02 -0.18388696388E-01  0.26647509901E-01  0.00000000000E+00 0.  1.
     999901    1    3    3    0    0 -0.70013516893E-01  0.95737976525E-01 -0.53510041566E-01  0.88956785983E+00  0.88000000000E+00 0.  1.
        -11    1    4    4    0    0  0.18539885731E-01 -0.16418672375E-01  0.20845111962E-01  0.32374063372E-01  0.51100000000E-03 0.  1.
         11    1    4    4    0    0  0.33121967172E-01 -0.73389543797E-01  0.51053625992E-01  0.95340566896E-01  0.51100000000E-03 0. -1.
</event>
<event>
 8    1  0.1150307E+005  0.1043930E+01  0.7957747E-01            NaN
         13   -1    0    0    0    0  0.00000000000E+00  0.00000000000E+00  0.74505805969E-08  0.10566000000E+00  0.10566000000E+00 0. -1.
     999900   -1    0    0    0    0 -0.00000000000E+00 -0.00000000000E+00 -0.74505805969E-08  0.93827000000E+00  0.93827000000E+00 0.  1.
     999902    2    1    2    0    0  0.23945591522E-01  0.13157472619E-02  0.60542920182E-02  0.10191958739E+01  0.10188957024E+01 0.  0.
     999903    2    3    3    0    0 -0.11846681884E+00 -0.23797199788E-01 -0.31795899089E-01  0.12659036653E+00  0.20333416248E-01 0.  0.
         14    1    1    2    0    0 -0.23945591522E-01 -0.13157472619E-02 -0.60542920182E-02  0.24734126143E-01  0.00000000000E+00 0.  1.
     999901    1    3    3    0    0  0.14241241036E+00  0.25112947050E-01  0.37850191107E-01  0.89260550732E+00  0.88000000000E+00 0. -1.
        -11    1    4    4    0    0 -0.55277661339E-01 -0.12387065049E-01 -0.45410296197E-02  0.56832572480E-01  0.51100000000E-03 0.  1.
         11    1    4    4    0    0 -0.63189157502E-01 -0.11410134740E-01 -0.27254869470E-01  0.69757794055E-01  0.51100000000E-03 0. -1.
</event>
<event>
 8    1  0.1150307E+005  0.1043930E+01  0.7957747E-01            NaN
         13   -1    0    0    0    0  0.00000000000E+00  0.00000000000E+00  0.74505805969E-08  0.10566000000E+00  0.10566000000E+00 0.  1.
     999900   -1    0    0    0    0 -0.00000000000E+00 -0.00000000000E+00 -0.74505805969E-08  0.93827000000E+00  0.93827000000E+00 0.  1.
     999902    2    1    2    0    0 -0.16525587864E-01 -0.16442258128E-01  0.45799491086E-02  0.10201724993E+01  0.10198958326E+01 0.  0.
     999903    2    3    3    0    0  0.24506582896E-01  0.92545306567E-02  0.12604469846E+00  0.13051096289E+00  0.21438901158E-01 0.  0.
         14    1    1    2    0    0  0.16525587864E-01  0.16442258128E-01 -0.45799491086E-02  0.23757500720E-01  0.00000000000E+00 0. -1.
     999901    1    3    3    0    0 -0.41032170760E-01 -0.25696788785E-01 -0.12146474935E+00  0.88966153639E+00  0.88000000000E+00 0.  1.
        -11    1    4    4    0    0  0.16203433458E-01 -0.27067252976E-02  0.92350092234E-01  0.93801270110E-01  0.51100000000E-03 0. -1.
         11    1    4    4    0    0  0.83031494381E-02  0.11961255954E-01  0.33694606225E-01  0.36709692784E-01  0.51100000000E-03 0.  1.
</event>
<event>
 8    1  0.1150307E+005  0.1043930E+01  0.7957747E-01            NaN
         13   -1    0    0    0    0  0.00000000000E+00  0.00000000000E+00  0.74505805969E-08  0.10566000000E+00  0.10566000000E+00 0. -1.
     999900   -1    0    0    0    0 -0.00000000000E+00 -0.00000000000E+00 -0.74505805969E-08  0.93827000000E+00  0.93827000000E+00 0.  1.
     999902    2    1    2    0    0  0.47872953826E-02  0.54322803951E-02 -0.20819044740E-01  0.10218877567E+01  0.10216500021E+01 0.  0.
     999903    2    3    3    0    0  0.11802584567E+00 -0.95393525518E-02 -0.58326343333E-01  0.13371327127E+00  0.21358302677E-01 0.  0.
         14    1    1    2    0    0 -0.47872953826E-02 -0.54322803951E-02  0.20819044740E-01  0.22042243335E-01  0.00000000000E+00 0. -1.
     999901    1    3    3    0    0 -0.11323855029E+00  0.14971632947E-01  0.37507298594E-01  0.88817448540E+00  0.88000000000E+00 0.  1.
        -11    1    4    4    0    0  0.29696928928E-01 -0.11200836393E-01 -0.11805487026E-01  0.33867343690E-01  0.51100000000E-03 0. -1.
         11    1    4    4    0    0  0.88328916741E-01  0.16614838416E-02 -0.46520856307E-01  0.99845927577E-01  0.51100000000E-03 0.  1.
</event>
<event>
 8    1  0.1150307E+005  0.1043930E+01  0.7957747E-01            NaN
         13   -1    0    0    0    0  0.00000000000E+00  0.00000000000E+00  0.74505805969E-08  0.10566000000E+00  0.10566000000E+00 0. -1.
     999900   -1    0    0    0    0 -0.00000000000E+00 -0.00000000000E+00 -0.74505805969E-08  0.93827000000E+00  0.93827000000E+00 0. -1.
     999902    2    1    2    0    0 -0.16802820690E-01  0.15894762635E-01  0.26115663603E-02  0.10206534336E+01  0.10203879816E+01 0.  0.
     999903    2    3    3    0    0  0.53097359808E-01  0.34107317797E-01 -0.11219949806E+00  0.13026064790E+00  0.19911561477E-01 0.  0.
         14    1    1    2    0    0  0.16802820690E-01 -0.15894762635E-01 -0.26115663603E-02  0.23276566354E-01  0.00000000000E+00 0. -1.
     999901    1    3    3    0    0 -0.69900180498E-01 -0.18212555162E-01  0.11481106442E+00  0.89039278575E+00  0.88000000000E+00 0.  1.
        -11    1    4    4    0    0  0.29155703537E-01  0.16478611208E-01 -0.78325045239E-01  0.85186111008E-01  0.51100000000E-03 0.  1.
         11    1    4    4    0    0  0.23941656271E-01  0.17628706590E-01 -0.33874452819E-01  0.45074536889E-01  0.51100000000E-03 0. -1.
</event>
<event>
 8    1  0.1150307E+005  0.1043930E+01  0.7957747E-01            NaN
         13   -1    0    0    0    0  0.00000000000E+00  0.00000000000E+00  0.74505805969E-08  0.10566000000E+00  0.10566000000E+00 0.  1.
     999900   -1    0    0    0    0 -0.00000000000E+00 -0.00000000000E+00 -0.74505805969E-08  0.93827000000E+00  0.93827000000E+00 0.  1.
     999902    2    1    2    0    0 -0.21843725131E-01 -0.50531376663E-02 -0.35969506256E-02  0.10212227196E+01  0.10209702359E+01 0.  0.
     999903    2    3    3    0    0  0.24924449501E-01 -0.27928252416E-01 -0.12431718582E+00  0.13145650977E+00  0.20611545374E-01 0.  0.
         14    1    1    2    0    0  0.21843725131E-01  0.50531376663E-02  0.35969506256E-02  0.22707280368E-01  0.00000000000E+00 0.  1.
     999901    1    3    3    0    0 -0.46768174633E-01  0.22875114750E-01  0.12072023520E+00  0.88976620987E+00  0.88000000000E+00 0. -1.
        -11    1    4    4    0    0  0.16379929681E-01 -0.25514080752E-01 -0.11335175865E+00  0.11733777194E+00  0.51100000000E-03 0. -1.
         11    1    4    4    0    0  0.85445198203E-02 -0.24141716637E-02 -0.10965427173E-01  0.14118737828E-01  0.51100000000E-03 0.  1.
</event>
<event>
 8    1  0.1150307E+005  0.1043930E+01  0.7957747E-01            NaN
         13   -1    0    0    0    0  0.00000000000E+00  0.00000000000E+00  0.74505805969E-08  0.10566000000E+00  0.10566000000E+00 0. -1.
     999900   -1    0    0    0    0 -0.00000000000E+00 -0.00000000000E+00 -0.74505805969E-08  0.93827000000E+00  0.93827000000E+00 0.  1.
     999902    2    1    2    0    0 -0.15526871334E-01  0.86049515254E-02  0.15729989069E-01  0.10202116215E+01  0.10199358760E+01 0.  0.
     999903    2    3    3    0    0  0.58750174768E-01 -0.11257032450E+00 -0.54443088670E-02  0.12855648746E+00  0.19325345439E-01 0.  0.
         14    1    1    2    0    0  0.15526871334E-01 -0.86049515254E-02 -0.15729989069E-01  0.23718378534E-01  0.00000000000E+00 0. -1.
     999901    1    3    3    0    0 -0.74277046101E-01  0.12117527603E+00  0.21174297936E-01  0.89165513400E+00  0.88000000000E+00 0. -1.
        -11    1    4    4    0    0  0.31127755296E-01 -0.40907056712E-01 -0.59611304351E-02  0.51750561694E-01  0.51100000000E-03 0.  1.
         11    1    4    4    0    0  0.27622419472E-01 -0.71663267791E-01  0.51682156804E-03  0.76805925771E-01  0.51100000000E-03 0. -1.
</event>
<event>
 8    1  0.1150307E+005  0.1043930E+01  0.7957747E-01            NaN
         13   -1    0    0    0    0  0.00000000000E+00  0.00000000000E+00  0.74505805969E-08  0.10566000000E+00  0.10566000000E+00 0. -1.
     999900   -1    0    0    0    0 -0.00000000000E+00 -0.00000000000E+00 -0.74505805969E-08  0.93827000000E+00  0.93827000000E+00 0.  1.
     999902    2    1    2    0    0  0.17268471121E-01 -0.14378713525E-01  0.47673266319E-02  0.10209588246E+01  0.10207003706E+01 0.  0.
     999903    2    3    3    0    0  0.88024526725E-01  0.38749390316E-01 -0.87744580367E-01  0.13169650795E+00  0.19875267725E-01 0.  0.
         14    1    1    2    0    0 -0.17268471121E-01  0.14378713525E-01 -0.47673266319E-02  0.22971175432E-01  0.00000000000E+00 0. -1.
     999901    1    3    3    0    0 -0.70756055604E-01 -0.53128103841E-01  0.92511906999E-01  0.88926231662E+00  0.88000000000E+00 0.  1.
        -11    1    4    4    0    0  0.43405319097E-01  0.83249243044E-02 -0.39118068395E-01  0.59023812877E-01  0.51100000000E-03 0.  1.
         11    1    4    4    0    0  0.44619207628E-01  0.30424466011E-01 -0.48626511972E-01  0.72672695072E-01  0.51100000000E-03 0. -1.
</event>
<event>
 8    1  0.1150307E+005  0.1043930E+01  0.7957747E-01            NaN
         13   -1    0    0    0    0  0.00000000000E+00  0.00000000000E+00  0.74505805969E-08  0.10566000000E+00  0.10566000000E+00 0.  1.
     999900   -1    0    0    0    0 -0.00000000000E+00 -0.00000000000E+00 -0.74505805969E-08  0.93827000000E+00  0.93827000000E+00 0.  1.
     999902    2    1    2    0    0  0.91153577166E-02 -0.25940103585E-01 -0.98558703393E-02  0.10147218350E+01  0.10143013781E+01 0.  0.
     999903    2    3    3    0    0 -0.77666206709E-01  0.62741415943E-01 -0.70722038025E-01  0.12393558559E+00  0.19745829302E-01 0.  0.
         14    1    1    2    0    0 -0.91153577166E-02  0.25940103585E-01  0.98558703393E-02  0.29208164962E-01  0.00000000000E+00 0. -1.
     999901    1    3    3    0    0  0.86781564425E-01 -0.88681519529E-01  0.60866167686E-01  0.89078624944E+00  0.88000000000E+00 0. -1.
        -11    1    4    4    0    0 -0.28904439929E-01  0.23619239118E-01 -0.15146679603E-01  0.40286699146E-01  0.51100000000E-03 0.  1.
         11    1    4    4    0    0 -0.48761766780E-01  0.39122176825E-01 -0.55575358423E-01  0.83648886447E-01  0.51100000000E-03 0. -1.
</event>
<event>
 8    1  0.1150307E+005  0.1043930E+01  0.7957747E-01            NaN
         13   -1    0    0    0    0  0.00000000000E+00  0.00000000000E+00  0.74505805969E-08  0.10566000000E+00  0.10566000000E+00 0.  1.
     999900   -1    0    0    0    0 -0.00000000000E+00 -0.00000000000E+00 -0.74505805969E-08  0.93827000000E+00  0.93827000000E+00 0.  1.
     999902    2    1    2    0    0 -0.44720221375E-02  0.21443470362E-01  0.84152429484E-02  0.10204643290E+01  0.10201944957E+01 0.  0.
     999903    2    3    3    0    0 -0.39707902200E-01  0.43501168291E-01 -0.11507114328E+00  0.13087060323E+00  0.20412683204E-01 0.  0.
         14    1    1    2    0    0  0.44720221375E-02 -0.21443470362E-01 -0.84152429484E-02  0.23465671034E-01  0.00000000000E+00 0. -1.
     999901    1    3    3    0    0  0.35235880063E-01 -0.22057697929E-01  0.12348638623E+00  0.88959372573E+00  0.88000000000E+00 0. -1.
        -11    1    4    4    0    0 -0.22563119628E-01  0.10068101872E-01 -0.48149854383E-01  0.54121443446E-01  0.51100000000E-03 0.  1.
         11    1    4    4    0    0 -0.17144782572E-01  0.33433066419E-01 -0.66921288894E-01  0.76749159786E-01  0.51100000000E-03 0. -1.
</event>
<event>
 8    1  0.1150307E+005  0.1043930E+01  0.7957747E-01            NaN
         13   -1    0    0    0    0  0.00000000000E+00  0.00000000000E+00  0.74505805969E-08  0.10566000000E+00  0.10566000000E+00 0. -1.
     999900   -1    0    0    0    0 -0.00000000000E+00 -0.00000000000E+00 -0.74505805969E-08  0.93827000000E+00  0.93827000000E+00 0.  1.
     999902    2    1    2    0    0 -0.61869242307E-03  0.23923156708E-01 -0.59276548056E-02  0.10192756434E+01  0.10189774286E+01 0.  0.
     999903    2    3    3    0    0 -0.96085818099E-01  0.67685006089E-01  0.51828040183E-01  0.13115133238E+00  0.26472282610E-01 0.  0.
         14    1    1    2    0    0  0.61869242307E-03 -0.23923156708E-01  0.59276548056E-02  0.24654356587E-01  0.00000000000E+00 0. -1.
     999901    1    3    3    0    0  0.95467125676E-01 -0.43761849380E-01 -0.57755694989E-01  0.88812431103E+00  0.88000000000E+00 0. -1.
        -11    1    4    4    0    0 -0.20935860431E-01  0.28373981103E-01  0.20149087701E-01  0.40615759402E-01  0.51100000000E-03 0. -1.
         11    1    4    4    0    0 -0.75149957668E-01  0.39311024986E-01  0.31678952483E-01  0.90535572978E-01  0.51100000000E-03 0.  1.
</event>
<event>
 8    1  0.1150307E+005  0.1043930E+01  0.7957747E-01            NaN
         13   -1    0    0    0    0  0.00000000000E+00  0.00000000000E+00  0.74505805969E-08  0.10566000000E+00  0.10566000000E+00 0. -1.
     999900   -1    0    0    0    0 -0.00000000000E+00 -0.00000000000E+00 -0.74505805969E-08  0.93827000000E+00  0.93827000000E+00 0. -1.
     999902    2    1    2    0    0 -0.91200618734E-02  0.78333411187E-02  0.31631247646E-01  0.10100910788E+01  0.10095241032E+01 0.  0.
     999903    2    3    3    0    0 -0.98105477643E-01  0.56749923676E-01  0.46495391196E-01  0.12412709586E+00  0.20011895046E-01 0.  0.
         14    1    1    2    0    0  0.91200618734E-02 -0.78333411187E-02 -0.31631247646E-01  0.33838921220E-01  0.00000000000E+00 0.  1.
     999901    1    3    3    0    0  0.88985415770E-01 -0.48916582557E-01 -0.14864143550E-01  0.88596398292E+00  0.88000000000E+00 0. -1.
        -11    1    4    4    0    0 -0.28135714511E-01  0.11583460304E-01  0.21199275933E-01  0.37087267421E-01  0.51100000000E-03 0. -1.
         11    1    4    4    0    0 -0.69969763132E-01  0.45166463372E-01  0.25296115263E-01  0.87039828439E-01  0.51100000000E-03 0.  1.
</event>
<event>
 8    1  0.1150307E+005  0.1043930E+01  0.7957747E-01            NaN
         13   -1    0    0    0    0  0.00000000000E+00  0.00000000000E+00  0.74505805969E-08  0.10566000000E+00  0.10566000000E+00 0.  1.
     999900   -1    0    0    0    0 -0.00000000000E+00 -0.00000000000E+00 -0.74505805969E-08  0.93827000000E+00  0.93827000000E+00 0.  1.
     999902    2    1    2    0    0 -0.14863345555E-02  0.18621017552E-01  0.14721502239E-01  0.10201460955E+01  0.10198688063E+01 0.  0.
     999903    2    3    3    0    0  0.80207007277E-01  0.84106309370E-01 -0.58001392389E-01  0.13096065649E+00  0.16718155917E-01 0.  0.
         14    1    1    2    0    0  0.14863345555E-02 -0.18621017552E-01 -0.14721502239E-01  0.23783904500E-01  0.00000000000E+00 0. -1.
     999901    1    3    3    0    0 -0.81693341832E-01 -0.65485291818E-01  0.72722894628E-01  0.88918543901E+00  0.88000000000E+00 0. -1.
        -11    1    4    4    0    0  0.66858432295E-01  0.62324589481E-01 -0.49998526617E-01  0.10418501911E+00  0.51100000000E-03 0.  1.
         11    1    4    4    0    0  0.13348574982E-01  0.21781719888E-01 -0.80028657714E-02  0.26775637376E-01  0.51100000000E-03 0. -1.
</event>
<event>
 8    1  0.1150307E+005  0.1043930E+01  0.7957747E-01            NaN
         13   -1    0    0    0    0  0.00000000000E+00  0.00000000000E+00  0.74505805969E-08  0.10566000000E+00  0.10566000000E+00 0.  1.
     999900   -1    0    0    0    0 -0.00000000000E+00 -0.00000000000E+00 -0.74505805969E-08  0.93827000000E+00  0.93827000000E+00 0.  1.
     999902    2    1    2    0    0 -0.11843577832E-01  0.29511957013E-02 -0.20085225800E-01  0.10204268898E+01  0.10201561848E+01 0.  0.
     999903    2    3    3    0    0  0.15976969173E-02  0.12951968675E+00  0.26966213762E-02  0.13097803613E+00  0.19237263063E-01 0.  0.
         14    1    1    2    0    0  0.11843577832E-01 -0.29511957013E-02  0.20085225800E-01  0.23503110164E-01  0.00000000000E+00 0.  1.
     999901    1    3    3    0    0 -0.13441274750E-01 -0.12656849105E+00 -0.22781847176E-01  0.88944885370E+00  0.88000000000E+00 0.  1.
        -11    1    4    4    0    0 -0.80994058408E-02  0.58343569893E-01  0.49003496710E-02  0.59108773213E-01  0.51100000000E-03 0.  1.
         11    1    4    4    0    0  0.96971027581E-02  0.71176116860E-01 -0.22037282949E-02  0.71869262919E-01  0.51100000000E-03 0. -1.
</event>
<event>
 8    1  0.1150307E+005  0.1043930E+01  0.7957747E-01            NaN
         13   -1    0    0    0    0  0.00000000000E+00  0.00000000000E+00  0.74505805969E-08  0.10566000000E+00  0.10566000000E+00 0. -1.
     999900   -1    0    0    0    0 -0.00000000000E+00 -0.00000000000E+00 -0.74505805969E-08  0.93827000000E+00  0.93827000000E+00 0. -1.
     999902    2    1    2    0    0  0.12060448728E-01 -0.15891940201E-01 -0.76753694414E-02  0.10225543250E+01  0.10223308799E+01 0.  0.
     999903    2    3    3    0    0  0.99237844193E-01  0.60223600179E-01 -0.62467858999E-01  0.13328738491E+00  0.19704360700E-01 0.  0.
         14    1    1    2    0    0 -0.12060448728E-01  0.15891940201E-01  0.76753694414E-02  0.21375675029E-01  0.00000000000E+00 0. -1.
     999901    1    3    3    0    0 -0.87177395465E-01 -0.76115540380E-01  0.54792489558E-01  0.88926694006E+00  0.88000000000E+00 0.  1.
        -11    1    4    4    0    0  0.31375363270E-01  0.11682914119E-01 -0.25191159621E-01  0.41901784529E-01  0.51100000000E-03 0.  1.
         11    1    4    4    0    0  0.67862480923E-01  0.48540686060E-01 -0.37276699378E-01  0.91385600385E-01  0.51100000000E-03 0. -1.
</event>
<event>
 8    1  0.1150307E+005  0.1043930E+01  0.7957747E-01            NaN
         13   -1    0    0    0    0  0.00000000000E+00  0.00000000000E+00  0.74505805969E-08  0.10566000000E+00  0.10566000000E+00 0. -1.
     999900   -1    0    0    0    0 -0.00000000000E+00 -0.00000000000E+00 -0.74505805969E-08  0.93827000000E+00  0.93827000000E+00 0. -1.
     999902    2    1    2    0    0 -0.22869100183E-01  0.59516691470E-02 -0.49133016414E-03  0.10202940208E+01  0.10200202102E+01 0.  0.
     999903    2    3    3    0    0 -0.27881385947E-01 -0.68923463336E-01  0.10573640481E+00  0.13073472530E+00  0.19584831326E-01 0.  0.
         14    1    1    2    0    0  0.22869100183E-01 -0.59516691470E-02  0.49133016414E-03  0.23635979230E-01  0.00000000000E+00 0. -1.
     999901    1    3    3    0    0  0.50122857638E-02  0.74875132483E-01 -0.10622773497E+00  0.88955929547E+00  0.88000000000E+00 0. -1.
        -11    1    4    4    0    0 -0.22991794211E-01 -0.48075559434E-01  0.88207511195E-01  0.10305682010E+00  0.51100000000E-03 0. -1.
         11    1    4    4    0    0 -0.48895917359E-02 -0.20847903902E-01  0.17528893613E-01  0.27677905209E-01  0.51100000000E-03 0.  1.
</event>
<event>
 8    1  0.1150307E+005  0.1043930E+01  0.7957747E-01            NaN
         13   -1    0    0    0    0  0.00000000000E+00  0.00000000000E+00  0.74505805969E-08  0.10566000000E+00  0.10566000000E+00 0. -1.
     999900   -1    0    0    0    0 -0.00000000000E+00 -0.00000000000E+00 -0.74505805969E-08  0.93827000000E+00  0.93827000000E+00 0.  1.
     999902    2    1    2    0    0  0.66435311472E-02  0.33533674367E-02 -0.21884478638E-01  0.10208148105E+01  0.10205530684E+01 0.  0.
     999903    2    3    3    0    0 -0.89861224523E-02 -0.10078438492E+00  0.77646095675E-01  0.12896544389E+00  0.19103060097E-01 0.  0.
         14    1    1    2    0    0 -0.66435311472E-02 -0.33533674367E-02  0.21884478638E-01  0.23115189476E-01  0.00000000000E+00 0. -1.
     999901    1    3    3    0    0  0.15629653599E-01  0.10413775235E+00 -0.99530574313E-01  0.89184936663E+00  0.88000000000E+00 0.  1.
        -11    1    4    4    0    0  0.51130777809E-02 -0.42441694364E-01  0.28405360032E-01  0.51328029229E-01  0.51100000000E-03 0.  1.
         11    1    4    4    0    0 -0.14099200233E-01 -0.58342690553E-01  0.49240735643E-01  0.77637414665E-01  0.51100000000E-03 0. -1.
</event>
<event>
 8    1  0.1150307E+005  0.1043930E+01  0.7957747E-01            NaN
         13   -1    0    0    0    0  0.00000000000E+00  0.00000000000E+00  0.74505805969E-08  0.10566000000E+00  0.10566000000E+00 0.  1.
     999900   -1    0    0    0    0 -0.00000000000E+00 -0.00000000000E+00 -0.74505805969E-08  0.93827000000E+00  0.93827000000E+00 0.  1.
     999902    2    1    2    0    0 -0.11288271595E-01 -0.21573716433E-01 -0.50379859734E-02  0.10190657361E+01  0.10187623584E+01 0.  0.
     999903    2    3    3    0    0  0.95257990204E-01 -0.61492197287E-01 -0.60405269156E-01  0.13001504741E+00  0.19993523633E-01 0.  0.
         14    1    1    2    0    0  0.11288271595E-01  0.21573716433E-01  0.50379859734E-02  0.24864263894E-01  0.00000000000E+00 0. -1.
     999901    1    3    3    0    0 -0.10654626180E+00  0.39918480854E-01  0.55367283183E-01  0.88905068869E+00  0.88000000000E+00 0.  1.
        -11    1    4    4    0    0  0.61472825383E-01 -0.29358525257E-01 -0.40982171314E-01  0.79502394633E-01  0.51100000000E-03 0.  1.
         11    1    4    4    0    0  0.33785164821E-01 -0.32133672030E-01 -0.19423097842E-01  0.50512652780E-01  0.51100000000E-03 0. -1.
</event>
<event>
 8    1  0.1150307E+005  0.1043930E+01  0.7957747E-01            NaN
         13   -1    0    0    0    0  0.00000000000E+00  0.00000000000E+00  0.74505805969E-08  0.10566000000E+00  0.10566000000E+00 0. -1.
     999900   -1    0    0    0    0 -0.00000000000E+00 -0.00000000000E+00 -0.74505805969E-08  0.93827000000E+00  0.93827000000E+00 0.  1.
     999902    2    1    2    0    0  0.88262500049E-02  0.14831479060E-01  0.16256686722E-01  0.10202201851E+01  0.10199446410E+01 0.  0.
     999903    2    3    3    0    0 -0.84200917659E-01  0.10464770815E-02 -0.94659846487E-01  0.12828601849E+00  0.20147614075E-01 0.  0.
         14    1    1    2    0    0 -0.88262500049E-02 -0.14831479060E-01 -0.16256686722E-01  0.23709814918E-01  0.00000000000E+00 0.  1.
     999901    1    3    3    0    0  0.93027167664E-01  0.13785001979E-01  0.11091653321E+00  0.89193416660E+00  0.88000000000E+00 0. -1.
        -11    1    4    4    0    0 -0.12580215111E-01 -0.62225806540E-02 -0.21215936721E-01  0.25443258718E-01  0.51100000000E-03 0. -1.
         11    1    4    4    0    0 -0.71620702548E-01  0.72690577355E-02 -0.73443909766E-01  0.10284275977E+00  0.51100000000E-03 0.  1.
</event>
<event>
 8    1  0.1150307E+005  0.1043930E+01  0.7957747E-01            NaN
         13   -1    0    0    0    0  0.00000000000E+00  0.00000000000E+00  0.74505805969E-08  0.10566000000E+00  0.10566000000E+00 0.  1.
     999900   -1    0    0    0    0 -0.00000000000E+00 -0.00000000000E+00 -0.74505805969E-08  0.93827000000E+00  0.93827000000E+00 0. -1.
     999902    2    1    2    0    0  0.12327792008E-01  0.40643402911E-02 -0.19691506501E-01  0.10203450738E+01  0.10200724586E+01 0.  0.
     999903    2    3    3    0    0 -0.81427283000E-01  0.29034482488E-01  0.92029595566E-01  0.12799137328E+00  0.20950932803E-01 0.  0.
         14    1    1    2    0    0 -0.12327792008E-01 -0.40643402911E-02  0.19691506501E-01  0.23584926248E-01  0.00000000000E+00 0.  1.
     999901    1    3    3    0    0  0.93755075008E-01 -0.24970142197E-01 -0.11172110207E+00  0.89235370047E+00  0.88000000000E+00 0. -1.
        -11    1    4    4    0    0 -0.69806439208E-01  0.32228369768E-01  0.79482704628E-01  0.11058647399E+00  0.51100000000E-03 0.  1.
         11    1    4    4    0    0 -0.11620843792E-01 -0.31938872795E-02  0.12546890938E-01  0.17404899299E-01  0.51100000000E-03 0. -1.
</event>
<event>
 8    1  0.1163988E+005  0.1043930E+01  0.7957747E-01            NaN
         13   -1    0    0    0    0  0.00000000000E+00  0.00000000000E+00  0.74505805969E-08  0.10566000000E+00  0.10566000000E+00 0.  1.
     999900   -1    0    0    0    0 -0.00000000000E+00 -0.00000000000E+00 -0.74505805969E-08  0.93827000000E+00  0.93827000000E+00 0. -1.
     999902    2    1    2    0    0  0.35492777025E-01  0.93533993450E-02  0.30027202782E-02  0.10071028411E+01  0.10064292787E+01 0.  0.
     999903    2    3    3    0    0  0.80356617162E-01 -0.85035766460E-01 -0.20975825346E-01  0.12059449408E+00  0.20366130051E-01 0.  0.
         14    1    1    2    0    0 -0.35492777025E-01 -0.93533993450E-02 -0.30027202782E-02  0.36827158855E-01  0.00000000000E+00 0.  1.
     999901    1    3    3    0    0 -0.44863840136E-01  0.94389165805E-01  0.23978545624E-01  0.88650834707E+00  0.88000000000E+00 0. -1.
        -11    1    4    4    0    0  0.59036293497E-01 -0.64524531104E-01 -0.66254999368E-02  0.87708935888E-01  0.51100000000E-03 0.  1.
         11    1    4    4    0    0  0.21320323664E-01 -0.20511235356E-01 -0.14350325409E-01  0.32885558188E-01  0.51100000000E-03 0. -1.
</event>
<event>
 8    1  0.1150307E+005  0.1043930E+01  0.7957747E-01            NaN
         13   -1    0    0    0    0  0.00000000000E+00  0.00000000000E+00  0.74505805969E-08  0.10566000000E+00  0.10566000000E+00 0. -1.
     999900   -1    0    0    0    0 -0.00000000000E+00 -0.00000000000E+00 -0.74505805969E-08  0.93827000000E+00  0.93827000000E+00 0. -1.
     999902    2    1    2    0    0 -0.12771156392E-01  0.17112751508E-01  0.10734238657E-01  0.10200307829E+01  0.10197507663E+01 0.  0.
     999903    2    3    3    0    0 -0.11104254405E+00  0.54665474954E-01 -0.38348531770E-01  0.13240665577E+00  0.27242464316E-01 0.  0.
         14    1    1    2    0    0  0.12771156392E-01 -0.17112751508E-01 -0.10734238657E-01  0.23899217128E-01  0.00000000000E+00 0.  1.
     999901    1    3    3    0    0  0.98271387653E-01 -0.37552723446E-01  0.49082770426E-01  0.88762412711E+00  0.88000000000E+00 0. -1.
        -11    1    4    4    0    0 -0.22317378838E-01  0.23732832218E-01 -0.67657310254E-02  0.33276853226E-01  0.51100000000E-03 0. -1.
         11    1    4    4    0    0 -0.88725165207E-01  0.30932642736E-01 -0.31582800744E-01  0.99129802539E-01  0.51100000000E-03 0.  1.
</event>
<event>
 8    1  0.1150307E+005  0.1043930E+01  0.7957747E-01            NaN
         13   -1    0    0    0    0  0.00000000000E+00  0.00000000000E+00  0.74505805969E-08  0.10566000000E+00  0.10566000000E+00 0. -1.
     999900   -1    0    0    0    0 -0.00000000000E+00 -0.00000000000E+00 -0.74505805969E-08  0.93827000000E+00  0.93827000000E+00 0.  1.
     999902    2    1    2    0    0  0.19045670028E-01 -0.10369723994E-01 -0.10410399408E-01  0.10198749561E+01  0.10195912323E+01 0.  0.
     999903    2    3    3    0    0  0.12428372317E+00  0.38026067534E-01  0.17516606161E-01  0.13184504773E+00  0.13559478671E-01 0.  0.
         14    1    1    2    0    0 -0.19045670028E-01  0.10369723994E-01  0.10410399408E-01  0.24055043928E-01  0.00000000000E+00 0. -1.
     999901    1    3    3    0    0 -0.10523805315E+00 -0.48395791529E-01 -0.27927005568E-01  0.88802990834E+00  0.88000000000E+00 0.  1.
        -11    1    4    4    0    0  0.94273855059E-01  0.27747590864E-01  0.18963066632E-01  0.10008670023E+00  0.51100000000E-03 0.  1.
         11    1    4    4    0    0  0.30009868115E-01  0.10278476670E-01 -0.14464604715E-02  0.31758347498E-01  0.51100000000E-03 0. -1.
</event>
<event>
 8    1  0.1150307E+005  0.1043930E+01  0.7957747E-01            NaN
         13   -1    0    0    0    0  0.00000000000E+00  0.00000000000E+00  0.74505805969E-08  0.10566000000E+00  0.10566000000E+00 0.  1.
     999900   -1    0    0    0    0 -0.00000000000E+00 -0.00000000000E+00 -0.74505805969E-08  0.93827000000E+00  0.93827000000E+00 0.  1.
     999902    2    1    2    0    0 -0.18545901262E-01  0.29100367633E-02 -0.13979302822E-01  0.10205240248E+01  0.10202555785E+01 0.  0.
     999903    2    3    3    0    0  0.53700954009E-01  0.32861117915E-02 -0.11811891779E+00  0.13144314607E+00  0.20751648527E-01 0.  0.
         14    1    1    2    0    0  0.18545901262E-01 -0.29100367633E-02  0.13979302822E-01  0.23405975198E-01  0.00000000000E+00 0. -1.
     999901    1    3    3    0    0 -0.72246855271E-01 -0.37607502821E-03  0.10413961496E+00  0.88908087874E+00  0.88000000000E+00 0. -1.
        -11    1    4    4    0    0  0.39454569212E-01  0.58666692195E-02 -0.10322752053E+00  0.11066735271E+00  0.51100000000E-03 0.  1.
         11    1    4    4    0    0  0.14246384797E-01 -0.25805574280E-02 -0.14891397253E-01  0.20775793356E-01  0.51100000000E-03 0. -1.
</event>
<event>
 8    1  0.1150307E+005  0.1043930E+01  0.7957747E-01            NaN
         13   -1    0    0    0    0  0.00000000000E+00  0.00000000000E+00  0.74505805969E-08  0.10566000000E+00  0.10566000000E+00 0. -1.
     999900   -1    0    0    0    0 -0.00000000000E+00 -0.00000000000E+00 -0.74505805969E-08  0.93827000000E+00  0.93827000000E+00 0. -1.
     999902    2    1    2    0    0  0.80044600748E-02  0.20924247014E-01  0.67734307227E-02  0.10205254095E+01  0.10202569953E+01 0.  0.
     999903    2    3    3    0    0  0.77177162547E-01 -0.95784714529E-01  0.35356913321E-01  0.12967028098E+00  0.20814526044E-01 0.  0.
         14    1    1    2    0    0 -0.80044600748E-02 -0.20924247014E-01 -0.67734307227E-02  0.23404590531E-01  0.00000000000E+00 0.  1.
     999901    1    3    3    0    0 -0.69172702473E-01  0.11670896154E+00 -0.28583482598E-01  0.89085512849E+00  0.88000000000E+00 0. -1.
        -11    1    4    4    0    0  0.34288732964E-01 -0.29136018738E-01  0.72631880090E-02  0.45581134444E-01  0.51100000000E-03 0. -1.
         11    1    4    4    0    0  0.42888429584E-01 -0.66648695791E-01  0.28093725312E-01  0.84089146539E-01  0.51100000000E-03 0.  1.
</event>
<event>
 8    1  0.1150307E+005  0.1043930E+01  0.7957747E-01            NaN
         13   -1    0    0    0    0  0.00000000000E+00  0.00000000000E+00  0.74505805969E-08  0.10566000000E+00  0.10566000000E+00 0.  1.
     999900   -1    0    0    0    0 -0.00000000000E+00 -0.00000000000E+00 -0.74505805969E-08  0.93827000000E+00  0.93827000000E+00 0.  1.
     999902    2    1    2    0    0  0.19374083925E-01  0.12098152320E-01  0.52135625483E-02  0.10205013498E+01  0.10202323771E+01 0.  0.
     999903    2    3    3    0    0  0.97454456184E-01 -0.85932994651E-01  0.10604054476E-01  0.13160556976E+00  0.18047975509E-01 0.  0.
         14    1    1    2    0    0 -0.19374083925E-01 -0.12098152320E-01 -0.52135625483E-02  0.23428650237E-01  0.00000000000E+00 0. -1.
     999901    1    3    3    0    0 -0.78080372259E-01  0.98031146971E-01 -0.53904919278E-02  0.88889578001E+00  0.88000000000E+00 0. -1.
        -11    1    4    4    0    0  0.78121749092E-01 -0.76885184413E-01  0.60759161341E-02  0.10977940217E+00  0.51100000000E-03 0. -1.
         11    1    4    4    0    0  0.19332707092E-01 -0.90478102380E-02  0.45281383421E-02  0.21826167585E-01  0.51100000000E-03 0.  1.
</event>
<event>
 8    1  0.1150307E+005  0.1043930E+01  0.7957747E-01            NaN
         13   -1    0    0    0    0  0.00000000000E+00  0.00000000000E+00  0.74505805969E-08  0.10566000000E+00  0.10566000000E+00 0. -1.
     999900   -1    0    0    0    0 -0.00000000000E+00 -0.00000000000E+00 -0.74505805969E-08  0.93827000000E+00  0.93827000000E+00 0. -1.
     999902    2    1    2    0    0 -0.99669014038E-02 -0.11672199368E-01  0.18603296284E-01  0.10198123302E+01  0.10195271095E+01 0.  0.
     999903    2    3    3    0    0  0.28548436710E-01  0.11845404051E+00  0.37716763792E-01  0.12920490033E+00  0.20615019957E-01 0.  0.
         14    1    1    2    0    0  0.99669014038E-02  0.11672199368E-01 -0.18603296284E-01  0.24117669753E-01  0.00000000000E+00 0. -1.
     999901    1    3    3    0    0 -0.38515338114E-01 -0.13012623988E+00 -0.19113467508E-01  0.89060742991E+00  0.88000000000E+00 0.  1.
        -11    1    4    4    0    0  0.11945008940E-01  0.83060794476E-01  0.19927018584E-01  0.86250368163E-01  0.51100000000E-03 0.  1.
         11    1    4    4    0    0  0.16603427770E-01  0.35393246034E-01  0.17789745208E-01  0.42954532172E-01  0.51100000000E-03 0. -1.
</event>
<event>
 8    1  0.1150307E+005  0.1043930E+01  0.7957747E-01            NaN
         13   -1    0    0    0    0  0.00000000000E+00  0.00000000000E+00  0.74505805969E-08  0.10566000000E+00  0.10566000000E+00 0.  1.
     999900   -1    0    0    0    0 -0.00000000000E+00 -0.00000000000E+00 -0.74505805969E-08  0.93827000000E+00  0.93827000000E+00 0. -1.
     999902    2    1    2    0    0 -0.91276818819E-02  0.15081649374E-01 -0.38169634053E-02  0.10258928180E+01  0.10257342415E+01 0.  0.
     999903    2    3    3    0    0  0.89813904259E-02 -0.11438003242E+00 -0.65106340790E-01  0.13412790878E+00  0.24248775505E-01 0.  0.
         14    1    1    2    0    0  0.91276818819E-02 -0.15081649374E-01  0.38169634053E-02  0.18037181987E-01  0.00000000000E+00 0.  1.
     999901    1    3    3    0    0 -0.18109072308E-01  0.12946168179E+00  0.61289377385E-01  0.89176490923E+00  0.88000000000E+00 0.  1.
        -11    1    4    4    0    0 -0.89952234244E-03 -0.50029116122E-01 -0.41034464096E-01  0.64713290482E-01  0.51100000000E-03 0. -1.
         11    1    4    4    0    0  0.98809127684E-02 -0.64350916297E-01 -0.24071876694E-01  0.69414618302E-01  0.51100000000E-03 0.  1.
</event>
<event>
 8    1  0.1150307E+005  0.1043930E+01  0.7957747E-01            NaN
         13   -1    0    0    0    0  0.00000000000E+00  0.00000000000E+00  0.74505805969E-08  0.10566000000E+00  0.10566000000E+00 0. -1.
     999900   -1    0    0    0    0 -0.00000000000E+00 -0.00000000000E+00 -0.74505805969E-08  0.93827000000E+00  0.93827000000E+00 0.  1.
     999902    2    1    2    0    0 -0.31460527963E-02  0.12255152443E-01  0.20531459651E-01  0.10198130507E+01  0.10195278471E+01 0.  0.
     999903    2    3    3    0    0 -0.29188209765E-01  0.10359000123E+00  0.75323669636E-01  0.13300843024E+00  0.20850596211E-01 0.  0.
         14    1    1    2    0    0  0.31460527963E-02 -0.12255152443E-01 -0.20531459651E-01  0.24116949330E-01  0.00000000000E+00 0.  1.
     999901    1    3    3    0    0  0.26042156969E-01 -0.91334848790E-01 -0.54792209986E-01  0.88680462043E+00  0.88000000000E+00 0.  1.
        -11    1    4    4    0    0 -0.30558628140E-01  0.89743684532E-01  0.70950340303E-01  0.11841440190E+00  0.51100000000E-03 0. -1.
         11    1    4    4    0    0  0.13704183748E-02  0.13846316701E-01  0.43733293335E-02  0.14594028339E-01  0.51100000000E-03 0.  1.
</event>
<event>
 8    1  0.1150307E+005  0.1043930E+01  0.7957747E-01            NaN
         13   -1    0    0    0    0  0.00000000000E+00  0.00000000000E+00  0.74505805969E-08  0.10566000000E+00  0.10566000000E+00 0. -1.
     999900   -1    0    0    0    0 -0.00000000000E+00 -0.00000000000E+00 -0.74505805969E-08  0.93827000000E+00  0.93827000000E+00 0. -1.
     999902    2    1    2    0    0  0.12327726038E-02  0.54715453831E-03 -0.27459145505E-01  0.10164377506E+01  0.10160658822E+01 0.  0.
     999903    2    3    3    0    0 -0.10264329402E+00 -0.71023714918E-01 -0.16327637025E-01  0.12737277148E+00  0.19422082706E-01 0.  0.
         14    1    1    2    0    0 -0.12327726038E-02 -0.54715453831E-03  0.27459145505E-01  0.27492249421E-01  0.00000000000E+00 0. -1.
     999901    1    3    3    0    0  0.10387606662E+00  0.71570869456E-01 -0.11131508480E-01  0.88906497909E+00  0.88000000000E+00 0. -1.
        -11    1    4    4    0    0 -0.37514202019E-01 -0.34180467996E-01 -0.13369986321E-01  0.52484639665E-01  0.51100000000E-03 0.  1.
         11    1    4    4    0    0 -0.65129092001E-01 -0.36843246922E-01 -0.29576507041E-02  0.74888131819E-01  0.51100000000E-03 0. -1.
</event>
<event>
 8    1  0.1150307E+005  0.1043930E+01  0.7957747E-01            NaN
         13   -1    0    0    0    0  0.00000000000E+00  0.00000000000E+00  0.74505805969E-08  0.10566000000E+00  0.10566000000E+00 0.  1.
     999900   -1    0    0    0    0 -0.00000000000E+00 -0.00000000000E+00 -0.74505805969E-08  0.93827000000E+00  0.93827000000E+00 0.  1.
     999902    2    1    2    0    0 -0.13882856739E-01  0.11643250316E-01  0.14679055138E-01  0.10206110453E+01  0.10203446144E+01 0.  0.
     999903    2    3    3    0    0  0.59320098368E-01 -0.65478836436E-01  0.94121379109E-01  0.13065735450E+00  0.20153366693E-01 0.  0.
         14    1    1    2    0    0  0.13882856739E-01 -0.11643250316E-01 -0.14679055138E-01  0.23318954713E-01  0.00000000000E+00 0. -1.
     999901    1    3    3    0    0 -0.73202955107E-01  0.77122086752E-01 -0.79442323971E-01  0.88995369078E+00  0.88000000000E+00 0. -1.
        -11    1    4    4    0    0  0.40196194453E-01 -0.37180551993E-01  0.45265960800E-01  0.71045026730E-01  0.51100000000E-03 0. -1.
         11    1    4    4    0    0  0.19123903916E-01 -0.28298284443E-01  0.48855418309E-01  0.59612327773E-01  0.51100000000E-03 0.  1.
</event>
<event>
 8    1  0.1150307E+005  0.1043930E+01  0.7957747E-01            NaN
         13   -1    0    0    0    0  0.00000000000E+00  0.00000000000E+00  0.74505805969E-08  0.10566000000E+00  0.10566000000E+00 0. -1.
     999900   -1    0    0    0    0 -0.00000000000E+00 -0.00000000000E+00 -0.74505805969E-08  0.93827000000E+00  0.93827000000E+00 0.  1.
     999902    2    1    2    0    0 -0.69806322175E-02  0.20054694581E-01  0.74658758083E-02  0.10214209062E+01  0.10211728592E+01 0.  0.
     999903    2    3    3    0    0  0.81878612352E-02 -0.83825028852E-01  0.97501018942E-01  0.13061935306E+00  0.21477666640E-01 0.  0.
         14    1    1    2    0    0  0.69806322175E-02 -0.20054694581E-01 -0.74658758083E-02  0.22509093773E-01  0.00000000000E+00 0.  1.
     999901    1    3    3    0    0 -0.15168493453E-01  0.10387972343E+00 -0.90035143134E-01  0.89080155317E+00  0.88000000000E+00 0. -1.
        -11    1    4    4    0    0  0.47565626740E-02 -0.22901020238E-01  0.14231923656E-01  0.27384126576E-01  0.51100000000E-03 0.  1.
         11    1    4    4    0    0  0.34312985612E-02 -0.60924008614E-01  0.83269095286E-01  0.10323522648E+00  0.51100000000E-03 0. -1.
</event>
<event>
 8    1  0.1150307E+005  0.1043930E+01  0.7957747E-01            NaN
         13   -1    0    0    0    0  0.00000000000E+00  0.00000000000E+00  0.74505805969E-08  0.10566000000E+00  0.10566000000E+00 0.  1.
     999900   -1    0    0    0    0 -0.00000000000E+00 -0.00000000000E+00 -0.74505805969E-08  0.93827000000E+00  0.93827000000E+00 0.  1.
     999902    2    1    2    0    0  0.22836607434E-02 -0.12498403924E-01 -0.19526038036E-01  0.10206342629E+01  0.10203683684E+01 0.  0.
     999903    2    3    3    0    0  0.62299283498E-01 -0.10369203496E+00  0.47875327885E-01  0.13133054791E+00  0.17956251130E-01 0.  0.
         14    1    1    2    0    0 -0.22836607434E-02  0.12498403924E-01  0.19526038036E-01  0.23295737130E-01  0.00000000000E+00 0.  1.
     999901    1    3    3    0    0 -0.60015622755E-01  0.91193631040E-01 -0.67401365921E-01  0.88930371496E+00  0.88000000000E+00 0.  1.
        -11    1    4    4    0    0  0.28538652865E-01 -0.51040968346E-01  0.13730529787E-01  0.60070156702E-01  0.51100000000E-03 0. -1.
         11    1    4    4    0    0  0.33760630633E-01 -0.52651066618E-01  0.34144798097E-01  0.71260391206E-01  0.51100000000E-03 0.  1.
</event>
<event>
 8    1  0.1150307E+005  0.1043930E+01  0.7957747E-01            NaN
         13   -1    0    0    0    0  0.00000000000E+00  0.00000000000E+00  0.74505805969E-08  0.10566000000E+00  0.10566000000E+00 0.  1.
     999900   -1    0    0    0    0 -0.00000000000E+00 -0.00000000000E+00 -0.74505805969E-08  0.93827000000E+00  0.93827000000E+00 0. -1.
     999902    2    1    2    0    0  0.15329977531E-02  0.24454598707E-01 -0.12826366181E-02  0.10193938504E+01  0.10190985230E+01 0.  0.
     999903    2    3    3    0    0  0.20950872655E-01 -0.48877255930E-01 -0.11438915405E+00  0.12891774233E+00  0.26589105148E-01 0.  0.
         14    1    1    2    0    0 -0.15329977531E-02 -0.24454598707E-01  0.12826366181E-02  0.24536149590E-01  0.00000000000E+00 0. -1.
     999901    1    3    3    0    0 -0.19417874902E-01  0.73331854637E-01  0.11310651743E+00  0.89047610808E+00  0.88000000000E+00 0.  1.
        -11    1    4    4    0    0 -0.25338573173E-02 -0.26943063001E-01 -0.58213414048E-01  0.64198222506E-01  0.51100000000E-03 0. -1.
         11    1    4    4    0    0  0.23484729972E-01 -0.21934192929E-01 -0.56175739998E-01  0.64719519827E-01  0.51100000000E-03 0.  1.
</event>
<event>
 8    1  0.1150307E+005  0.1043930E+01  0.7957747E-01            NaN
         13   -1    0    0    0    0  0.00000000000E+00  0.00000000000E+00  0.74505805969E-08  0.10566000000E+00  0.10566000000E+00 0. -1.
     999900   -1    0    0    0    0 -0.00000000000E+00 -0.00000000000E+00 -0.74505805969E-08  0.93827000000E+00  0.93827000000E+00 0. -1.
     999902    2    1    2    0    0 -0.63873526095E-02 -0.48853717838E-02  0.13097185391E-01  0.10285611550E+01  0.10284463273E+01 0.  0.
     999903    2    3    3    0    0  0.43139786786E-01  0.51332192521E-01 -0.11649681734E+00  0.13592015349E+00  0.20167907192E-01 0.  0.
         14    1    1    2    0    0  0.63873526095E-02  0.48853717838E-02 -0.13097185391E-01  0.15368844979E-01  0.00000000000E+00 0.  1.
     999901    1    3    3    0    0 -0.49527139396E-01 -0.56217564305E-01  0.12959400273E+00  0.89264100153E+00  0.88000000000E+00 0.  1.
        -11    1    4    4    0    0  0.32720512675E-01  0.39063936125E-01 -0.69073906141E-01  0.85837571528E-01  0.51100000000E-03 0.  1.
         11    1    4    4    0    0  0.10419274111E-01  0.12268256396E-01 -0.47422911201E-01  0.50082581960E-01  0.51100000000E-03 0. -1.
</event>
<event>
 8    1  0.1150307E+005  0.1043930E+01  0.7957747E-01            NaN
         13   -1    0    0    0    0  0.00000000000E+00  0.00000000000E+00  0.74505805969E-08  0.10566000000E+00  0.10566000000E+00 0. -1.
     999900   -1    0    0    0    0 -0.00000000000E+00 -0.00000000000E+00 -0.74505805969E-08  0.93827000000E+00  0.93827000000E+00 0. -1.
     999902    2    1    2    0    0 -0.12227712501E-01 -0.50256633421E-02 -0.20339961336E-01  0.10196712228E+01  0.10193826143E+01 0.  0.
     999903    2    3    3    0    0  0.37862145585E-01 -0.11824032776E+00  0.31833218342E-01  0.12947540455E+00  0.18336014161E-01 0.  0.
         14    1    1    2    0    0  0.12227712501E-01  0.50256633421E-02  0.20339961336E-01  0.24258777219E-01  0.00000000000E+00 0. -1.
     999901    1    3    3    0    0 -0.50089858086E-01  0.11321466442E+00 -0.52173179678E-01  0.89019581823E+00  0.88000000000E+00 0.  1.
        -11    1    4    4    0    0  0.26477516340E-01 -0.93782709320E-01  0.31753585149E-01  0.10249295942E+00  0.51100000000E-03 0. -1.
         11    1    4    4    0    0  0.11384629245E-01 -0.24457618441E-01  0.79633193614E-04  0.26982445132E-01  0.51100000000E-03 0.  1.
</event>
<event>
 8    1  0.1150307E+005  0.1043930E+01  0.7957747E-01            NaN
         13   -1    0    0    0    0  0.00000000000E+00  0.00000000000E+00  0.74505805969E-08  0.10566000000E+00  0.10566000000E+00 0.  1.
     999900   -1    0    0    0    0 -0.00000000000E+00 -0.00000000000E+00 -0.74505805969E-08  0.93827000000E+00  0.93827000000E+00 0.  1.
     999902    2    1    2    0    0  0.39576214500E-03  0.23188839432E-01  0.52517082339E-02  0.10201506110E+01  0.10198734283E+01 0.  0.
     999903    2    3    3    0    0 -0.34048571263E-01 -0.11931311123E+00  0.23505386136E-01  0.12783541175E+00  0.19861158196E-01 0.  0.
         14    1    1    2    0    0 -0.39576214500E-03 -0.23188839432E-01 -0.52517082339E-02  0.23779389001E-01  0.00000000000E+00 0.  1.
     999901    1    3    3    0    0  0.34444333408E-01  0.14250195066E+00 -0.18253677902E-01  0.89231519924E+00  0.88000000000E+00 0.  1.
        -11    1    4    4    0    0  0.18871627731E-02 -0.18861483917E-01  0.39972290040E-02  0.19379265198E-01  0.51100000000E-03 0.  1.
         11    1    4    4    0    0 -0.35935734036E-01 -0.10045162731E+00  0.19508157132E-01  0.10845614656E+00  0.51100000000E-03 0. -1.
</event>
<event>
 8    1  0.1150307E+005  0.1043930E+01  0.7957747E-01            NaN
         13   -1    0    0    0    0  0.00000000000E+00  0.00000000000E+00  0.74505805969E-08  0.10566000000E+00  0.10566000000E+00 0.  1.
     999900   -1    0    0    0    0 -0.00000000000E+00 -0.00000000000E+00 -0.74505805969E-08  0.93827000000E+00  0.93827000000E+00 0.  1.
     999902    2    1    2    0    0 -0.17872336737E-02 -0.17802046316E-01 -0.15962208944E-01  0.10199529449E+01  0.10196710796E+01 0.  0.
     999903    2    3    3    0    0 -0.78454531119E-01 -0.26078756420E-01 -0.10146844189E+00  0.13245213120E+00  0.20310277495E-01 0.  0.
         14    1    1    2    0    0  0.17872336737E-02  0.17802046316E-01  0.15962208944E-01  0.23977055107E-01  0.00000000000E+00 0. -1.
     999901    1    3    3    0    0  0.76667297446E-01  0.82767101044E-02  0.85506232942E-01  0.88750081369E+00  0.88000000000E+00 0. -1.
        -11    1    4    4    0    0 -0.20474014313E-01  0.22159165960E-02 -0.25649062404E-01  0.32897280612E-01  0.51100000000E-03 0.  1.
         11    1    4    4    0    0 -0.57980516806E-01 -0.28294673017E-01 -0.75819379482E-01  0.99554850591E-01  0.51100000000E-03 0. -1.
</event>
<event>
 8    1  0.1150307E+005  0.1043930E+01  0.7957747E-01            NaN
         13   -1    0    0    0    0  0.00000000000E+00  0.00000000000E+00  0.74505805969E-08  0.10566000000E+00  0.10566000000E+00 0.  1.
     999900   -1    0    0    0    0 -0.00000000000E+00 -0.00000000000E+00 -0.74505805969E-08  0.93827000000E+00  0.93827000000E+00 0. -1.
     999902    2    1    2    0    0 -0.36939922132E-02 -0.20409704203E-01 -0.21261824896E-02  0.10230800058E+01  0.10228675262E+01 0.  0.
     999903    2    3    3    0    0 -0.51864015371E-01 -0.31919501790E-01  0.11723734134E+00  0.13364171266E+00  0.20168849097E-01 0.  0.
         14    1    1    2    0    0  0.36939922132E-02  0.20409704203E-01  0.21261824896E-02  0.20849994151E-01  0.00000000000E+00 0.  1.
     999901    1    3    3    0    0  0.48170023158E-01  0.11509797587E-01 -0.11936352383E+00  0.88943829319E+00  0.88000000000E+00 0. -1.
        -11    1    4    4    0    0 -0.22199462776E-01 -0.10259631748E-01  0.67604497273E-01  0.71893708791E-01  0.51100000000E-03 0.  1.
         11    1    4    4    0    0 -0.29664552595E-01 -0.21659870042E-01  0.49632844064E-01  0.61748003869E-01  0.51100000000E-03 0. -1.
</event>
<event>
 8    1  0.1150307E+005  0.1043930E+01  0.7957747E-01            NaN
         13   -1    0    0    0    0  0.00000000000E+00  0.00000000000E+00  0.74505805969E-08  0.10566000000E+00  0.10566000000E+00 0. -1.
     999900   -1    0    0    0    0 -0.00000000000E+00 -0.00000000000E+00 -0.74505805969E-08  0.93827000000E+00  0.93827000000E+00 0.  1.
     999902    2    1    2    0    0  0.38440990675E-02  0.18938722764E-01 -0.14721233760E-01  0.10196366462E+01  0.10193472044E+01 0.  0.
     999903    2    3    3    0    0 -0.80175495347E-01  0.49914349969E-03 -0.10185201101E+00  0.13115981321E+00  0.20017623653E-01 0.  0.
         14    1    1    2    0    0 -0.38440990675E-02 -0.18938722764E-01  0.14721233760E-01  0.24293353844E-01  0.00000000000E+00 0. -1.
     999901    1    3    3    0    0  0.84019594415E-01  0.18439579264E-01  0.87130777254E-01  0.88847683294E+00  0.88000000000E+00 0. -1.
        -11    1    4    4    0    0 -0.44803519154E-01  0.99859011554E-02 -0.53325321704E-01  0.70362806981E-01  0.51100000000E-03 0.  1.
         11    1    4    4    0    0 -0.35371976193E-01 -0.94867576557E-02 -0.48526689310E-01  0.60797006234E-01  0.51100000000E-03 0. -1.
</event>
<event>
 8    1  0.1150307E+005  0.1043930E+01  0.7957747E-01            NaN
         13   -1    0    0    0    0  0.00000000000E+00  0.00000000000E+00  0.74505805969E-08  0.10566000000E+00  0.10566000000E+00 0.  1.
     999900   -1    0    0    0    0 -0.00000000000E+00 -0.00000000000E+00 -0.74505805969E-08  0.93827000000E+00  0.93827000000E+00 0.  1.
     999902    2    1    2    0    0  0.16045174896E-01 -0.11750414808E-01  0.11086040701E-01  0.10211611576E+01  0.10209072875E+01 0.  0.
     999903    2    3    3    0    0  0.35196653529E-01 -0.11614990560E+00  0.52945131585E-01  0.13379527123E+00  0.19193297108E-01 0.  0.
         14    1    1    2    0    0 -0.16045174896E-01  0.11750414808E-01 -0.11086040701E-01  0.22768842395E-01  0.00000000000E+00 0. -1.
     999901    1    3    3    0    0 -0.19151478633E-01  0.10439949080E+00 -0.41859090884E-01  0.88736588637E+00  0.88000000000E+00 0.  1.
        -11    1    4    4    0    0  0.13445550218E-01 -0.20492357358E-01  0.14124256762E-01  0.28292671857E-01  0.51100000000E-03 0. -1.
         11    1    4    4    0    0  0.21751103311E-01 -0.95657548244E-01  0.38820874823E-01  0.10550259937E+00  0.51100000000E-03 0.  1.
</event>
<event>
 8    1  0.1150307E+005  0.1043930E+01  0.7957747E-01            NaN
         13   -1    0    0    0    0  0.00000000000E+00  0.00000000000E+00  0.74505805969E-08  0.10566000000E+00  0.10566000000E+00 0. -1.
     999900   -1    0    0    0    0 -0.00000000000E+00 -0.00000000000E+00 -0.74505805969E-08  0.93827000000E+00  0.93827000000E+00 0.  1.
     999902    2    1    2    0    0  0.17872307825E-01 -0.13057470247E-01  0.69344786634E-02  0.10207350887E+01  0.10204715172E+01 0.  0.
     999903    2    3    3    0    0  0.43638943880E-01  0.11613711808E+00  0.35247143661E-01  0.13047851434E+00  0.19750796153E-01 0.  0.
         14    1    1    2    0    0 -0.17872307825E-01  0.13057470247E-01 -0.69344786634E-02  0.23194911308E-01  0.00000000000E+00 0.  1.
     999901    1    3    3    0    0 -0.25766636056E-01 -0.12919458832E+00 -0.28312664997E-01  0.89025657436E+00  0.88000000000E+00 0. -1.
        -11    1    4    4    0    0  0.23388629011E-01  0.79374540734E-01  0.30688854945E-01  0.88257649088E-01  0.51100000000E-03 0.  1.
         11    1    4    4    0    0  0.20250314869E-01  0.36762577344E-01  0.45582887160E-02  0.42220865248E-01  0.51100000000E-03 0. -1.
</event>
<event>
 8    1  0.1150307E+005  0.1043930E+01  0.7957747E-01            NaN
         13   -1    0    0    0    0  0.00000000000E+00  0.00000000000E+00  0.74505805969E-08  0.10566000000E+00  0.10566000000E+00 0. -1.
     999900   -1    0    0    0    0 -0.00000000000E+00 -0.00000000000E+00 -0.74505805969E-08  0.93827000000E+00  0.93827000000E+00 0.  1.
     999902    2    1    2    0    0 -0.40022766983E-02  0.60365833210E-02 -0.22135847543E-01  0.10206393516E+01  0.10203735746E+01 0.  0.
     999903    2    3    3    0    0  0.34510563289E-01  0.79159955627E-01 -0.99662154375E-01  0.13337355451E+00  0.19967034673E-01 0.  0.
         14    1    1    2    0    0  0.40022766983E-02 -0.60365833210E-02  0.22135847543E-01  0.23290648411E-01  0.00000000000E+00 0. -1.
     999901    1    3    3    0    0 -0.38512839987E-01 -0.73123372306E-01  0.77526306832E-01  0.88726579708E+00  0.88000000000E+00 0. -1.
        -11    1    4    4    0    0 -0.22276058158E-02  0.15427962007E-02 -0.29397607964E-02  0.40306032213E-02  0.51100000000E-03 0. -1.
         11    1    4    4    0    0  0.36738169105E-01  0.77617159427E-01 -0.96722393579E-01  0.12934295129E+00  0.51100000000E-03 0.  1.
</event>
<event>
 8    1  0.1150307E+005  0.1043930E+01  0.7957747E-01            NaN
         13   -1    0    0    0    0  0.00000000000E+00  0.00000000000E+00  0.74505805969E-08  0.10566000000E+00  0.10566000000E+00 0. -1.
     999900   -1    0    0    0    0 -0.00000000000E+00 -0.00000000000E+00 -0.74505805969E-08  0.93827000000E+00  0.93827000000E+00 0.  1.
     999902    2    1    2    0    0 -0.69713554357E-02 -0.14243067910E-01 -0.18234018028E-01  0.10197650627E+01  0.10194787094E+01 0.  0.
     999903    2    3    3    0    0  0.51840221180E-01 -0.11815805716E+00 -0.16904385682E-01  0.13170037226E+00  0.20260671098E-01 0.  0.
         14    1    1    2    0    0  0.69713554357E-02  0.14243067910E-01  0.18234018028E-01  0.24164937276E-01  0.00000000000E+00 0. -1.
     999901    1    3    3    0    0 -0.58811576615E-01  0.10391498925E+00 -0.13296323464E-02  0.88806469047E+00  0.88000000000E+00 0. -1.
        -11    1    4    4    0    0  0.24186148103E-01 -0.55303685351E-01  0.22597808289E-02  0.60405588350E-01  0.51100000000E-03 0. -1.
         11    1    4    4    0    0  0.27654073076E-01 -0.62854371808E-01 -0.19164166511E-01  0.71294783906E-01  0.51100000000E-03 0.  1.
</event>
<event>
 8    1  0.1150307E+005  0.1043930E+01  0.7957747E-01            NaN
         13   -1    0    0    0    0  0.00000000000E+00  0.00000000000E+00  0.74505805969E-08  0.10566000000E+00  0.10566000000E+00 0. -1.
     999900   -1    0    0    0    0 -0.00000000000E+00 -0.00000000000E+00 -0.74505805969E-08  0.93827000000E+00  0.93827000000E+00 0. -1.
     999902    2    1    2    0    0 -0.15960316613E-01  0.42866532729E-02 -0.17192516030E-01  0.10200827840E+01  0.10198039991E+01 0.  0.
     999903    2    3    3    0    0  0.25019191513E-01  0.45698605358E-01 -0.11957438116E+00  0.13223351969E+00  0.21756576581E-01 0.  0.
         14    1    1    2    0    0  0.15960316613E-01 -0.42866532729E-02  0.17192516030E-01  0.23847215983E-01  0.00000000000E+00 0. -1.
     999901    1    3    3    0    0 -0.40979508126E-01 -0.41411952085E-01  0.10238186513E+00  0.88784926433E+00  0.88000000000E+00 0. -1.
        -11    1    4    4    0    0  0.12752837322E-01  0.16633686015E-01 -0.73201694280E-01  0.76145016493E-01  0.51100000000E-03 0. -1.
         11    1    4    4    0    0  0.12266354191E-01  0.29064919343E-01 -0.46372686877E-01  0.56088503196E-01  0.51100000000E-03 0.  1.
</event>
<event>
 8    1  0.1150307E+005  0.1043930E+01  0.7957747E-01            NaN
         13   -1    0    0    0    0  0.00000000000E+00  0.00000000000E+00  0.74505805969E-08  0.10566000000E+00  0.10566000000E+00 0. -1.
     999900   -1    0    0    0    0 -0.00000000000E+00 -0.00000000000E+00 -0.74505805969E-08  0.93827000000E+00  0.93827000000E+00 0. -1.
     999902    2    1    2    0    0 -0.13688725100E-01  0.89705422274E-02  0.16245060689E-01  0.10208702121E+01  0.10206097374E+01 0.  0.
     999903    2    3    3    0    0 -0.10181949275E+00  0.78477619235E-01  0.30683684918E-01  0.13362349337E+00  0.19692730578E-01 0.  0.
         14    1    1    2    0    0  0.13688725100E-01 -0.89705422274E-02 -0.16245060689E-01  0.23059787933E-01  0.00000000000E+00 0.  1.
     999901    1    3    3    0    0  0.88130767646E-01 -0.69507077007E-01 -0.14438624229E-01  0.88724671869E+00  0.88000000000E+00 0. -1.
        -11    1    4    4    0    0 -0.97427672433E-01  0.70553387398E-01  0.31946071119E-01  0.12446181909E+00  0.51100000000E-03 0. -1.
         11    1    4    4    0    0 -0.43918203136E-02  0.79242318369E-02 -0.12623862010E-02  0.91616742898E-02  0.51100000000E-03 0.  1.
</event>
<event>
 8    1  0.1150307E+005  0.1043930E+01  0.7957747E-01            NaN
         13   -1    0    0    0    0  0.00000000000E+00  0.00000000000E+00  0.74505805969E-08  0.10566000000E+00  0.10566000000E+00 0.  1.
     999900   -1    0    0    0    0 -0.00000000000E+00 -0.00000000000E+00 -0.74505805969E-08  0.93827000000E+00  0.93827000000E+00 0. -1.
     999902    2    1    2    0    0 -0.94717742718E-02  0.10289662939E-01 -0.18643369040E-01  0.10206240591E+01  0.10203579289E+01 0.  0.
     999903    2    3    3    0    0 -0.45680941935E-01  0.69078193299E-01 -0.10327620728E+00  0.13387160638E+00  0.19927035907E-01 0.  0.
         14    1    1    2    0    0  0.94717742718E-02 -0.10289662939E-01  0.18643369040E-01  0.23305940882E-01  0.00000000000E+00 0.  1.
     999901    1    3    3    0    0  0.36209167664E-01 -0.58788530360E-01  0.84632838238E-01  0.88675245274E+00  0.88000000000E+00 0.  1.
        -11    1    4    4    0    0 -0.34583150284E-01  0.37264938049E-01 -0.69979135697E-01  0.86498615280E-01  0.51100000000E-03 0.  1.
         11    1    4    4    0    0 -0.11097791651E-01  0.31813255250E-01 -0.33297071580E-01  0.47372991102E-01  0.51100000000E-03 0. -1.
</event>
<event>
 8    1  0.1150307E+005  0.1043930E+01  0.7957747E-01            NaN
         13   -1    0    0    0    0  0.00000000000E+00  0.00000000000E+00  0.74505805969E-08  0.10566000000E+00  0.10566000000E+00 0.  1.
     999900   -1    0    0    0    0 -0.00000000000E+00 -0.00000000000E+00 -0.74505805969E-08  0.93827000000E+00  0.93827000000E+00 0.  1.
     999902    2    1    2    0    0  0.18070539286E-01  0.15433907223E-01  0.40185994413E-02  0.10198281531E+01  0.10195433109E+01 0.  0.
     999903    2    3    3    0    0  0.96420788326E-01 -0.69062032319E-01  0.46044893692E-01  0.13132123995E+00  0.32536181344E-01 0.  0.
         14    1    1    2    0    0 -0.18070539286E-01 -0.15433907223E-01 -0.40185994413E-02  0.24101846894E-01  0.00000000000E+00 0. -1.
     999901    1    3    3    0    0 -0.78350249040E-01  0.84495939542E-01 -0.42026294250E-01  0.88850691316E+00  0.88000000000E+00 0.  1.
        -11    1    4    4    0    0  0.31511737032E-01 -0.15694535835E-01  0.28916981490E-01  0.45560519810E-01  0.51100000000E-03 0.  1.
         11    1    4    4    0    0  0.64909051294E-01 -0.53367496484E-01  0.17127912201E-01  0.85760720136E-01  0.51100000000E-03 0. -1.
</event>
<event>
 8    1  0.1150307E+005  0.1043930E+01  0.7957747E-01            NaN
         13   -1    0    0    0    0  0.00000000000E+00  0.00000000000E+00  0.74505805969E-08  0.10566000000E+00  0.10566000000E+00 0.  1.
     999900   -1    0    0    0    0 -0.00000000000E+00 -0.00000000000E+00 -0.74505805969E-08  0.93827000000E+00  0.93827000000E+00 0.  1.
     999902    2    1    2    0    0  0.12278249926E-01  0.15100178621E-01  0.10741613036E-01  0.10217004461E+01  0.10214585887E+01 0.  0.
     999903    2    3    3    0    0 -0.10920959223E+00 -0.60657028691E-01 -0.26732790469E-01  0.12934245675E+00  0.20219269676E-01 0.  0.
         14    1    1    2    0    0 -0.12278249926E-01 -0.15100178621E-01 -0.10741613036E-01  0.22229553892E-01  0.00000000000E+00 0. -1.
     999901    1    3    3    0    0  0.12148784216E+00  0.75757207313E-01  0.37474403505E-01  0.89235798936E+00  0.88000000000E+00 0.  1.
        -11    1    4    4    0    0 -0.87751936562E-01 -0.43074415193E-01 -0.13778801508E-01  0.98721447044E-01  0.51100000000E-03 0.  1.
         11    1    4    4    0    0 -0.21457655673E-01 -0.17582613499E-01 -0.12953988960E-01  0.30621009706E-01  0.51100000000E-03 0. -1.
</event>
<event>
 8    1  0.1150307E+005  0.1043930E+01  0.7957747E-01            NaN
         13   -1    0    0    0    0  0.00000000000E+00  0.00000000000E+00  0.74505805969E-08  0.10566000000E+00  0.10566000000E+00 0.  1.
     999900   -1    0    0    0    0 -0.00000000000E+00 -0.00000000000E+00 -0.74505805969E-08  0.93827000000E+00  0.93827000000E+00 0.  1.
     999902    2    1    2    0    0 -0.47202503222E-02 -0.14949722049E-01  0.21741575340E-01  0.10171256897E+01  0.10167724414E+01 0.  0.
     999903    2    3    3    0    0  0.31617947127E-01  0.11452907444E+00 -0.33411588746E-01  0.12520243356E+00  0.21040713696E-01 0.  0.
         14    1    1    2    0    0  0.47202503222E-02  0.14949722049E-01 -0.21741575340E-01  0.26804310301E-01  0.00000000000E+00 0. -1.
     999901    1    3    3    0    0 -0.36338197450E-01 -0.12947879649E+00  0.55153164086E-01  0.89192325614E+00  0.88000000000E+00 0. -1.
        -11    1    4    4    0    0  0.32710825248E-01  0.85018320232E-01 -0.26450394398E-01  0.94857774316E-01  0.51100000000E-03 0.  1.
         11    1    4    4    0    0 -0.10928781202E-02  0.29510754213E-01 -0.69611943478E-02  0.30344659242E-01  0.51100000000E-03 0. -1.
</event>
<event>
 8    1  0.1150307E+005  0.1043930E+01  0.7957747E-01            NaN
         13   -1    0    0    0    0  0.00000000000E+00  0.00000000000E+00  0.74505805969E-08  0.10566000000E+00  0.10566000000E+00 0.  1.
     999900   -1    0    0    0    0 -0.00000000000E+00 -0.00000000000E+00 -0.74505805969E-08  0.93827000000E+00  0.93827000000E+00 0. -1.
     999902    2    1    2    0    0  0.94829541362E-02  0.12032545156E-01 -0.17723558587E-01  0.10205028130E+01  0.10202338743E+01 0.  0.
     999903    2    3    3    0    0  0.95996274295E-01  0.36947674230E-01 -0.82782313308E-01  0.13352031047E+00  0.19858162075E-01 0.  0.
         14    1    1    2    0    0 -0.94829541362E-02 -0.12032545156E-01  0.17723558587E-01  0.23427187007E-01  0.00000000000E+00 0.  1.
     999901    1    3    3    0    0 -0.86513320158E-01 -0.24915129075E-01  0.65058754721E-01  0.88698250253E+00  0.88000000000E+00 0. -1.
        -11    1    4    4    0    0  0.12205668503E-01  0.12490842534E-01 -0.13669458963E-01  0.22183658855E-01  0.51100000000E-03 0. -1.
         11    1    4    4    0    0  0.83790605791E-01  0.24456831696E-01 -0.69112854345E-01  0.11133665161E+00  0.51100000000E-03 0.  1.
</event>
<event>
 8    1  0.1150307E+005  0.1043930E+01  0.7957747E-01            NaN
         13   -1    0    0    0    0  0.00000000000E+00  0.00000000000E+00  0.74505805969E-08  0.10566000000E+00  0.10566000000E+00 0.  1.
     999900   -1    0    0    0    0 -0.00000000000E+00 -0.00000000000E+00 -0.74505805969E-08  0.93827000000E+00  0.93827000000E+00 0.  1.
     999902    2    1    2    0    0 -0.16423114490E-01 -0.13753954846E-01 -0.49141250208E-02  0.10219518611E+01  0.10217155024E+01 0.  0.
     999903    2    3    3    0    0 -0.16302015366E-01  0.93445885702E-01 -0.88827106697E-01  0.13148388923E+00  0.19996724347E-01 0.  0.
         14    1    1    2    0    0  0.16423114490E-01  0.13753954846E-01  0.49141250208E-02  0.21978138870E-01  0.00000000000E+00 0.  1.
     999901    1    3    3    0    0 -0.12109912317E-03 -0.10719984055E+00  0.83912981676E-01  0.89046797190E+00  0.88000000000E+00 0. -1.
        -11    1    4    4    0    0 -0.19329108062E-01  0.57746148354E-01 -0.51663161202E-01  0.79859723357E-01  0.51100000000E-03 0. -1.
         11    1    4    4    0    0  0.30270926958E-02  0.35699737347E-01 -0.37163945494E-01  0.51624165878E-01  0.51100000000E-03 0.  1.
</event>
<event>
 8    1  0.1150307E+005  0.1043930E+01  0.7957747E-01            NaN
         13   -1    0    0    0    0  0.00000000000E+00  0.00000000000E+00  0.74505805969E-08  0.10566000000E+00  0.10566000000E+00 0.  1.
     999900   -1    0    0    0    0 -0.00000000000E+00 -0.00000000000E+00 -0.74505805969E-08  0.93827000000E+00  0.93827000000E+00 0. -1.
     999902    2    1    2    0    0 -0.23263623140E-01  0.83332513049E-03  0.57501026267E-03  0.10206443557E+01  0.10203786942E+01 0.  0.
     999903    2    3    3    0    0  0.91755237304E-02 -0.30178244977E-01  0.12531824043E+00  0.13071464547E+00  0.19665717635E-01 0.  0.
         14    1    1    2    0    0  0.23263623140E-01 -0.83332513049E-03 -0.57501026267E-03  0.23285644272E-01  0.00000000000E+00 0. -1.
     999901    1    3    3    0    0 -0.32439146870E-01  0.31011570108E-01 -0.12474323017E+00  0.88992971026E+00  0.88000000000E+00 0. -1.
        -11    1    4    4    0    0 -0.35160248832E-02 -0.18313140955E-01  0.48724957836E-01  0.52173903436E-01  0.51100000000E-03 0. -1.
         11    1    4    4    0    0  0.12691548614E-01 -0.11865104022E-01  0.76593282593E-01  0.78540742032E-01  0.51100000000E-03 0.  1.
</event>
<event>
 8    1  0.1150307E+005  0.1043930E+01  0.7957747E-01            NaN
         13   -1    0    0    0    0  0.00000000000E+00  0.00000000000E+00  0.74505805969E-08  0.10566000000E+00  0.10566000000E+00 0.  1.
     999900   -1    0    0    0    0 -0.00000000000E+00 -0.00000000000E+00 -0.74505805969E-08  0.93827000000E+00  0.93827000000E+00 0.  1.
     999902    2    1    2    0    0 -0.17449516528E-01 -0.83771127855E-02  0.13177657501E-01  0.10205139307E+01  0.10202452501E+01 0.  0.
     999903    2    3    3    0    0 -0.10103800415E+00  0.45797170676E-01  0.69827069175E-01  0.13308447201E+00  0.23012995791E-01 0.  0.
         14    1    1    2    0    0  0.17449516528E-01  0.83771127855E-02 -0.13177657501E-01  0.23416069331E-01  0.00000000000E+00 0. -1.
     999901    1    3    3    0    0  0.83588487627E-01 -0.54174283461E-01 -0.56649411674E-01  0.88742945866E+00  0.88000000000E+00 0.  1.
        -11    1    4    4    0    0 -0.65137965082E-01  0.18773605419E-01  0.35414154553E-01  0.76484156655E-01  0.51100000000E-03 0.  1.
         11    1    4    4    0    0 -0.35900039072E-01  0.27023565256E-01  0.34412914623E-01  0.56600315356E-01  0.51100000000E-03 0. -1.
</event>
<event>
 7    1  0.1150307E+005  0.1043930E+01  0.7957747E-01            NaN
         13   -1    0    0    0    0  0.00000000000E+00  0.00000000000E+00  0.74505805969E-08  0.10566000000E+00  0.10566000000E+00 0. -1.
     999900   -1    0    0    0    0 -0.00000000000E+00 -0.00000000000E+00 -0.74505805969E-08  0.93827000000E+00  0.93827000000E+00 0. -1.
     999903    2    1    2    0    0  0.20896013732E-01  0.11522670254E+00 -0.30571652380E-02  0.11893615116E+00  0.20557855535E-01 0.  0.
         14    1    1    2    0    0  0.53691740744E-02 -0.25303179234E-01  0.29999791294E-01  0.39611442631E-01  0.00000000000E+00 0. -1.
     999901    1    1    2    0    0 -0.26265187807E-01 -0.89923523306E-01 -0.26942626056E-01  0.88538240621E+00  0.88000000000E+00 0.  1.
        -11    1    3    3    0    0  0.16757136859E-01  0.46546276618E-01  0.46863538113E-02  0.49694874340E-01  0.51100000000E-03 0. -1.
         11    1    3    3    0    0  0.41388768730E-02  0.68680425923E-01 -0.77435190493E-02  0.69241276815E-01  0.51100000000E-03 0.  1.
</event>
<event>
 8    1  0.1150307E+005  0.1043930E+01  0.7957747E-01            NaN
         13   -1    0    0    0    0  0.00000000000E+00  0.00000000000E+00  0.74505805969E-08  0.10566000000E+00  0.10566000000E+00 0.  1.
     999900   -1    0    0    0    0 -0.00000000000E+00 -0.00000000000E+00 -0.74505805969E-08  0.93827000000E+00  0.93827000000E+00 0. -1.
     999902    2    1    2    0    0  0.14517753286E-01  0.14856679204E-01 -0.10306157697E-01  0.10207415769E+01  0.10204781546E+01 0.  0.
     999903    2    3    3    0    0  0.82326949499E-02  0.10906518402E-01  0.12753261353E+00  0.12998087250E+00  0.21064906626E-01 0.  0.
         14    1    1    2    0    0 -0.14517753286E-01 -0.14856679204E-01  0.10306157697E-01  0.23188423058E-01  0.00000000000E+00 0. -1.
     999901    1    3    3    0    0  0.62850583364E-02  0.39501608018E-02 -0.13783877123E+00  0.89076070444E+00  0.88000000000E+00 0. -1.
        -11    1    4    4    0    0 -0.53214716919E-02  0.85768452934E-02  0.74896920259E-01  0.75575724419E-01  0.51100000000E-03 0. -1.
         11    1    4    4    0    0  0.13554166642E-01  0.23296731085E-02  0.52635693273E-01  0.54405148079E-01  0.51100000000E-03 0.  1.
</event>
<event>
 8    1  0.1150307E+005  0.1043930E+01  0.7957747E-01            NaN
         13   -1    0    0    0    0  0.00000000000E+00  0.00000000000E+00  0.74505805969E-08  0.10566000000E+00  0.10566000000E+00 0.  1.
     999900   -1    0    0    0    0 -0.00000000000E+00 -0.00000000000E+00 -0.74505805969E-08  0.93827000000E+00  0.93827000000E+00 0. -1.
     999902    2    1    2    0    0 -0.19891008047E-01  0.90212891848E-02  0.50705485988E-03  0.10220829644E+01  0.10218494474E+01 0.  0.
     999903    2    3    3    0    0 -0.65080414327E-01 -0.86837838644E-01  0.73635552736E-01  0.13271305709E+00  0.20354123593E-01 0.  0.
         14    1    1    2    0    0  0.19891008047E-01 -0.90212891848E-02 -0.50705485988E-03  0.21847035595E-01  0.00000000000E+00 0.  1.
     999901    1    3    3    0    0  0.45189406280E-01  0.95859127829E-01 -0.73128497876E-01  0.88936990731E+00  0.88000000000E+00 0. -1.
        -11    1    4    4    0    0 -0.17092729166E-01 -0.22484235832E-01  0.30533468038E-01  0.41596346507E-01  0.51100000000E-03 0.  1.
         11    1    4    4    0    0 -0.47987685160E-01 -0.64353602812E-01  0.43102084698E-01  0.91116710587E-01  0.51100000000E-03 0. -1.
</event>
<event>
 8    1  0.1150307E+005  0.1043930E+01  0.7957747E-01            NaN
         13   -1    0    0    0    0  0.00000000000E+00  0.00000000000E+00  0.74505805969E-08  0.10566000000E+00  0.10566000000E+00 0. -1.
     999900   -1    0    0    0    0 -0.00000000000E+00 -0.00000000000E+00 -0.74505805969E-08  0.93827000000E+00  0.93827000000E+00 0. -1.
     999902    2    1    2    0    0  0.20269395522E-01 -0.99649738141E-02  0.62647341509E-02  0.10204908022E+01  0.10202215845E+01 0.  0.
     999903    2    3    3    0    0 -0.14740586241E-01  0.18987996402E-01  0.12730873754E+00  0.13104399434E+00  0.19677014754E-01 0.  0.
         14    1    1    2    0    0 -0.20269395522E-01  0.99649738141E-02 -0.62647341509E-02  0.23439197766E-01  0.00000000000E+00 0.  1.
     999901    1    3    3    0    0  0.35009981764E-01 -0.28952970216E-01 -0.12104400339E+00  0.88944680789E+00  0.88000000000E+00 0. -1.
        -11    1    4    4    0    0 -0.66709251489E-02  0.47550819719E-02  0.89088677691E-01  0.89466002821E-01  0.51100000000E-03 0. -1.
         11    1    4    4    0    0 -0.80696610926E-02  0.14232914430E-01  0.38220059849E-01  0.41577991524E-01  0.51100000000E-03 0.  1.
</event>
<event>
 8    1  0.1150307E+005  0.1043930E+01  0.7957747E-01            NaN
         13   -1    0    0    0    0  0.00000000000E+00  0.00000000000E+00  0.74505805969E-08  0.10566000000E+00  0.10566000000E+00 0.  1.
     999900   -1    0    0    0    0 -0.00000000000E+00 -0.00000000000E+00 -0.74505805969E-08  0.93827000000E+00  0.93827000000E+00 0. -1.
     999902    2    1    2    0    0 -0.19079666418E-01 -0.14257056657E-01 -0.56110745606E-02  0.10194599879E+01  0.10191662698E+01 0.  0.
     999903    2    3    3    0    0 -0.12890287789E+00  0.21878612967E-02  0.18261016583E-01  0.13215989782E+00  0.22628194781E-01 0.  0.
         14    1    1    2    0    0  0.19079666418E-01  0.14257056657E-01  0.56110745606E-02  0.24470012114E-01  0.00000000000E+00 0.  1.
     999901    1    3    3    0    0  0.10982321147E+00 -0.16444917954E-01 -0.23872091144E-01  0.88730009007E+00  0.88000000000E+00 0.  1.
        -11    1    4    4    0    0 -0.58784683478E-01 -0.53033457298E-02 -0.10838673348E-02  0.59035585683E-01  0.51100000000E-03 0. -1.
         11    1    4    4    0    0 -0.70118194409E-01  0.74912070265E-02  0.19344883918E-01  0.73124312132E-01  0.51100000000E-03 0.  1.
</event>
<event>
 8    1  0.1150307E+005  0.1043930E+01  0.7957747E-01            NaN
         13   -1    0    0    0    0  0.00000000000E+00  0.00000000000E+00  0.74505805969E-08  0.10566000000E+00  0.10566000000E+00 0.  1.
     999900   -1    0    0    0    0 -0.00000000000E+00 -0.00000000000E+00 -0.74505805969E-08  0.93827000000E+00  0.93827000000E+00 0. -1.
     999902    2    1    2    0    0  0.13203559632E-01 -0.14751531553E-01 -0.13972510210E-01  0.10196983531E+01  0.10194103975E+01 0.  0.
     999903    2    3    3    0    0 -0.19388817872E-01  0.10471079765E+00 -0.70322462607E-01  0.12924407111E+00  0.20457364623E-01 0.  0.
         14    1    1    2    0    0 -0.13203559632E-01  0.14751531553E-01  0.13972510210E-01  0.24231646904E-01  0.00000000000E+00 0.  1.
     999901    1    3    3    0    0  0.32592377504E-01 -0.11946232920E+00  0.56349952397E-01  0.89045428198E+00  0.88000000000E+00 0. -1.
        -11    1    4    4    0    0 -0.87487259316E-02  0.10728344214E-01 -0.91642925219E-02  0.16609724664E-01  0.51100000000E-03 0.  1.
         11    1    4    4    0    0 -0.10640091941E-01  0.93982453436E-01 -0.61158170085E-01  0.11263434645E+00  0.51100000000E-03 0. -1.
</event>
<event>
 8    1  0.1150307E+005  0.1043930E+01  0.7957747E-01            NaN
         13   -1    0    0    0    0  0.00000000000E+00  0.00000000000E+00  0.74505805969E-08  0.10566000000E+00  0.10566000000E+00 0. -1.
     999900   -1    0    0    0    0 -0.00000000000E+00 -0.00000000000E+00 -0.74505805969E-08  0.93827000000E+00  0.93827000000E+00 0.  1.
     999902    2    1    2    0    0 -0.96748198152E-02 -0.46601082406E-02 -0.19312377154E-01  0.10218327907E+01  0.10215938359E+01 0.  0.
     999903    2    3    3    0    0 -0.10283592513E+00 -0.61447092225E-01 -0.57250055779E-01  0.13428390723E+00  0.20090450816E-01 0.  0.
         14    1    1    2    0    0  0.96748198152E-02  0.46601082406E-02  0.19312377154E-01  0.22097209294E-01  0.00000000000E+00 0. -1.
     999901    1    3    3    0    0  0.93161105319E-01  0.56786983984E-01  0.37937678625E-01  0.88754888347E+00  0.88000000000E+00 0. -1.
        -11    1    4    4    0    0 -0.22578852943E-01 -0.17458158837E-01 -0.22645729395E-01  0.36437372175E-01  0.51100000000E-03 0.  1.
         11    1    4    4    0    0 -0.80257072192E-01 -0.43988933388E-01 -0.34604326383E-01  0.97846535058E-01  0.51100000000E-03 0. -1.
</event>
<event>
 8    1  0.1150307E+005  0.1043930E+01  0.7957747E-01            NaN
         13   -1    0    0    0    0  0.00000000000E+00  0.00000000000E+00  0.74505805969E-08  0.10566000000E+00  0.10566000000E+00 0. -1.
     999900   -1    0    0    0    0 -0.00000000000E+00 -0.00000000000E+00 -0.74505805969E-08  0.93827000000E+00  0.93827000000E+00 0. -1.
     999902    2    1    2    0    0 -0.10081150354E-01  0.47345682405E-02  0.20883167971E-01  0.10202624603E+01  0.10199879095E+01 0.  0.
     999903    2    3    3    0    0  0.10262086103E+00 -0.22884595859E-01  0.75591737867E-01  0.13096071784E+00  0.19541057760E-01 0.  0.
         14    1    1    2    0    0  0.10081150354E-01 -0.47345682405E-02 -0.20883167971E-01  0.23667539656E-01  0.00000000000E+00 0.  1.
     999901    1    3    3    0    0 -0.11270201138E+00  0.27619164100E-01 -0.54708569896E-01  0.88930174250E+00  0.88000000000E+00 0. -1.
        -11    1    4    4    0    0  0.55076902224E-01 -0.12354358621E-01  0.52405331715E-01  0.77023861554E-01  0.51100000000E-03 0.  1.
         11    1    4    4    0    0  0.47543958805E-01 -0.10530237238E-01  0.23186406151E-01  0.53936856289E-01  0.51100000000E-03 0. -1.
</event>
<event>
 8    1  0.1150307E+005  0.1043930E+01  0.7957747E-01            NaN
         13   -1    0    0    0    0  0.00000000000E+00  0.00000000000E+00  0.74505805969E-08  0.10566000000E+00  0.10566000000E+00 0. -1.
     999900   -1    0    0    0    0 -0.00000000000E+00 -0.00000000000E+00 -0.74505805969E-08  0.93827000000E+00  0.93827000000E+00 0.  1.
     999902    2    1    2    0    0  0.59108105604E-03  0.31005575555E-02 -0.30322601933E-01  0.10134435600E+01  0.10129849092E+01 0.  0.
     999903    2    3    3    0    0  0.38601102726E-01  0.93825987393E-01  0.66137431711E-01  0.12272452270E+00  0.19844081176E-01 0.  0.
         14    1    1    2    0    0 -0.59108105604E-03 -0.31005575555E-02  0.30322601933E-01  0.30486439969E-01  0.00000000000E+00 0. -1.
     999901    1    3    3    0    0 -0.38010021670E-01 -0.90725429837E-01 -0.96460033644E-01  0.89071903733E+00  0.88000000000E+00 0.  1.
        -11    1    4    4    0    0  0.24550967213E-01  0.73184483221E-01  0.41500162606E-01  0.87642701880E-01  0.51100000000E-03 0. -1.
         11    1    4    4    0    0  0.14050135513E-01  0.20641504172E-01  0.24637269106E-01  0.35081820825E-01  0.51100000000E-03 0.  1.
</event>
<event>
 8    1  0.1150307E+005  0.1043930E+01  0.7957747E-01            NaN
         13   -1    0    0    0    0  0.00000000000E+00  0.00000000000E+00  0.74505805969E-08  0.10566000000E+00  0.10566000000E+00 0.  1.
     999900   -1    0    0    0    0 -0.00000000000E+00 -0.00000000000E+00 -0.74505805969E-08  0.93827000000E+00  0.93827000000E+00 0. -1.
     999902    2    1    2    0    0 -0.21455860926E-02  0.14353652791E-01 -0.18654298349E-01  0.10202949892E+01  0.10200212014E+01 0.  0.
     999903    2    3    3    0    0  0.16906239705E-01 -0.10547259794E+00  0.67195269751E-01  0.12783129204E+00  0.20380016921E-01 0.  0.
         14    1    1    2    0    0  0.21455860926E-02 -0.14353652791E-01  0.18654298349E-01  0.23635010789E-01  0.00000000000E+00 0.  1.
     999901    1    3    3    0    0 -0.19051825798E-01  0.11982625073E+00 -0.85849568099E-01  0.89246369717E+00  0.88000000000E+00 0. -1.
        -11    1    4    4    0    0  0.21110360611E-02 -0.39834639712E-01  0.14799421798E-01  0.42550428914E-01  0.51100000000E-03 0. -1.
         11    1    4    4    0    0  0.14795203644E-01 -0.65637958229E-01  0.52395847953E-01  0.85280863123E-01  0.51100000000E-03 0.  1.
</event>
<event>
 8    1  0.1150307E+005  0.1043930E+01  0.7957747E-01            NaN
         13   -1    0    0    0    0  0.00000000000E+00  0.00000000000E+00  0.74505805969E-08  0.10566000000E+00  0.10566000000E+00 0. -1.
     999900   -1    0    0    0    0 -0.00000000000E+00 -0.00000000000E+00 -0.74505805969E-08  0.93827000000E+00  0.93827000000E+00 0.  1.
     999902    2    1    2    0    0 -0.22698173035E-01  0.64390755266E-02  0.57776607055E-02  0.10196390528E+01  0.10193496691E+01 0.  0.
     999903    2    3    3    0    0 -0.12581185665E+00 -0.24015533107E-01 -0.27456514808E-01  0.13247253779E+00  0.19741934024E-01 0.  0.
         14    1    1    2    0    0  0.22698173035E-01 -0.64390755266E-02 -0.57776607055E-02  0.24290947202E-01  0.00000000000E+00 0.  1.
     999901    1    3    3    0    0  0.10311368361E+00  0.30454608634E-01  0.33234175514E-01  0.88716651501E+00  0.88000000000E+00 0. -1.
        -11    1    4    4    0    0 -0.44067434491E-01 -0.11728851037E-01 -0.78207916097E-03  0.45611155413E-01  0.51100000000E-03 0. -1.
         11    1    4    4    0    0 -0.81744422155E-01 -0.12286682070E-01 -0.26674435647E-01  0.86861382373E-01  0.51100000000E-03 0.  1.
</event>
<event>
 7    1  0.1150307E+005  0.1043930E+01  0.7957747E-01            NaN
         13   -1    0    0    0    0  0.00000000000E+00  0.00000000000E+00  0.74505805969E-08  0.10566000000E+00  0.10566000000E+00 0.  1.
     999900   -1    0    0    0    0 -0.00000000000E+00 -0.00000000000E+00 -0.74505805969E-08  0.93827000000E+00  0.93827000000E+00 0. -1.
     999903    2    1    2    0    0  0.60710274665E-01 -0.12033952368E-01 -0.84698488529E-01  0.10662095361E+00  0.19069355815E-01 0.  0.
         14    1    1    2    0    0  0.45035776444E-01  0.26623259544E-02 -0.89558453041E-02  0.45994742140E-01  0.00000000000E+00 0.  1.
     999901    1    1    2    0    0 -0.10574605111E+00  0.93716264135E-02  0.93654333833E-01  0.89131430425E+00  0.88000000000E+00 0.  1.
        -11    1    3    3    0    0  0.15281010372E-01  0.49484385449E-02 -0.24734076914E-01  0.29496304918E-01  0.51100000000E-03 0.  1.
         11    1    3    3    0    0  0.45429264293E-01 -0.16982390913E-01 -0.59964411614E-01  0.77124648697E-01  0.51100000000E-03 0. -1.
</event>
<event>
 8    1  0.1150307E+005  0.1043930E+01  0.7957747E-01            NaN
         13   -1    0    0    0    0  0.00000000000E+00  0.00000000000E+00  0.74505805969E-08  0.10566000000E+00  0.10566000000E+00 0. -1.
     999900   -1    0    0    0    0 -0.00000000000E+00 -0.00000000000E+00 -0.74505805969E-08  0.93827000000E+00  0.93827000000E+00 0. -1.
     999902    2    1    2    0    0  0.16843683584E-01  0.29684086377E-02  0.12934704882E-01  0.10224864062E+01  0.10222615238E+01 0.  0.
     999903    2    3    3    0    0 -0.11648600962E-01  0.21458348010E-01  0.13028435538E+00  0.13404697175E+00  0.19960630602E-01 0.  0.
         14    1    1    2    0    0 -0.16843683584E-01 -0.29684086377E-02 -0.12934704882E-01  0.21443593843E-01  0.00000000000E+00 0.  1.
     999901    1    3    3    0    0  0.28492284546E-01 -0.18489939372E-01 -0.11734965050E+00  0.88843943441E+00  0.88000000000E+00 0. -1.
        -11    1    4    4    0    0 -0.12092048580E-01  0.14355052452E-01  0.49391283968E-01  0.52839807179E-01  0.51100000000E-03 0. -1.
         11    1    4    4    0    0  0.44344761765E-03  0.71032955572E-02  0.80893071415E-01  0.81207164571E-01  0.51100000000E-03 0.  1.
</event>
<event>
 8    1  0.1150307E+005  0.1043930E+01  0.7957747E-01            NaN
         13   -1    0    0    0    0  0.00000000000E+00  0.00000000000E+00  0.74505805969E-08  0.10566000000E+00  0.10566000000E+00 0. -1.
     999900   -1    0    0    0    0 -0.00000000000E+00 -0.00000000000E+00 -0.74505805969E-08  0.93827000000E+00  0.93827000000E+00 0. -1.
     999902    2    1    2    0    0 -0.99270496121E-02 -0.86289817732E-02 -0.20402823568E-01  0.10196548924E+01  0.10193658905E+01 0.  0.
     999903    2    3    3    0    0  0.71055934800E-01  0.12722038027E-01 -0.10793653255E+00  0.13135524698E+00  0.19826994934E-01 0.  0.
         14    1    1    2    0    0  0.99270496121E-02  0.86289817732E-02  0.20402823568E-01  0.24275107621E-01  0.00000000000E+00 0. -1.
     999901    1    3    3    0    0 -0.80982984412E-01 -0.21351019800E-01  0.87533708981E-01  0.88829964540E+00  0.88000000000E+00 0.  1.
        -11    1    4    4    0    0  0.24815190515E-01 -0.45798673904E-02 -0.41656348522E-01  0.48706071067E-01  0.51100000000E-03 0. -1.
         11    1    4    4    0    0  0.46240744286E-01  0.17301905417E-01 -0.66280184028E-01  0.82649175912E-01  0.51100000000E-03 0.  1.
</event>
<event>
 8    1  0.1150307E+005  0.1043930E+01  0.7957747E-01            NaN
         13   -1    0    0    0    0  0.00000000000E+00  0.00000000000E+00  0.74505805969E-08  0.10566000000E+00  0.10566000000E+00 0. -1.
     999900   -1    0    0    0    0 -0.00000000000E+00 -0.00000000000E+00 -0.74505805969E-08  0.93827000000E+00  0.93827000000E+00 0. -1.
     999902    2    1    2    0    0 -0.52030478560E-02  0.18714665929E-01 -0.20178404449E-01  0.10159214578E+01  0.10155352924E+01 0.  0.
     999903    2    3    3    0    0 -0.37959863895E-01 -0.11246256103E+00  0.30376219077E-01  0.12416126371E+00  0.20112827269E-01 0.  0.
         14    1    1    2    0    0  0.52030478560E-02 -0.18714665929E-01  0.20178404449E-01  0.28008542160E-01  0.00000000000E+00 0.  1.
     999901    1    3    3    0    0  0.32756816039E-01  0.13117722696E+00 -0.50554623526E-01  0.89176019413E+00  0.88000000000E+00 0. -1.
        -11    1    4    4    0    0 -0.19320523916E-01 -0.56276444128E-01  0.48725689246E-02  0.59701958569E-01  0.51100000000E-03 0. -1.
         11    1    4    4    0    0 -0.18639339979E-01 -0.56186116903E-01  0.25503650152E-01  0.64459305144E-01  0.51100000000E-03 0.  1.
</event>
<event>
 8    1  0.1150307E+005  0.1043930E+01  0.7957747E-01            NaN
         13   -1    0    0    0    0  0.00000000000E+00  0.00000000000E+00  0.74505805969E-08  0.10566000000E+00  0.10566000000E+00 0. -1.
     999900   -1    0    0    0    0 -0.00000000000E+00 -0.00000000000E+00 -0.74505805969E-08  0.93827000000E+00  0.93827000000E+00 0.  1.
     999902    2    1    2    0    0  0.15397874618E-01 -0.18431453875E-01  0.34045410702E-02  0.10196729611E+01  0.10193843945E+01 0.  0.
     999903    2    3    3    0    0  0.12218351849E+00 -0.36320501891E-01 -0.29769542264E-01  0.13241667821E+00  0.19998999326E-01 0.  0.
         14    1    1    2    0    0 -0.15397874618E-01  0.18431453875E-01 -0.34045410702E-02  0.24257038867E-01  0.00000000000E+00 0.  1.
     999901    1    3    3    0    0 -0.10678564387E+00  0.17889048016E-01  0.33174083334E-01  0.88725628292E+00  0.88000000000E+00 0. -1.
        -11    1    4    4    0    0  0.83107142850E-01 -0.33814358983E-01 -0.23573917499E-01  0.92769600481E-01  0.51100000000E-03 0.  1.
         11    1    4    4    0    0  0.39076375640E-01 -0.25061429080E-02 -0.61956247644E-02  0.39647077732E-01  0.51100000000E-03 0. -1.
</event>
<event>
 8    1  0.1150307E+005  0.1043930E+01  0.7957747E-01            NaN
         13   -1    0    0    0    0  0.00000000000E+00  0.00000000000E+00  0.74505805969E-08  0.10566000000E+00  0.10566000000E+00 0.  1.
     999900   -1    0    0    0    0 -0.00000000000E+00 -0.00000000000E+00 -0.74505805969E-08  0.93827000000E+00  0.93827000000E+00 0.  1.
     999902    2    1    2    0    0 -0.96117259676E-02 -0.93045078664E-02 -0.20761647758E-01  0.10192317175E+01  0.10189324260E+01 0.  0.
     999903    2    3    3    0    0 -0.12867140925E-01  0.57092554080E-01  0.11125861954E+00  0.12690413269E+00  0.17350948821E-01 0.  0.
         14    1    1    2    0    0  0.96117259676E-02  0.93045078664E-02  0.20761647758E-01  0.24698282538E-01  0.00000000000E+00 0.  1.
     999901    1    3    3    0    0  0.32554149575E-02 -0.66397061946E-01 -0.13202026730E+00  0.89232758477E+00  0.88000000000E+00 0.  1.
        -11    1    4    4    0    0 -0.10819656616E-01  0.13971583707E-01  0.27908051725E-01  0.33036201244E-01  0.51100000000E-03 0.  1.
         11    1    4    4    0    0 -0.20474843095E-02  0.43120970373E-01  0.83350567817E-01  0.93867931448E-01  0.51100000000E-03 0. -1.
</event>
<event>
 8    1  0.1150307E+005  0.1043930E+01  0.7957747E-01            NaN
         13   -1    0    0    0    0  0.00000000000E+00  0.00000000000E+00  0.74505805969E-08  0.10566000000E+00  0.10566000000E+00 0.  1.
     999900   -1    0    0    0    0 -0.00000000000E+00 -0.00000000000E+00 -0.74505805969E-08  0.93827000000E+00  0.93827000000E+00 0.  1.
     999902    2    1    2    0    0  0.85212239632E-02  0.17327432023E-01 -0.13797762535E-01  0.10201975452E+01  0.10199214685E+01 0.  0.
     999903    2    3    3    0    0  0.62997701839E-01  0.82399594452E-01  0.78260521376E-01  0.13133490084E+00  0.19124418133E-01 0.  0.
         14    1    1    2    0    0 -0.85212239632E-02 -0.17327432023E-01  0.13797762535E-01  0.23732454768E-01  0.00000000000E+00 0.  1.
     999901    1    3    3    0    0 -0.54476477876E-01 -0.65072162430E-01 -0.92058283911E-01  0.88886264440E+00  0.88000000000E+00 0.  1.
        -11    1    4    4    0    0  0.36546858280E-01  0.40464221841E-01  0.30440779498E-01  0.62449405736E-01  0.51100000000E-03 0. -1.
         11    1    4    4    0    0  0.26450843559E-01  0.41935372612E-01  0.47819741878E-01  0.68885495101E-01  0.51100000000E-03 0.  1.
</event>
<event>
 8    1  0.1150307E+005  0.1043930E+01  0.7957747E-01            NaN
         13   -1    0    0    0    0  0.00000000000E+00  0.00000000000E+00  0.74505805969E-08  0.10566000000E+00  0.10566000000E+00 0.  1.
     999900   -1    0    0    0    0 -0.00000000000E+00 -0.00000000000E+00 -0.74505805969E-08  0.93827000000E+00  0.93827000000E+00 0.  1.
     999902    2    1    2    0    0  0.11748168631E-01 -0.76446530107E-02 -0.18782314460E-01  0.10204942256E+01  0.10202250874E+01 0.  0.
     999903    2    3    3    0    0 -0.52403570338E-01 -0.78336062088E-01 -0.90747184401E-01  0.13241108565E+00  0.20370844840E-01 0.  0.
         14    1    1    2    0    0 -0.11748168631E-01  0.76446530107E-02  0.18782314460E-01  0.23435774413E-01  0.00000000000E+00 0.  1.
     999901    1    3    3    0    0  0.64151738969E-01  0.70691409077E-01  0.71964869940E-01  0.88808313993E+00  0.88000000000E+00 0. -1.
        -11    1    4    4    0    0 -0.23370689680E-01 -0.40703406998E-01 -0.58356079093E-01  0.74890917777E-01  0.51100000000E-03 0. -1.
         11    1    4    4    0    0 -0.29032880658E-01 -0.37632655090E-01 -0.32391105308E-01  0.57520167876E-01  0.51100000000E-03 0.  1.
</event>
<event>
 8    1  0.1150307E+005  0.1043930E+01  0.7957747E-01            NaN
         13   -1    0    0    0    0  0.00000000000E+00  0.00000000000E+00  0.74505805969E-08  0.10566000000E+00  0.10566000000E+00 0. -1.
     999900   -1    0    0    0    0 -0.00000000000E+00 -0.00000000000E+00 -0.74505805969E-08  0.93827000000E+00  0.93827000000E+00 0. -1.
     999902    2    1    2    0    0  0.15457486063E-01  0.48492504429E-02  0.17113600252E-01  0.10203646776E+01  0.10200925208E+01 0.  0.
     999903    2    3    3    0    0  0.63888583603E-01  0.63859179130E-01  0.96337370193E-01  0.13351398634E+00  0.19630328067E-01 0.  0.
         14    1    1    2    0    0 -0.15457486063E-01 -0.48492504429E-02 -0.17113600252E-01  0.23565322379E-01  0.00000000000E+00 0. -1.
     999901    1    3    3    0    0 -0.48431097540E-01 -0.59009928687E-01 -0.79223769941E-01  0.88685069128E+00  0.88000000000E+00 0. -1.
        -11    1    4    4    0    0  0.27336836041E-01  0.32420064554E-01  0.58338214575E-01  0.72124694739E-01  0.51100000000E-03 0.  1.
         11    1    4    4    0    0  0.36551747562E-01  0.31439114575E-01  0.37999155618E-01  0.61389291605E-01  0.51100000000E-03 0. -1.
</event>
<event>
 8    1  0.1150307E+005  0.1043930E+01  0.7957747E-01            NaN
         13   -1    0    0    0    0  0.00000000000E+00  0.00000000000E+00  0.74505805969E-08  0.10566000000E+00  0.10566000000E+00 0.  1.
     999900   -1    0    0    0    0 -0.00000000000E+00 -0.00000000000E+00 -0.74505805969E-08  0.93827000000E+00  0.93827000000E+00 0.  1.
     999902    2    1    2    0    0  0.66879965871E-02  0.18122665175E-01 -0.13577799667E-01  0.10203182035E+01  0.10200449595E+01 0.  0.
     999903    2    3    3    0    0 -0.77945645409E-01  0.50320774925E-01  0.88754323509E-01  0.12977262066E+00  0.18865288363E-01 0.  0.
         14    1    1    2    0    0 -0.66879965871E-02 -0.18122665175E-01  0.13577799667E-01  0.23611796526E-01  0.00000000000E+00 0. -1.
     999901    1    3    3    0    0  0.84633641996E-01 -0.32198109750E-01 -0.10233212318E+00  0.89054558281E+00  0.88000000000E+00 0.  1.
        -11    1    4    4    0    0 -0.33069066244E-01  0.12205427273E-01  0.40080644894E-01  0.53378411491E-01  0.51100000000E-03 0.  1.
         11    1    4    4    0    0 -0.44876579164E-01  0.38115347652E-01  0.48673678616E-01  0.76394209173E-01  0.51100000000E-03 0. -1.
</event>
<event>
 8    1  0.1150307E+005  0.1043930E+01  0.7957747E-01            NaN
         13   -1    0    0    0    0  0.00000000000E+00  0.00000000000E+00  0.74505805969E-08  0.10566000000E+00  0.10566000000E+00 0.  1.
     999900   -1    0    0    0    0 -0.00000000000E+00 -0.00000000000E+00 -0.74505805969E-08  0.93827000000E+00  0.93827000000E+00 0. -1.
     999902    2    1    2    0    0  0.21096974035E-01  0.86571786378E-02 -0.46816334178E-02  0.10206502503E+01  0.10203847248E+01 0.  0.
     999903    2    3    3    0    0  0.50109630259E-01  0.83881053482E-01 -0.88329431411E-01  0.13301444677E+00  0.18540453569E-01 0.  0.
         14    1    1    2    0    0 -0.21096974035E-01 -0.86571786378E-02  0.46816334178E-02  0.23279749716E-01  0.00000000000E+00 0.  1.
     999901    1    3    3    0    0 -0.29012656224E-01 -0.75223874845E-01  0.83647797993E-01  0.88763580351E+00  0.88000000000E+00 0. -1.
        -11    1    4    4    0    0  0.24488141920E-01  0.55942167849E-01 -0.48110966994E-01  0.77743948346E-01  0.51100000000E-03 0.  1.
         11    1    4    4    0    0  0.25621488338E-01  0.27938885633E-01 -0.40218464417E-01  0.55270498425E-01  0.51100000000E-03 0. -1.
</event>
<event>
 8    1  0.1150307E+005  0.1043930E+01  0.7957747E-01            NaN
         13   -1    0    0    0    0  0.00000000000E+00  0.00000000000E+00  0.74505805969E-08  0.10566000000E+00  0.10566000000E+00 0. -1.
     999900   -1    0    0    0    0 -0.00000000000E+00 -0.00000000000E+00 -0.74505805969E-08  0.93827000000E+00  0.93827000000E+00 0.  1.
     999902    2    1    2    0    0  0.22949573738E-01  0.13291864755E-02  0.70172369477E-02  0.10198947907E+01  0.10196115402E+01 0.  0.
     999903    2    3    3    0    0  0.52267536318E-01  0.82115826053E-01 -0.85187324921E-01  0.13091351683E+00  0.20163440225E-01 0.  0.
         14    1    1    2    0    0 -0.22949573738E-01 -0.13291864755E-02 -0.70172369477E-02  0.24035209294E-01  0.00000000000E+00 0.  1.
     999901    1    3    3    0    0 -0.29317962580E-01 -0.80786639577E-01  0.92204561868E-01  0.88898127387E+00  0.88000000000E+00 0. -1.
        -11    1    4    4    0    0  0.31613933176E-01  0.32324230908E-01 -0.43780871200E-01  0.62939037796E-01  0.51100000000E-03 0.  1.
         11    1    4    4    0    0  0.20653603142E-01  0.49791595145E-01 -0.41406453721E-01  0.67974479039E-01  0.51100000000E-03 0. -1.
</event>
<event>
 8    1  0.1150307E+005  0.1043930E+01  0.7957747E-01            NaN
         13   -1    0    0    0    0  0.00000000000E+00  0.00000000000E+00  0.74505805969E-08  0.10566000000E+00  0.10566000000E+00 0.  1.
     999900   -1    0    0    0    0 -0.00000000000E+00 -0.00000000000E+00 -0.74505805969E-08  0.93827000000E+00  0.93827000000E+00 0.  1.
     999902    2    1    2    0    0  0.17723612531E-03  0.15331903062E-01 -0.17702773386E-01  0.10205102039E+01  0.10202414368E+01 0.  0.
     999903    2    3    3    0    0 -0.14611424111E-01  0.13019244003E+00  0.20461404159E-02  0.13270297987E+00  0.21031619546E-01 0.  0.
         14    1    1    2    0    0 -0.17723612531E-03 -0.15331903062E-01  0.17702773386E-01  0.23419796107E-01  0.00000000000E+00 0.  1.
     999901    1    3    3    0    0  0.14788660236E-01 -0.11486053697E+00 -0.19748913802E-01  0.88780722402E+00  0.88000000000E+00 0.  1.
        -11    1    4    4    0    0 -0.81361809436E-03  0.21337925891E-01 -0.73157167244E-02  0.22577641328E-01  0.51100000000E-03 0. -1.
         11    1    4    4    0    0 -0.13797806017E-01  0.10885451414E+00  0.93618571403E-02  0.11012533855E+00  0.51100000000E-03 0.  1.
</event>
<event>
 8    1  0.1150307E+005  0.1043930E+01  0.7957747E-01            NaN
         13   -1    0    0    0    0  0.00000000000E+00  0.00000000000E+00  0.74505805969E-08  0.10566000000E+00  0.10566000000E+00 0.  1.
     999900   -1    0    0    0    0 -0.00000000000E+00 -0.00000000000E+00 -0.74505805969E-08  0.93827000000E+00  0.93827000000E+00 0.  1.
     999902    2    1    2    0    0 -0.11816546323E-01  0.73108572537E-03  0.20572407147E-01  0.10201941792E+01  0.10199180232E+01 0.  0.
     999903    2    3    3    0    0 -0.10560405494E+00 -0.50334316253E-01  0.59781221527E-01  0.13287174447E+00  0.19883315045E-01 0.  0.
         14    1    1    2    0    0  0.11816546323E-01 -0.73108572537E-03 -0.20572407147E-01  0.23735820802E-01  0.00000000000E+00 0. -1.
     999901    1    3    3    0    0  0.93787508621E-01  0.51065401978E-01 -0.39208814380E-01  0.88732243473E+00  0.88000000000E+00 0.  1.
        -11    1    4    4    0    0 -0.20295154447E-01 -0.16356019086E-02  0.11946185129E-01  0.23612305008E-01  0.51100000000E-03 0.  1.
         11    1    4    4    0    0 -0.85308900497E-01 -0.48698714344E-01  0.47835036398E-01  0.10925943946E+00  0.51100000000E-03 0. -1.
</event>
<event>
 8    1  0.1150307E+005  0.1043930E+01  0.7957747E-01            NaN
         13   -1    0    0    0    0  0.00000000000E+00  0.00000000000E+00  0.74505805969E-08  0.10566000000E+00  0.10566000000E+00 0. -1.
     999900   -1    0    0    0    0 -0.00000000000E+00 -0.00000000000E+00 -0.74505805969E-08  0.93827000000E+00  0.93827000000E+00 0.  1.
     999902    2    1    2    0    0 -0.17824266148E-01 -0.79894292141E-02  0.13442805114E-01  0.10202183056E+01  0.10199427173E+01 0.  0.
     999903    2    3    3    0    0 -0.12509241674E+00  0.31388921364E-01 -0.20595208007E-01  0.13217793659E+00  0.20333893308E-01 0.  0.
         14    1    1    2    0    0  0.17824266148E-01  0.79894292141E-02 -0.13442805114E-01  0.23711694419E-01  0.00000000000E+00 0.  1.
     999901    1    3    3    0    0  0.10726815059E+00 -0.39378350578E-01  0.34038013121E-01  0.88804036899E+00  0.88000000000E+00 0. -1.
        -11    1    4    4    0    0 -0.35175088023E-01  0.81758643291E-02  0.33569430471E-02  0.36272052087E-01  0.51100000000E-03 0.  1.
         11    1    4    4    0    0 -0.89917328717E-01  0.23213057035E-01 -0.23952151054E-01  0.95905884500E-01  0.51100000000E-03 0. -1.
</event>
<event>
 8    1  0.1150307E+005  0.1043930E+01  0.7957747E-01            NaN
         13   -1    0    0    0    0  0.00000000000E+00  0.00000000000E+00  0.74505805969E-08  0.10566000000E+00  0.10566000000E+00 0. -1.
     999900   -1    0    0    0    0 -0.00000000000E+00 -0.00000000000E+00 -0.74505805969E-08  0.93827000000E+00  0.93827000000E+00 0.  1.
     999902    2    1    2    0    0 -0.21756115738E-01  0.35621907640E-02 -0.86469894121E-02  0.10202490329E+01  0.10199741668E+01 0.  0.
     999903    2    3    3    0    0 -0.89151634165E-01 -0.89516208916E-01  0.32771917068E-01  0.13181148859E+00  0.18414788714E-01 0.  0.
         14    1    1    2    0    0  0.21756115738E-01 -0.35621907640E-02  0.86469894121E-02  0.23680967061E-01  0.00000000000E+00 0. -1.
     999901    1    3    3    0    0  0.67395518427E-01  0.93078399680E-01 -0.41418906481E-01  0.88843754435E+00  0.88000000000E+00 0.  1.
        -11    1    4    4    0    0 -0.28214621427E-01 -0.30489138813E-01  0.19672257003E-01  0.45966414527E-01  0.51100000000E-03 0. -1.
         11    1    4    4    0    0 -0.60937012738E-01 -0.59027070103E-01  0.13099660065E-01  0.85845074065E-01  0.51100000000E-03 0.  1.
</event>
<event>
 8    1  0.1150307E+005  0.1043930E+01  0.7957747E-01            NaN
         13   -1    0    0    0    0  0.00000000000E+00  0.00000000000E+00  0.74505805969E-08  0.10566000000E+00  0.10566000000E+00 0. -1.
     999900   -1    0    0    0    0 -0.00000000000E+00 -0.00000000000E+00 -0.74505805969E-08  0.93827000000E+00  0.93827000000E+00 0. -1.
     999902    2    1    2    0    0  0.50633928404E-02 -0.23467801022E-01  0.85594372326E-03  0.10199069221E+01  0.10196239608E+01 0.  0.
     999903    2    3    3    0    0 -0.12794591498E-01  0.17602215365E-01 -0.12610812976E+00  0.12966789251E+00  0.20903645593E-01 0.  0.
         14    1    1    2    0    0 -0.50633928404E-02  0.23467801022E-01 -0.85594372326E-03  0.24023077894E-01  0.00000000000E+00 0. -1.
     999901    1    3    3    0    0  0.17857984338E-01 -0.41070016387E-01  0.12696407349E+00  0.89023902959E+00  0.88000000000E+00 0.  1.
        -11    1    4    4    0    0 -0.14841618008E-01  0.27089145376E-02 -0.59953319648E-01  0.61824538016E-01  0.51100000000E-03 0. -1.
         11    1    4    4    0    0  0.20470265097E-02  0.14893300827E-01 -0.66154810117E-01  0.67843354499E-01  0.51100000000E-03 0.  1.
</event>
<event>
 8    1  0.1150307E+005  0.1043930E+01  0.7957747E-01            NaN
         13   -1    0    0    0    0  0.00000000000E+00  0.00000000000E+00  0.74505805969E-08  0.10566000000E+00  0.10566000000E+00 0.  1.
     999900   -1    0    0    0    0 -0.00000000000E+00 -0.00000000000E+00 -0.74505805969E-08  0.93827000000E+00  0.93827000000E+00 0. -1.
     999902    2    1    2    0    0 -0.77930732227E-02 -0.78238134439E-02 -0.17363725660E-01  0.10233522689E+01  0.10231453579E+01 0.  0.
     999903    2    3    3    0    0 -0.13120185211E+00 -0.15930073346E-01  0.12801402810E-01  0.13419234342E+00  0.19391129057E-01 0.  0.
         14    1    1    2    0    0  0.77930732227E-02  0.78238134439E-02  0.17363725660E-01  0.20577731066E-01  0.00000000000E+00 0.  1.
     999901    1    3    3    0    0  0.12340877889E+00  0.81062599017E-02 -0.30165128470E-01  0.88915992551E+00  0.88000000000E+00 0.  1.
        -11    1    4    4    0    0 -0.53773490228E-01 -0.40567025346E-03  0.12543358869E-01  0.55220918069E-01  0.51100000000E-03 0.  1.
         11    1    4    4    0    0 -0.77428361881E-01 -0.15524403092E-01  0.25804394120E-03  0.78971425356E-01  0.51100000000E-03 0. -1.
</event>
<event>
 8    1  0.1150307E+005  0.1043930E+01  0.7957747E-01            NaN
         13   -1    0    0    0    0  0.00000000000E+00  0.00000000000E+00  0.74505805969E-08  0.10566000000E+00  0.10566000000E+00 0.  1.
     999900   -1    0    0    0    0 -0.00000000000E+00 -0.00000000000E+00 -0.74505805969E-08  0.93827000000E+00  0.93827000000E+00 0. -1.
     999902    2    1    2    0    0  0.14934063536E-01 -0.37391139303E-02  0.17321202968E-01  0.10207560642E+01  0.10204929747E+01 0.  0.
     999903    2    3    3    0    0  0.92973664547E-01 -0.75159195069E-01  0.57098714335E-01  0.13352821428E+00  0.16628707954E-01 0.  0.
         14    1    1    2    0    0 -0.14934063536E-01  0.37391139303E-02 -0.17321202968E-01  0.23173935767E-01  0.00000000000E+00 0. -1.
     999901    1    3    3    0    0 -0.78039601011E-01  0.71420081139E-01 -0.39777511368E-01  0.88722784995E+00  0.88000000000E+00 0.  1.
        -11    1    4    4    0    0  0.41732927249E-01 -0.36951530813E-01  0.17900667017E-01  0.58546971287E-01  0.51100000000E-03 0. -1.
         11    1    4    4    0    0  0.51240737298E-01 -0.38207664256E-01  0.39198047318E-01  0.74981242996E-01  0.51100000000E-03 0.  1.
</event>
<event>
 8    1  0.1150307E+005  0.1043930E+01  0.7957747E-01            NaN
         13   -1    0    0    0    0  0.00000000000E+00  0.00000000000E+00  0.74505805969E-08  0.10566000000E+00  0.10566000000E+00 0.  1.
     999900   -1    0    0    0    0 -0.00000000000E+00 -0.00000000000E+00 -0.74505805969E-08  0.93827000000E+00  0.93827000000E+00 0.  1.
     999902    2    1    2    0    0  0.18225038335E-01  0.16201793121E-01  0.25665828813E-02  0.10194098558E+01  0.10191149183E+01 0.  0.
     999903    2    3    3    0    0  0.14906576158E-01 -0.71218788169E-01 -0.10381568400E+00  0.12869634581E+00  0.22152457597E-01 0.  0.
         14    1    1    2    0    0 -0.18225038335E-01 -0.16201793121E-01 -0.25665828813E-02  0.24520144174E-01  0.00000000000E+00 0. -1.
     999901    1    3    3    0    0  0.33184621767E-02  0.87420581290E-01  0.10638226689E+00  0.89071351002E+00  0.88000000000E+00 0. -1.
        -11    1    4    4    0    0  0.15593793323E-01 -0.23164656546E-01 -0.40818732704E-01  0.49459051383E-01  0.51100000000E-03 0. -1.
         11    1    4    4    0    0 -0.68721716482E-03 -0.48054131623E-01 -0.62996951300E-01  0.79237294423E-01  0.51100000000E-03 0.  1.
</event>
<event>
 8    1  0.1150307E+005  0.1043930E+01  0.7957747E-01            NaN
         13   -1    0    0    0    0  0.00000000000E+00  0.00000000000E+00  0.74505805969E-08  0.10566000000E+00  0.10566000000E+00 0. -1.
     999900   -1    0    0    0    0 -0.00000000000E+00 -0.00000000000E+00 -0.74505805969E-08  0.93827000000E+00  0.93827000000E+00 0. -1.
     999902    2    1    2    0    0  0.10384054540E-01  0.28040619090E-02 -0.21567700787E-01  0.10198290235E+01  0.10195442021E+01 0.  0.
     999903    2    3    3    0    0  0.11198411575E+00  0.66045999912E-01  0.15159526881E-02  0.13142879261E+00  0.19201904304E-01 0.  0.
         14    1    1    2    0    0 -0.10384054540E-01 -0.28040619090E-02  0.21567700787E-01  0.24100976518E-01  0.00000000000E+00 0. -1.
     999901    1    3    3    0    0 -0.10160006121E+00 -0.63241938003E-01 -0.23083653475E-01  0.88840023087E+00  0.88000000000E+00 0.  1.
        -11    1    4    4    0    0  0.57463938203E-01  0.23626668485E-01 -0.29546839661E-02  0.62203817696E-01  0.51100000000E-03 0. -1.
         11    1    4    4    0    0  0.54520177547E-01  0.42419331427E-01  0.44706366542E-02  0.69224974912E-01  0.51100000000E-03 0.  1.
</event>
<event>
 8    1  0.1150307E+005  0.1043930E+01  0.7957747E-01            NaN
         13   -1    0    0    0    0  0.00000000000E+00  0.00000000000E+00  0.74505805969E-08  0.10566000000E+00  0.10566000000E+00 0. -1.
     999900   -1    0    0    0    0 -0.00000000000E+00 -0.00000000000E+00 -0.74505805969E-08  0.93827000000E+00  0.93827000000E+00 0. -1.
     999902    2    1    2    0    0 -0.13111856433E-01 -0.18836234532E-01  0.72040202115E-02  0.10198754283E+01  0.10195917158E+01 0.  0.
     999903    2    3    3    0    0 -0.32447871191E-01  0.12372683456E-01  0.12487155540E+00  0.13128467503E+00  0.20900069586E-01 0.  0.
         14    1    1    2    0    0  0.13111856433E-01  0.18836234532E-01 -0.72040202115E-02  0.24054571658E-01  0.00000000000E+00 0.  1.
     999901    1    3    3    0    0  0.19336014758E-01 -0.31208917988E-01 -0.11766753519E+00  0.88859075331E+00  0.88000000000E+00 0. -1.
        -11    1    4    4    0    0 -0.99042681558E-02  0.14810950307E-01  0.57268856803E-01  0.59978678355E-01  0.51100000000E-03 0. -1.
         11    1    4    4    0    0 -0.22543603035E-01 -0.24382668512E-02  0.67602698601E-01  0.71305996677E-01  0.51100000000E-03 0.  1.
</event>
<event>
 8    1  0.1150307E+005  0.1043930E+01  0.7957747E-01            NaN
         13   -1    0    0    0    0  0.00000000000E+00  0.00000000000E+00  0.74505805969E-08  0.10566000000E+00  0.10566000000E+00 0. -1.
     999900   -1    0    0    0    0 -0.00000000000E+00 -0.00000000000E+00 -0.74505805969E-08  0.93827000000E+00  0.93827000000E+00 0. -1.
     999902    2    1    2    0    0 -0.56576596950E-02  0.19232497972E-01  0.14047135495E-01  0.10194510272E+01  0.10191570913E+01 0.  0.
     999903    2    3    3    0    0  0.29315888613E-01 -0.69837002432E-01  0.10315239141E+00  0.12979026515E+00  0.21644141016E-01 0.  0.
         14    1    1    2    0    0  0.56576596950E-02 -0.19232497972E-01 -0.14047135495E-01  0.24478972754E-01  0.00000000000E+00 0.  1.
     999901    1    3    3    0    0 -0.34973548308E-01  0.89069500404E-01 -0.89105255914E-01  0.88966076210E+00  0.88000000000E+00 0. -1.
        -11    1    4    4    0    0  0.29221031944E-01 -0.60611251729E-01  0.78108386994E-01  0.10309594456E+00  0.51100000000E-03 0.  1.
         11    1    4    4    0    0  0.94856668366E-04 -0.92257507029E-02  0.25044004414E-01  0.26694320593E-01  0.51100000000E-03 0. -1.
</event>
<event>
 8    1  0.1150307E+005  0.1043930E+01  0.7957747E-01            NaN
         13   -1    0    0    0    0  0.00000000000E+00  0.00000000000E+00  0.74505805969E-08  0.10566000000E+00  0.10566000000E+00 0. -1.
     999900   -1    0    0    0    0 -0.00000000000E+00 -0.00000000000E+00 -0.74505805969E-08  0.93827000000E+00  0.93827000000E+00 0.  1.
     999902    2    1    2    0    0  0.72968689386E-02  0.13161436627E-01 -0.17141473992E-01  0.10211199618E+01  0.10208651618E+01 0.  0.
     999903    2    3    3    0    0 -0.12474963093E+00  0.32819552603E-01  0.59086341109E-02  0.13075260668E+00  0.20536278726E-01 0.  0.
         14    1    1    2    0    0 -0.72968689386E-02 -0.13161436627E-01  0.17141473992E-01  0.22810038164E-01  0.00000000000E+00 0. -1.
     999901    1    3    3    0    0  0.13204649987E+00 -0.19658115976E-01 -0.23050108103E-01  0.89036735516E+00  0.88000000000E+00 0.  1.
        -11    1    4    4    0    0 -0.54410963042E-01  0.21232007008E-01  0.10379076096E-01  0.59324003256E-01  0.51100000000E-03 0.  1.
         11    1    4    4    0    0 -0.70338667893E-01  0.11587545595E-01 -0.44704419851E-02  0.71428603419E-01  0.51100000000E-03 0. -1.
</event>
<event>
 8    1  0.1150307E+005  0.1043930E+01  0.7957747E-01            NaN
         13   -1    0    0    0    0  0.00000000000E+00  0.00000000000E+00  0.74505805969E-08  0.10566000000E+00  0.10566000000E+00 0. -1.
     999900   -1    0    0    0    0 -0.00000000000E+00 -0.00000000000E+00 -0.74505805969E-08  0.93827000000E+00  0.93827000000E+00 0. -1.
     999902    2    1    2    0    0  0.60916019579E-02 -0.19787423042E-01  0.11097137423E-01  0.10204396576E+01  0.10201692500E+01 0.  0.
     999903    2    3    3    0    0  0.13667312167E-02  0.96896907442E-01  0.83774788913E-01  0.12975475353E+00  0.20668869854E-01 0.  0.
         14    1    1    2    0    0 -0.60916019579E-02  0.19787423042E-01 -0.11097137423E-01  0.23490342357E-01  0.00000000000E+00 0. -1.
     999901    1    3    3    0    0  0.47248707413E-02 -0.11668433048E+00 -0.72677651490E-01  0.89068490411E+00  0.88000000000E+00 0. -1.
        -11    1    4    4    0    0 -0.75008382455E-02  0.29440223230E-01  0.19149558126E-01  0.35915957674E-01  0.51100000000E-03 0. -1.
         11    1    4    4    0    0  0.88675694622E-02  0.67456684212E-01  0.64625230787E-01  0.93838795859E-01  0.51100000000E-03 0.  1.
</event>
<event>
 8    1  0.1150307E+005  0.1043930E+01  0.7957747E-01            NaN
         13   -1    0    0    0    0  0.00000000000E+00  0.00000000000E+00  0.74505805969E-08  0.10566000000E+00  0.10566000000E+00 0.  1.
     999900   -1    0    0    0    0 -0.00000000000E+00 -0.00000000000E+00 -0.74505805969E-08  0.93827000000E+00  0.93827000000E+00 0. -1.
     999902    2    1    2    0    0  0.34931827105E-02  0.35214658370E-05  0.14250643362E-01  0.10292574687E+01  0.10291528816E+01 0.  0.
     999903    2    3    3    0    0 -0.86384250247E-01 -0.62255448322E-01  0.87698331881E-01  0.13945485285E+00  0.20461647811E-01 0.  0.
         14    1    1    2    0    0 -0.34931827105E-02 -0.35214658370E-05 -0.14250643362E-01  0.14672531277E-01  0.00000000000E+00 0. -1.
     999901    1    3    3    0    0  0.89877432957E-01  0.62258969788E-01 -0.73447688519E-01  0.88980261588E+00  0.88000000000E+00 0. -1.
        -11    1    4    4    0    0 -0.36260789471E-01 -0.34797090945E-01  0.50587379394E-01  0.71309371518E-01  0.51100000000E-03 0. -1.
         11    1    4    4    0    0 -0.50123460775E-01 -0.27458357377E-01  0.37110952486E-01  0.68145481328E-01  0.51100000000E-03 0.  1.
</event>
<event>
 8    1  0.1150307E+005  0.1043930E+01  0.7957747E-01            NaN
         13   -1    0    0    0    0  0.00000000000E+00  0.00000000000E+00  0.74505805969E-08  0.10566000000E+00  0.10566000000E+00 0. -1.
     999900   -1    0    0    0    0 -0.00000000000E+00 -0.00000000000E+00 -0.74505805969E-08  0.93827000000E+00  0.93827000000E+00 0.  1.
     999902    2    1    2    0    0  0.72496865757E-02  0.18671441324E-01  0.13118559111E-01  0.10199867907E+01  0.10197057301E+01 0.  0.
     999903    2    3    3    0    0 -0.12693461487E+00 -0.10787338588E-01 -0.19014137782E-02  0.12920126882E+00  0.21461345809E-01 0.  0.
         14    1    1    2    0    0 -0.72496865757E-02 -0.18671441324E-01 -0.13118559111E-01  0.23943209261E-01  0.00000000000E+00 0.  1.
     999901    1    3    3    0    0  0.13418430145E+00  0.29458779913E-01  0.15019972889E-01  0.89078552192E+00  0.88000000000E+00 0. -1.
        -11    1    4    4    0    0 -0.64646232524E-01 -0.12367773732E-01  0.72640018527E-02  0.66220269182E-01  0.51100000000E-03 0.  1.
         11    1    4    4    0    0 -0.62288382350E-01  0.15804351432E-02 -0.91654156309E-02  0.62980999641E-01  0.51100000000E-03 0. -1.
</event>
<event>
 8    1  0.1150307E+005  0.1043930E+01  0.7957747E-01            NaN
         13   -1    0    0    0    0  0.00000000000E+00  0.00000000000E+00  0.74505805969E-08  0.10566000000E+00  0.10566000000E+00 0. -1.
     999900   -1    0    0    0    0 -0.00000000000E+00 -0.00000000000E+00 -0.74505805969E-08  0.93827000000E+00  0.93827000000E+00 0.  1.
     999902    2    1    2    0    0  0.11675423095E-01  0.67649640678E-02  0.20320852091E-01  0.10195370241E+01  0.10192451747E+01 0.  0.
     999903    2    3    3    0    0 -0.77477225215E-01  0.63923267505E-01  0.81841490970E-01  0.13105514170E+00  0.19710808372E-01 0.  0.
         14    1    1    2    0    0 -0.11675423095E-01 -0.67649640678E-02 -0.20320852091E-01  0.24392975894E-01  0.00000000000E+00 0.  1.
     999901    1    3    3    0    0  0.89152648310E-01 -0.57158303437E-01 -0.61520638880E-01  0.88848188240E+00  0.88000000000E+00 0.  1.
        -11    1    4    4    0    0 -0.42031935353E-01  0.42888723670E-01  0.39011867137E-01  0.71612241314E-01  0.51100000000E-03 0.  1.
         11    1    4    4    0    0 -0.35445289862E-01  0.21034543835E-01  0.42829623834E-01  0.59442900388E-01  0.51100000000E-03 0. -1.
</event>
<event>
 8    1  0.1150307E+005  0.1043930E+01  0.7957747E-01            NaN
         13   -1    0    0    0    0  0.00000000000E+00  0.00000000000E+00  0.74505805969E-08  0.10566000000E+00  0.10566000000E+00 0.  1.
     999900   -1    0    0    0    0 -0.00000000000E+00 -0.00000000000E+00 -0.74505805969E-08  0.93827000000E+00  0.93827000000E+00 0.  1.
     999902    2    1    2    0    0 -0.36521293539E-02  0.19363177364E-01 -0.12805869737E-01  0.10204297663E+01  0.10201591282E+01 0.  0.
     999903    2    3    3    0    0  0.12064069075E+00 -0.42209017517E-01 -0.89288723653E-02  0.12955667124E+00  0.19220532704E-01 0.  0.
         14    1    1    2    0    0  0.36521293539E-02 -0.19363177364E-01  0.12805869737E-01  0.23500233748E-01  0.00000000000E+00 0. -1.
     999901    1    3    3    0    0 -0.12429282010E+00  0.61572194881E-01 -0.38769973721E-02  0.89087309501E+00  0.88000000000E+00 0. -1.
        -11    1    4    4    0    0  0.11054412803E+00 -0.33068535418E-01 -0.10376199143E-01  0.11585102030E+00  0.51100000000E-03 0.  1.
         11    1    4    4    0    0  0.10096562718E-01 -0.91404820985E-02  0.14473267774E-02  0.13705650934E-01  0.51100000000E-03 0. -1.
</event>
<event>
 8    1  0.1150307E+005  0.1043930E+01  0.7957747E-01            NaN
         13   -1    0    0    0    0  0.00000000000E+00  0.00000000000E+00  0.74505805969E-08  0.10566000000E+00  0.10566000000E+00 0. -1.
     999900   -1    0    0    0    0 -0.00000000000E+00 -0.00000000000E+00 -0.74505805969E-08  0.93827000000E+00  0.93827000000E+00 0.  1.
     999902    2    1    2    0    0  0.14679915207E-01 -0.18042759470E-01 -0.43066257080E-02  0.10202743853E+01  0.10200001144E+01 0.  0.
     999903    2    3    3    0    0  0.32758253842E-01 -0.12640837070E+00  0.17858494455E-01  0.13316603538E+00  0.19028604190E-01 0.  0.
         14    1    1    2    0    0 -0.14679915207E-01  0.18042759470E-01  0.43066257080E-02  0.23655614656E-01  0.00000000000E+00 0. -1.
     999901    1    3    3    0    0 -0.18078338636E-01  0.10836561123E+00 -0.22165120163E-01  0.88710834996E+00  0.88000000000E+00 0.  1.
        -11    1    4    4    0    0  0.10940547612E-01 -0.76588298567E-01  0.68257711007E-02  0.77667981379E-01  0.51100000000E-03 0.  1.
         11    1    4    4    0    0  0.21817706230E-01 -0.49820072130E-01  0.11032723354E-01  0.55498054000E-01  0.51100000000E-03 0. -1.
</event>
<event>
 8    1  0.1150307E+005  0.1043930E+01  0.7957747E-01            NaN
         13   -1    0    0    0    0  0.00000000000E+00  0.00000000000E+00  0.74505805969E-08  0.10566000000E+00  0.10566000000E+00 0.  1.
     999900   -1    0    0    0    0 -0.00000000000E+00 -0.00000000000E+00 -0.74505805969E-08  0.93827000000E+00  0.93827000000E+00 0.  1.
     999902    2    1    2    0    0  0.24479502119E-02 -0.17618158620E-01 -0.16293404717E-01  0.10198080803E+01  0.10195227578E+01 0.  0.
     999903    2    3    3    0    0  0.17486396594E-01  0.12033486689E+00  0.33523640161E-01  0.12754190359E+00  0.18890433166E-01 0.  0.
         14    1    1    2    0    0 -0.24479502119E-02  0.17618158620E-01  0.16293404717E-01  0.24121919713E-01  0.00000000000E+00 0. -1.
     999901    1    3    3    0    0 -0.15038446382E-01 -0.13795302551E+00 -0.49817044878E-01  0.89226617670E+00  0.88000000000E+00 0. -1.
        -11    1    4    4    0    0  0.33552645132E-02  0.80470632213E-01  0.25562482391E-01  0.84501373218E-01  0.51100000000E-03 0. -1.
         11    1    4    4    0    0  0.14131132080E-01  0.39864234681E-01  0.79611577691E-02  0.43040530371E-01  0.51100000000E-03 0.  1.
</event>
<event>
 8    1  0.1150307E+005  0.1043930E+01  0.7957747E-01            NaN
         13   -1    0    0    0    0  0.00000000000E+00  0.00000000000E+00  0.74505805969E-08  0.10566000000E+00  0.10566000000E+00 0.  1.
     999900   -1    0    0    0    0 -0.00000000000E+00 -0.00000000000E+00 -0.74505805969E-08  0.93827000000E+00  0.93827000000E+00 0. -1.
     999902    2    1    2    0    0  0.64357843568E-02  0.11380740288E-01  0.18460390632E-01  0.10213086253E+01  0.10210580696E+01 0.  0.
     999903    2    3    3    0    0  0.72192097639E-01  0.10102782170E+00 -0.41199230686E-01  0.13230932141E+00  0.19749941877E-01 0.  0.
         14    1    1    2    0    0 -0.64357843568E-02 -0.11380740288E-01 -0.18460390632E-01  0.22621374673E-01  0.00000000000E+00 0. -1.
     999901    1    3    3    0    0 -0.65756313282E-01 -0.89647081416E-01  0.59659621319E-01  0.88899930391E+00  0.88000000000E+00 0.  1.
        -11    1    4    4    0    0  0.16194228228E-01  0.11930294912E-01 -0.10457450276E-01  0.22676074436E-01  0.51100000000E-03 0.  1.
         11    1    4    4    0    0  0.55997869411E-01  0.89097526792E-01 -0.30741780411E-01  0.10963324698E+00  0.51100000000E-03 0. -1.
</event>
<event>
 8    1  0.1150307E+005  0.1043930E+01  0.7957747E-01            NaN
         13   -1    0    0    0    0  0.00000000000E+00  0.00000000000E+00  0.74505805969E-08  0.10566000000E+00  0.10566000000E+00 0. -1.
     999900   -1    0    0    0    0 -0.00000000000E+00 -0.00000000000E+00 -0.74505805969E-08  0.93827000000E+00  0.93827000000E+00 0.  1.
     999902    2    1    2    0    0 -0.23033041195E-01  0.16002203808E-02  0.54843008377E-02  0.10201990235E+01  0.10199229815E+01 0.  0.
     999903    2    3    3    0    0  0.61215215267E-01  0.32663293063E-01  0.10776423090E+00  0.12973629695E+00  0.20104327700E-01 0.  0.
         14    1    1    2    0    0  0.23033041195E-01 -0.16002203808E-02 -0.54843008377E-02  0.23730976542E-01  0.00000000000E+00 0. -1.
     999901    1    3    3    0    0 -0.84248256462E-01 -0.31063072683E-01 -0.10227993006E+00  0.89046272650E+00  0.88000000000E+00 0. -1.
        -11    1    4    4    0    0  0.57296460681E-01  0.24864928305E-01  0.86063174560E-01  0.10634039779E+00  0.51100000000E-03 0.  1.
         11    1    4    4    0    0  0.39187545861E-02  0.77983647581E-02  0.21701056337E-01  0.23395899161E-01  0.51100000000E-03 0. -1.
</event>
<event>
 8    1  0.1150307E+005  0.1043930E+01  0.7957747E-01            NaN
         13   -1    0    0    0    0  0.00000000000E+00  0.00000000000E+00  0.74505805969E-08  0.10566000000E+00  0.10566000000E+00 0. -1.
     999900   -1    0    0    0    0 -0.00000000000E+00 -0.00000000000E+00 -0.74505805969E-08  0.93827000000E+00  0.93827000000E+00 0.  1.
     999902    2    1    2    0    0 -0.19255588274E-02  0.63032595091E-02  0.23923732534E-01  0.10191150078E+01  0.10188128461E+01 0.  0.
     999903    2    3    3    0    0 -0.73805667987E-01 -0.38536370959E-01 -0.94123879573E-01  0.12719988785E+00  0.19702239704E-01 0.  0.
         14    1    1    2    0    0  0.19255588274E-02 -0.63032595091E-02 -0.23923732534E-01  0.24814992154E-01  0.00000000000E+00 0.  1.
     999901    1    3    3    0    0  0.71880109159E-01  0.44839630468E-01  0.11804761211E+00  0.89191512000E+00  0.88000000000E+00 0. -1.
        -11    1    4    4    0    0 -0.27968687039E-01 -0.25557113366E-01 -0.43309223965E-01  0.57544448036E-01  0.51100000000E-03 0. -1.
         11    1    4    4    0    0 -0.45836980947E-01 -0.12979257593E-01 -0.50814655608E-01  0.69655439813E-01  0.51100000000E-03 0.  1.
</event>
<event>
 8    1  0.1150307E+005  0.1043930E+01  0.7957747E-01            NaN
         13   -1    0    0    0    0  0.00000000000E+00  0.00000000000E+00  0.74505805969E-08  0.10566000000E+00  0.10566000000E+00 0. -1.
     999900   -1    0    0    0    0 -0.00000000000E+00 -0.00000000000E+00 -0.74505805969E-08  0.93827000000E+00  0.93827000000E+00 0. -1.
     999902    2    1    2    0    0  0.15503864322E-02  0.12393114126E-01 -0.19754104704E-01  0.10205587008E+01  0.10202910585E+01 0.  0.
     999903    2    3    3    0    0 -0.83497957066E-02  0.68174318047E-01 -0.11300995922E+00  0.13381961245E+00  0.20469026927E-01 0.  0.
         14    1    1    2    0    0 -0.15503864322E-02 -0.12393114126E-01  0.19754104704E-01  0.23371299247E-01  0.00000000000E+00 0. -1.
     999901    1    3    3    0    0  0.99001821387E-02 -0.55781203921E-01  0.93255854521E-01  0.88673908830E+00  0.88000000000E+00 0.  1.
        -11    1    4    4    0    0 -0.40537372479E-02  0.15760273132E-01 -0.13039509462E-01  0.20859264677E-01  0.51100000000E-03 0.  1.
         11    1    4    4    0    0 -0.42960584586E-02  0.52414044915E-01 -0.99970449763E-01  0.11296034778E+00  0.51100000000E-03 0. -1.
</event>
<event>
 8    1  0.1150307E+005  0.1043930E+01  0.7957747E-01            NaN
         13   -1    0    0    0    0  0.00000000000E+00  0.00000000000E+00  0.74505805969E-08  0.10566000000E+00  0.10566000000E+00 0.  1.
     999900   -1    0    0    0    0 -0.00000000000E+00 -0.00000000000E+00 -0.74505805969E-08  0.93827000000E+00  0.93827000000E+00 0. -1.
     999902    2    1    2    0    0 -0.23847020184E-01  0.16979200965E-02  0.62854790965E-02  0.10192101587E+01  0.10189103381E+01 0.  0.
     999903    2    3    3    0    0 -0.32256742187E-01  0.12444327117E+00 -0.93899695088E-02  0.13051287377E+00  0.20464934305E-01 0.  0.
         14    1    1    2    0    0  0.23847020184E-01 -0.16979200965E-02 -0.62854790965E-02  0.24719841257E-01  0.00000000000E+00 0. -1.
     999901    1    3    3    0    0  0.84097220028E-02 -0.12274535107E+00  0.15675448605E-01  0.88869728498E+00  0.88000000000E+00 0.  1.
        -11    1    4    4    0    0 -0.23005503089E-01  0.51162920560E-01 -0.77374857256E-02  0.56630622625E-01  0.51100000000E-03 0.  1.
         11    1    4    4    0    0 -0.92512390973E-02  0.73280350609E-01 -0.16524837832E-02  0.73882251142E-01  0.51100000000E-03 0. -1.
</event>
<event>
 8    1  0.1150307E+005  0.1043930E+01  0.7957747E-01            NaN
         13   -1    0    0    0    0  0.00000000000E+00  0.00000000000E+00  0.74505805969E-08  0.10566000000E+00  0.10566000000E+00 0. -1.
     999900   -1    0    0    0    0 -0.00000000000E+00 -0.00000000000E+00 -0.74505805969E-08  0.93827000000E+00  0.93827000000E+00 0.  1.
     999902    2    1    2    0    0 -0.14449026086E-01  0.13416817552E-01  0.12146679234E-01  0.10207712616E+01  0.10205085210E+01 0.  0.
     999903    2    3    3    0    0 -0.13053906320E+00  0.14487024114E-01 -0.64439479984E-02  0.13295165521E+00  0.19603501419E-01 0.  0.
         14    1    1    2    0    0  0.14449026086E-01 -0.13416817552E-01 -0.12146679234E-01  0.23158738404E-01  0.00000000000E+00 0.  1.
     999901    1    3    3    0    0  0.11609003712E+00 -0.10702065613E-02  0.18590627232E-01  0.88781960638E+00  0.88000000000E+00 0. -1.
        -11    1    4    4    0    0 -0.85810550793E-01  0.61632261994E-02  0.45138323771E-02  0.86151446815E-01  0.51100000000E-03 0. -1.
         11    1    4    4    0    0 -0.44728512410E-01  0.83237979143E-02 -0.10957780376E-01  0.46800208396E-01  0.51100000000E-03 0.  1.
</event>
<event>
 8    1  0.1150307E+005  0.1043930E+01  0.7957747E-01            NaN
         13   -1    0    0    0    0  0.00000000000E+00  0.00000000000E+00  0.74505805969E-08  0.10566000000E+00  0.10566000000E+00 0. -1.
     999900   -1    0    0    0    0 -0.00000000000E+00 -0.00000000000E+00 -0.74505805969E-08  0.93827000000E+00  0.93827000000E+00 0.  1.
     999902    2    1    2    0    0 -0.17622983862E-01 -0.14939449734E-01  0.11029206969E-01  0.10183292163E+01  0.10180073638E+01 0.  0.
     999903    2    3    3    0    0 -0.54861516575E-01 -0.83635013120E-01 -0.79910864119E-01  0.13019865989E+00  0.23692686871E-01 0.  0.
         14    1    1    2    0    0  0.17622983862E-01  0.14939449734E-01 -0.11029206969E-01  0.25600783678E-01  0.00000000000E+00 0. -1.
     999901    1    3    3    0    0  0.37238532713E-01  0.68695563385E-01  0.90940071088E-01  0.88813055644E+00  0.88000000000E+00 0. -1.
        -11    1    4    4    0    0 -0.23611752744E-01 -0.36431634501E-01 -0.20100398760E-01  0.47844184719E-01  0.51100000000E-03 0.  1.
         11    1    4    4    0    0 -0.31249763832E-01 -0.47203378619E-01 -0.59810465359E-01  0.82354475166E-01  0.51100000000E-03 0. -1.
</event>
<event>
 8    1  0.1150307E+005  0.1043930E+01  0.7957747E-01            NaN
         13   -1    0    0    0    0  0.00000000000E+00  0.00000000000E+00  0.74505805969E-08  0.10566000000E+00  0.10566000000E+00 0. -1.
     999900   -1    0    0    0    0 -0.00000000000E+00 -0.00000000000E+00 -0.74505805969E-08  0.93827000000E+00  0.93827000000E+00 0.  1.
     999902    2    1    2    0    0  0.20869178210E-01 -0.89279151125E-02  0.70099379355E-02  0.10201735378E+01  0.10198968956E+01 0.  0.
     999903    2    3    3    0    0  0.48806752669E-01  0.11731745292E+00  0.22721768399E-01  0.13058640735E+00  0.19774912348E-01 0.  0.
         14    1    1    2    0    0 -0.20869178210E-01  0.89279151125E-02 -0.70099379355E-02  0.23756462221E-01  0.00000000000E+00 0.  1.
     999901    1    3    3    0    0 -0.27937574459E-01 -0.12624536803E+00 -0.15711830464E-01  0.88958713043E+00  0.88000000000E+00 0. -1.
        -11    1    4    4    0    0  0.54956606841E-03  0.48180551993E-02  0.48454914322E-02  0.68742699239E-02  0.51100000000E-03 0.  1.
         11    1    4    4    0    0  0.48257186601E-01  0.11249939772E+00  0.17876276967E-01  0.12371213742E+00  0.51100000000E-03 0. -1.
</event>
<event>
 8    1  0.1150307E+005  0.1043930E+01  0.7957747E-01            NaN
         13   -1    0    0    0    0  0.00000000000E+00  0.00000000000E+00  0.74505805969E-08  0.10566000000E+00  0.10566000000E+00 0. -1.
     999900   -1    0    0    0    0 -0.00000000000E+00 -0.00000000000E+00 -0.74505805969E-08  0.93827000000E+00  0.93827000000E+00 0.  1.
     999902    2    1    2    0    0  0.16763603559E-01 -0.42341105869E-02  0.16754873923E-01  0.10198536237E+01  0.10195693904E+01 0.  0.
     999903    2    3    3    0    0  0.11439053468E-01  0.87802633396E-01  0.95148837731E-01  0.13157172774E+00  0.20436825695E-01 0.  0.
         14    1    1    2    0    0 -0.16763603559E-01  0.42341105869E-02 -0.16754873923E-01  0.24076376325E-01  0.00000000000E+00 0.  1.
     999901    1    3    3    0    0  0.53245500915E-02 -0.92036743983E-01 -0.78393963808E-01  0.88828189593E+00  0.88000000000E+00 0.  1.
        -11    1    4    4    0    0  0.13861565456E-01  0.60891982863E-01  0.55257544946E-01  0.83388452248E-01  0.51100000000E-03 0. -1.
         11    1    4    4    0    0 -0.24225119884E-02  0.26910650533E-01  0.39891292785E-01  0.48183275496E-01  0.51100000000E-03 0.  1.
</event>
<event>
 8    1  0.1150307E+005  0.1043930E+01  0.7957747E-01            NaN
         13   -1    0    0    0    0  0.00000000000E+00  0.00000000000E+00  0.74505805969E-08  0.10566000000E+00  0.10566000000E+00 0. -1.
     999900   -1    0    0    0    0 -0.00000000000E+00 -0.00000000000E+00 -0.74505805969E-08  0.93827000000E+00  0.93827000000E+00 0.  1.
     999902    2    1    2    0    0 -0.19935159844E-01 -0.11442192790E-01 -0.10031820396E-02  0.10209225936E+01  0.10206633144E+01 0.  0.
     999903    2    3    3    0    0 -0.96729972015E-01  0.65488059853E-01 -0.59111661522E-01  0.13233252935E+00  0.19296018398E-01 0.  0.
         14    1    1    2    0    0  0.19935159844E-01  0.11442192790E-01  0.10031820396E-02  0.23007406374E-01  0.00000000000E+00 0.  1.
     999901    1    3    3    0    0  0.76794812171E-01 -0.76930252643E-01  0.58108479483E-01  0.88859006428E+00  0.88000000000E+00 0. -1.
        -11    1    4    4    0    0 -0.64053679342E-01  0.53601716834E-01 -0.44161786051E-01  0.94480380783E-01  0.51100000000E-03 0.  1.
         11    1    4    4    0    0 -0.32676292674E-01  0.11886343019E-01 -0.14949875471E-01  0.37852148563E-01  0.51100000000E-03 0. -1.
</event>
<event>
 8    1  0.1150307E+005  0.1043930E+01  0.7957747E-01            NaN
         13   -1    0    0    0    0  0.00000000000E+00  0.00000000000E+00  0.74505805969E-08  0.10566000000E+00  0.10566000000E+00 0. -1.
     999900   -1    0    0    0    0 -0.00000000000E+00 -0.00000000000E+00 -0.74505805969E-08  0.93827000000E+00  0.93827000000E+00 0. -1.
     999902    2    1    2    0    0 -0.43151444488E-02 -0.13449010256E-01 -0.20180631647E-01  0.10192976180E+01  0.10189999410E+01 0.  0.
     999903    2    3    3    0    0 -0.40687695384E-01 -0.12142338612E+00  0.20124249524E-01  0.13103757065E+00  0.19150254554E-01 0.  0.
         14    1    1    2    0    0  0.43151444488E-02  0.13449010256E-01  0.20180631647E-01  0.24632381983E-01  0.00000000000E+00 0. -1.
     999901    1    3    3    0    0  0.36372550935E-01  0.10797437587E+00 -0.40304881171E-01  0.88826004737E+00  0.88000000000E+00 0. -1.
        -11    1    4    4    0    0 -0.26032986536E-02 -0.12372367588E-01  0.78152512793E-02  0.14872522219E-01  0.51100000000E-03 0. -1.
         11    1    4    4    0    0 -0.38084396731E-01 -0.10905101853E+00  0.12308998245E-01  0.11616504843E+00  0.51100000000E-03 0.  1.
</event>
<event>
 8    1  0.1150307E+005  0.1043930E+01  0.7957747E-01            NaN
         13   -1    0    0    0    0  0.00000000000E+00  0.00000000000E+00  0.74505805969E-08  0.10566000000E+00  0.10566000000E+00 0. -1.
     999900   -1    0    0    0    0 -0.00000000000E+00 -0.00000000000E+00 -0.74505805969E-08  0.93827000000E+00  0.93827000000E+00 0.  1.
     999902    2    1    2    0    0 -0.18951121874E-01  0.12951112834E-01  0.10676054650E-01  0.10186148961E+01  0.10183002760E+01 0.  0.
     999903    2    3    3    0    0  0.35325792827E-01  0.76216751125E-01 -0.95094826377E-01  0.12836998385E+00  0.19465917912E-01 0.  0.
         14    1    1    2    0    0  0.18951121874E-01 -0.12951112834E-01 -0.10676054650E-01  0.25315103927E-01  0.00000000000E+00 0.  1.
     999901    1    3    3    0    0 -0.54276914701E-01 -0.63265638291E-01  0.10577088103E+00  0.89024491222E+00  0.88000000000E+00 0. -1.
        -11    1    4    4    0    0  0.72274011551E-02  0.30332440167E-01 -0.45714719123E-01  0.55338855422E-01  0.51100000000E-03 0. -1.
         11    1    4    4    0    0  0.28098391672E-01  0.45884310958E-01 -0.49380107254E-01  0.73031128432E-01  0.51100000000E-03 0.  1.
</event>
<event>
 8    1  0.1150307E+005  0.1043930E+01  0.7957747E-01            NaN
         13   -1    0    0    0    0  0.00000000000E+00  0.00000000000E+00  0.74505805969E-08  0.10566000000E+00  0.10566000000E+00 0.  1.
     999900   -1    0    0    0    0 -0.00000000000E+00 -0.00000000000E+00 -0.74505805969E-08  0.93827000000E+00  0.93827000000E+00 0.  1.
     999902    2    1    2    0    0  0.12648355168E-01 -0.11524879951E-01  0.16127200673E-01  0.10204163795E+01  0.10201454295E+01 0.  0.
     999903    2    3    3    0    0  0.12849525251E+00  0.79316093483E-02  0.24566394646E-01  0.13257051531E+00  0.19937237558E-01 0.  0.
         14    1    1    2    0    0 -0.12648355168E-01  0.11524879951E-01 -0.16127200673E-01  0.23513620476E-01  0.00000000000E+00 0. -1.
     999901    1    3    3    0    0 -0.11584689734E+00 -0.19456489299E-01 -0.84391939725E-02  0.88784586421E+00  0.88000000000E+00 0. -1.
        -11    1    4    4    0    0  0.10439598477E+00  0.13615193337E-01  0.22939475254E-01  0.10775145369E+00  0.51100000000E-03 0.  1.
         11    1    4    4    0    0  0.24099267733E-01 -0.56835839888E-02  0.16269193914E-02  0.24819061625E-01  0.51100000000E-03 0. -1.
</event>
<event>
 8    1  0.1150307E+005  0.1043930E+01  0.7957747E-01            NaN
         13   -1    0    0    0    0  0.00000000000E+00  0.00000000000E+00  0.74505805969E-08  0.10566000000E+00  0.10566000000E+00 0.  1.
     999900   -1    0    0    0    0 -0.00000000000E+00 -0.00000000000E+00 -0.74505805969E-08  0.93827000000E+00  0.93827000000E+00 0. -1.
     999902    2    1    2    0    0  0.86659428237E-03 -0.21165355767E-01  0.67016247560E-02  0.10217121008E+01  0.10214704998E+01 0.  0.
     999903    2    3    3    0    0  0.12314062170E+00  0.32056997223E-01  0.26002095374E-01  0.13145592149E+00  0.20329450229E-01 0.  0.
         14    1    1    2    0    0 -0.86659428237E-03  0.21165355767E-01 -0.67016247560E-02  0.22217899198E-01  0.00000000000E+00 0. -1.
     999901    1    3    3    0    0 -0.12227402742E+00 -0.53222352991E-01 -0.19300470618E-01  0.89025617931E+00  0.88000000000E+00 0.  1.
        -11    1    4    4    0    0  0.96232232790E-01  0.23272558989E-01  0.11577158624E-01  0.99682226863E-01  0.51100000000E-03 0. -1.
         11    1    4    4    0    0  0.26908388912E-01  0.87844382342E-02  0.14424936750E-01  0.31773694626E-01  0.51100000000E-03 0.  1.
</event>
<event>
 8    1  0.1150307E+005  0.1043930E+01  0.7957747E-01            NaN
         13   -1    0    0    0    0  0.00000000000E+00  0.00000000000E+00  0.74505805969E-08  0.10566000000E+00  0.10566000000E+00 0.  1.
     999900   -1    0    0    0    0 -0.00000000000E+00 -0.00000000000E+00 -0.74505805969E-08  0.93827000000E+00  0.93827000000E+00 0.  1.
     999902    2    1    2    0    0  0.22190588823E-01 -0.76403167221E-02  0.48434290058E-02  0.10199663718E+01  0.10196848259E+01 0.  0.
     999903    2    3    3    0    0 -0.18553536201E-01  0.12506764137E+00  0.21422752668E-01  0.12892969476E+00  0.13333537978E-01 0.  0.
         14    1    1    2    0    0 -0.22190588823E-01  0.76403167221E-02 -0.48434290058E-02  0.23963628199E-01  0.00000000000E+00 0. -1.
     999901    1    3    3    0    0  0.40744125024E-01 -0.13270795809E+00 -0.16579323662E-01  0.89103667704E+00  0.88000000000E+00 0. -1.
        -11    1    4    4    0    0 -0.15655824088E-01  0.75404681629E-01  0.17820735463E-01  0.79049418549E-01  0.51100000000E-03 0.  1.
         11    1    4    4    0    0 -0.28977121131E-02  0.49662959741E-01  0.36020172045E-02  0.49880276209E-01  0.51100000000E-03 0. -1.
</event>
<event>
 8    1  0.1150307E+005  0.1043930E+01  0.7957747E-01            NaN
         13   -1    0    0    0    0  0.00000000000E+00  0.00000000000E+00  0.74505805969E-08  0.10566000000E+00  0.10566000000E+00 0.  1.
     999900   -1    0    0    0    0 -0.00000000000E+00 -0.00000000000E+00 -0.74505805969E-08  0.93827000000E+00  0.93827000000E+00 0.  1.
     999902    2    1    2    0    0 -0.11803848169E-01 -0.36895357724E-03 -0.13385389740E-01  0.10260796326E+01  0.10259243524E+01 0.  0.
     999903    2    3    3    0    0  0.27083718296E-01 -0.56243953372E-01  0.11679651540E+00  0.13390163081E+00  0.19781573162E-01 0.  0.
         14    1    1    2    0    0  0.11803848169E-01  0.36895357724E-03  0.13385389740E-01  0.17850367415E-01  0.00000000000E+00 0.  1.
     999901    1    3    3    0    0 -0.38887566466E-01  0.55874999795E-01 -0.13018190514E+00  0.89217800178E+00  0.88000000000E+00 0.  1.
        -11    1    4    4    0    0  0.12471157906E-01 -0.21480314589E-01  0.66843146316E-01  0.71310595460E-01  0.51100000000E-03 0. -1.
         11    1    4    4    0    0  0.14612560391E-01 -0.34763638783E-01  0.49953369081E-01  0.62591035350E-01  0.51100000000E-03 0.  1.
</event>
<event>
 8    1  0.1150307E+005  0.1043930E+01  0.7957747E-01            NaN
         13   -1    0    0    0    0  0.00000000000E+00  0.00000000000E+00  0.74505805969E-08  0.10566000000E+00  0.10566000000E+00 0. -1.
     999900   -1    0    0    0    0 -0.00000000000E+00 -0.00000000000E+00 -0.74505805969E-08  0.93827000000E+00  0.93827000000E+00 0. -1.
     999902    2    1    2    0    0 -0.18930925683E-02  0.14640162538E-01 -0.19503595283E-01  0.10194696568E+01  0.10191761736E+01 0.  0.
     999903    2    3    3    0    0 -0.26295234480E-01  0.30639709287E-01  0.11989712084E+00  0.12801914802E+00  0.19579364917E-01 0.  0.
         14    1    1    2    0    0  0.18930925683E-02 -0.14640162538E-01  0.19503595283E-01  0.24460343161E-01  0.00000000000E+00 0.  1.
     999901    1    3    3    0    0  0.24402141912E-01 -0.15999546749E-01 -0.13940071613E+00  0.89145050882E+00  0.88000000000E+00 0. -1.
        -11    1    4    4    0    0 -0.93034497722E-02  0.22211086778E-01  0.84392935683E-01  0.87762835345E-01  0.51100000000E-03 0.  1.
         11    1    4    4    0    0 -0.16991784708E-01  0.84286225083E-02  0.35504185160E-01  0.40256312670E-01  0.51100000000E-03 0. -1.
</event>
<event>
 8    1  0.1150307E+005  0.1043930E+01  0.7957747E-01            NaN
         13   -1    0    0    0    0  0.00000000000E+00  0.00000000000E+00  0.74505805969E-08  0.10566000000E+00  0.10566000000E+00 0.  1.
     999900   -1    0    0    0    0 -0.00000000000E+00 -0.00000000000E+00 -0.74505805969E-08  0.93827000000E+00  0.93827000000E+00 0.  1.
     999902    2    1    2    0    0  0.63197557323E-02 -0.13462589378E-01 -0.18496667193E-01  0.10201959038E+01  0.10199197884E+01 0.  0.
     999903    2    3    3    0    0 -0.44731110138E-01 -0.87115447606E-01  0.82708579501E-01  0.12987380681E+00  0.20893136338E-01 0.  0.
         14    1    1    2    0    0 -0.63197557323E-02  0.13462589378E-01  0.18496667193E-01  0.23734096202E-01  0.00000000000E+00 0.  1.
     999901    1    3    3    0    0  0.51050865870E-01  0.73652858228E-01 -0.10120524669E+00  0.89032209699E+00  0.88000000000E+00 0.  1.
        -11    1    4    4    0    0 -0.17093938279E-01 -0.14967386750E-01  0.21783900961E-01  0.31480547232E-01  0.51100000000E-03 0. -1.
         11    1    4    4    0    0 -0.27637171859E-01 -0.72148060856E-01  0.60924678540E-01  0.98393259575E-01  0.51100000000E-03 0.  1.
</event>
<event>
 8    1  0.1150307E+005  0.1043930E+01  0.7957747E-01            NaN
         13   -1    0    0    0    0  0.00000000000E+00  0.00000000000E+00  0.74505805969E-08  0.10566000000E+00  0.10566000000E+00 0.  1.
     999900   -1    0    0    0    0 -0.00000000000E+00 -0.00000000000E+00 -0.74505805969E-08  0.93827000000E+00  0.93827000000E+00 0.  1.
     999902    2    1    2    0    0  0.13804619636E-01 -0.18438868454E-01 -0.73696848427E-02  0.10197458803E+01  0.10194590667E+01 0.  0.
     999903    2    3    3    0    0  0.50369429464E-02 -0.12145890572E+00 -0.48957482922E-01  0.13271738850E+00  0.20962669319E-01 0.  0.
         14    1    1    2    0    0 -0.13804619636E-01  0.18438868454E-01  0.73696848427E-02  0.24184119745E-01  0.00000000000E+00 0. -1.
     999901    1    3    3    0    0  0.87676766895E-02  0.10302003726E+00  0.41587798079E-01  0.88702849175E+00  0.88000000000E+00 0. -1.
        -11    1    4    4    0    0  0.80960904940E-03 -0.52652502663E-01 -0.10228526985E-01  0.53645366890E-01  0.51100000000E-03 0.  1.
         11    1    4    4    0    0  0.42273338970E-02 -0.68806403052E-01 -0.38728955936E-01  0.79072021612E-01  0.51100000000E-03 0. -1.
</event>
<event>
 8    1  0.1150307E+005  0.1043930E+01  0.7957747E-01            NaN
         13   -1    0    0    0    0  0.00000000000E+00  0.00000000000E+00  0.74505805969E-08  0.10566000000E+00  0.10566000000E+00 0. -1.
     999900   -1    0    0    0    0 -0.00000000000E+00 -0.00000000000E+00 -0.74505805969E-08  0.93827000000E+00  0.93827000000E+00 0.  1.
     999902    2    1    2    0    0  0.27135495654E-02  0.15613176914E-01  0.17294865275E-01  0.10204726555E+01  0.10202030159E+01 0.  0.
     999903    2    3    3    0    0  0.38333642226E-01 -0.12148242900E+00  0.56134694183E-02  0.12906901454E+00  0.19996269481E-01 0.  0.
         14    1    1    2    0    0 -0.27135495654E-02 -0.15613176914E-01 -0.17294865275E-01  0.23457344468E-01  0.00000000000E+00 0.  1.
     999901    1    3    3    0    0 -0.35620092661E-01  0.13709560592E+00  0.11681395857E-01  0.89140364099E+00  0.88000000000E+00 0.  1.
        -11    1    4    4    0    0  0.88417078027E-02 -0.60512254931E-01  0.46235326735E-02  0.61331451712E-01  0.51100000000E-03 0. -1.
         11    1    4    4    0    0  0.29491934423E-01 -0.60970174071E-01  0.98993674478E-03  0.67737562829E-01  0.51100000000E-03 0.  1.
</event>
<event>
 8    1  0.1150307E+005  0.1043930E+01  0.7957747E-01            NaN
         13   -1    0    0    0    0  0.00000000000E+00  0.00000000000E+00  0.74505805969E-08  0.10566000000E+00  0.10566000000E+00 0. -1.
     999900   -1    0    0    0    0 -0.00000000000E+00 -0.00000000000E+00 -0.74505805969E-08  0.93827000000E+00  0.93827000000E+00 0. -1.
     999902    2    1    2    0    0 -0.16944415861E-01  0.10939294311E-02  0.17570729068E-01  0.10194955892E+01  0.10192027355E+01 0.  0.
     999903    2    3    3    0    0 -0.60856621889E-01 -0.93934698988E-01  0.67086652417E-01  0.13190866461E+00  0.19287839848E-01 0.  0.
         14    1    1    2    0    0  0.16944415861E-01 -0.10939294311E-02 -0.17570729068E-01  0.24434410785E-01  0.00000000000E+00 0.  1.
     999901    1    3    3    0    0  0.43912206028E-01  0.95028628419E-01 -0.49515923349E-01  0.88758692460E+00  0.88000000000E+00 0.  1.
        -11    1    4    4    0    0 -0.34429963231E-01 -0.35585010912E-01  0.29427137514E-01  0.57601500961E-01  0.51100000000E-03 0. -1.
         11    1    4    4    0    0 -0.26426658658E-01 -0.58349688076E-01  0.37659514903E-01  0.74307163653E-01  0.51100000000E-03 0.  1.
</event>
<event>
 8    1  0.1150307E+005  0.1043930E+01  0.7957747E-01            NaN
         13   -1    0    0    0    0  0.00000000000E+00  0.00000000000E+00  0.74505805969E-08  0.10566000000E+00  0.10566000000E+00 0. -1.
     999900   -1    0    0    0    0 -0.00000000000E+00 -0.00000000000E+00 -0.74505805969E-08  0.93827000000E+00  0.93827000000E+00 0.  1.
     999902    2    1    2    0    0 -0.22218690520E-01 -0.90386348856E-02 -0.41870239051E-02  0.10195804970E+01  0.10192896995E+01 0.  0.
     999903    2    3    3    0    0  0.11463506287E+00 -0.22757588382E-01  0.46756480254E-01  0.12744127009E+00  0.19899834424E-01 0.  0.
         14    1    1    2    0    0  0.22218690520E-01  0.90386348856E-02  0.41870239051E-02  0.24349503038E-01  0.00000000000E+00 0. -1.
     999901    1    3    3    0    0 -0.13685375339E+00  0.13718953496E-01 -0.50943504159E-01  0.89213922687E+00  0.88000000000E+00 0.  1.
        -11    1    4    4    0    0  0.61078692016E-01 -0.20095930505E-02  0.23633594714E-01  0.65524445841E-01  0.51100000000E-03 0. -1.
         11    1    4    4    0    0  0.53556370850E-01 -0.20747995331E-01  0.23122885540E-01  0.61916824253E-01  0.51100000000E-03 0.  1.
</event>
<event>
 8    1  0.1150307E+005  0.1043930E+01  0.7957747E-01            NaN
         13   -1    0    0    0    0  0.00000000000E+00  0.00000000000E+00  0.74505805969E-08  0.10566000000E+00  0.10566000000E+00 0. -1.
     999900   -1    0    0    0    0 -0.00000000000E+00 -0.00000000000E+00 -0.74505805969E-08  0.93827000000E+00  0.93827000000E+00 0.  1.
     999902    2    1    2    0    0 -0.77905990177E-02  0.22064880999E-01  0.63027188923E-02  0.10196962081E+01  0.10194082009E+01 0.  0.
     999903    2    3    3    0    0 -0.91704310004E-01  0.77105739144E-01 -0.51891956347E-01  0.13208276337E+00  0.19952587909E-01 0.  0.
         14    1    1    2    0    0  0.77905990177E-02 -0.22064880999E-01 -0.63027188923E-02  0.24233791944E-01  0.00000000000E+00 0.  1.
     999901    1    3    3    0    0  0.83913710987E-01 -0.55040858145E-01  0.58194675239E-01  0.88761344468E+00  0.88000000000E+00 0. -1.
        -11    1    4    4    0    0 -0.47726221938E-01  0.52646009872E-01 -0.28066955017E-01  0.76402943012E-01  0.51100000000E-03 0. -1.
         11    1    4    4    0    0 -0.43978088066E-01  0.24459729272E-01 -0.23825001330E-01  0.55679820360E-01  0.51100000000E-03 0.  1.
</event>
<event>
 8    1  0.1150307E+005  0.1043930E+01  0.7957747E-01            NaN
         13   -1    0    0    0    0  0.00000000000E+00  0.00000000000E+00  0.74505805969E-08  0.10566000000E+00  0.10566000000E+00 0.  1.
     999900   -1    0    0    0    0 -0.00000000000E+00 -0.00000000000E+00 -0.74505805969E-08  0.93827000000E+00  0.93827000000E+00 0. -1.
     999902    2    1    2    0    0  0.60854364962E-02  0.17579108001E-01  0.14802964832E-01  0.10201563729E+01  0.10198793262E+01 0.  0.
     999903    2    3    3    0    0  0.17048720527E-01 -0.22152650022E-01 -0.12358024087E+00  0.12838918482E+00  0.20743868265E-01 0.  0.
         14    1    1    2    0    0 -0.60854364962E-02 -0.17579108001E-01 -0.14802964832E-01  0.23773627053E-01  0.00000000000E+00 0. -1.
     999901    1    3    3    0    0 -0.10963284031E-01  0.39731758023E-01  0.13838320571E+00  0.89176718812E+00  0.88000000000E+00 0.  1.
        -11    1    4    4    0    0 -0.41059433834E-02 -0.23776465989E-02 -0.31558231393E-01  0.31917002743E-01  0.51100000000E-03 0. -1.
         11    1    4    4    0    0  0.21154663911E-01 -0.19775003423E-01 -0.92022009480E-01  0.96472182080E-01  0.51100000000E-03 0.  1.
</event>
<event>
 8    1  0.1150307E+005  0.1043930E+01  0.7957747E-01            NaN
         13   -1    0    0    0    0  0.00000000000E+00  0.00000000000E+00  0.74505805969E-08  0.10566000000E+00  0.10566000000E+00 0. -1.
     999900   -1    0    0    0    0 -0.00000000000E+00 -0.00000000000E+00 -0.74505805969E-08  0.93827000000E+00  0.93827000000E+00 0.  1.
     999902    2    1    2    0    0  0.89849484886E-02  0.19880402371E-02 -0.21414589080E-01  0.10206219278E+01  0.10203557484E+01 0.  0.
     999903    2    3    3    0    0 -0.59854341275E-01  0.50986796242E-01 -0.10491672196E+00  0.13263975902E+00  0.20089588476E-01 0.  0.
         14    1    1    2    0    0 -0.89849484886E-02 -0.19880402371E-02  0.21414589080E-01  0.23308072181E-01  0.00000000000E+00 0. -1.
     999901    1    3    3    0    0  0.68839289764E-01 -0.48998756005E-01  0.83502132884E-01  0.88798216880E+00  0.88000000000E+00 0. -1.
        -11    1    4    4    0    0 -0.24769876384E-01  0.88339650937E-02 -0.34645204423E-01  0.43498701427E-01  0.51100000000E-03 0.  1.
         11    1    4    4    0    0 -0.35084464891E-01  0.42152831148E-01 -0.70271517542E-01  0.89141057595E-01  0.51100000000E-03 0. -1.
</event>
<event>
 8    1  0.1150307E+005  0.1043930E+01  0.7957747E-01            NaN
         13   -1    0    0    0    0  0.00000000000E+00  0.00000000000E+00  0.74505805969E-08  0.10566000000E+00  0.10566000000E+00 0. -1.
     999900   -1    0    0    0    0 -0.00000000000E+00 -0.00000000000E+00 -0.74505805969E-08  0.93827000000E+00  0.93827000000E+00 0. -1.
     999902    2    1    2    0    0 -0.32806109694E-01 -0.84372857983E-02 -0.78514810151E-02  0.10091582531E+01  0.10085590243E+01 0.  0.
     999903    2    3    3    0    0 -0.36756774137E-01  0.11002277947E+00 -0.28290512854E-01  0.12097688156E+00  0.19467416535E-01 0.  0.
         14    1    1    2    0    0  0.32806109694E-01  0.84372857983E-02  0.78514810151E-02  0.34771746851E-01  0.00000000000E+00 0. -1.
     999901    1    3    3    0    0  0.39506644428E-02 -0.11846006527E+00  0.20439031839E-01  0.88818137159E+00  0.88000000000E+00 0.  1.
        -11    1    4    4    0    0 -0.10831597374E-01  0.15992455451E-01  0.32854670323E-03  0.19324885432E-01  0.51100000000E-03 0.  1.
         11    1    4    4    0    0 -0.25925176763E-01  0.94030324023E-01 -0.28619059557E-01  0.10165199613E+00  0.51100000000E-03 0. -1.
</event>
<event>
 8    1  0.1150307E+005  0.1043930E+01  0.7957747E-01            NaN
         13   -1    0    0    0    0  0.00000000000E+00  0.00000000000E+00  0.74505805969E-08  0.10566000000E+00  0.10566000000E+00 0.  1.
     999900   -1    0    0    0    0 -0.00000000000E+00 -0.00000000000E+00 -0.74505805969E-08  0.93827000000E+00  0.93827000000E+00 0. -1.
     999902    2    1    2    0    0 -0.73988801345E-02 -0.22455563010E-01  0.34592593397E-03  0.10202843788E+01  0.10200103422E+01 0.  0.
     999903    2    3    3    0    0 -0.21551550192E-01  0.48512344983E-03  0.12745545035E+00  0.13074325869E+00  0.19601102245E-01 0.  0.
         14    1    1    2    0    0  0.73988801345E-02  0.22455563010E-01 -0.34592593397E-03  0.23645621203E-01  0.00000000000E+00 0.  1.
     999901    1    3    3    0    0  0.14152670058E-01 -0.22940686460E-01 -0.12710952441E+00  0.88954112011E+00  0.88000000000E+00 0. -1.
        -11    1    4    4    0    0 -0.14513985865E-01  0.45289529182E-02  0.11407658643E+00  0.11508647137E+00  0.51100000000E-03 0. -1.
         11    1    4    4    0    0 -0.70375643271E-02 -0.40438294684E-02  0.13378863919E-01  0.15656787320E-01  0.51100000000E-03 0.  1.
</event>
<event>
 8    1  0.1150307E+005  0.1043930E+01  0.7957747E-01            NaN
         13   -1    0    0    0    0  0.00000000000E+00  0.00000000000E+00  0.74505805969E-08  0.10566000000E+00  0.10566000000E+00 0. -1.
     999900   -1    0    0    0    0 -0.00000000000E+00 -0.00000000000E+00 -0.74505805969E-08  0.93827000000E+00  0.93827000000E+00 0.  1.
     999902    2    1    2    0    0 -0.71801151079E-02  0.18633835469E-01  0.12418719783E-01  0.10204140803E+01  0.10201430767E+01 0.  0.
     999903    2    3    3    0    0  0.44591121867E-01  0.10362197505E+00 -0.64247946962E-01  0.13149281123E+00  0.20896862338E-01 0.  0.
         14    1    1    2    0    0  0.71801151079E-02 -0.18633835469E-01 -0.12418719783E-01  0.23515919678E-01  0.00000000000E+00 0.  1.
     999901    1    3    3    0    0 -0.51771236975E-01 -0.84988139577E-01  0.76666666745E-01  0.88892126909E+00  0.88000000000E+00 0. -1.
        -11    1    4    4    0    0  0.23086528729E-01  0.38360605563E-01 -0.16071306861E-01  0.47571755203E-01  0.51100000000E-03 0. -1.
         11    1    4    4    0    0  0.21504593138E-01  0.65261369484E-01 -0.48176640101E-01  0.83921056031E-01  0.51100000000E-03 0.  1.
</event>
<event>
 8    1  0.1150307E+005  0.1043930E+01  0.7957747E-01            NaN
         13   -1    0    0    0    0  0.00000000000E+00  0.00000000000E+00  0.74505805969E-08  0.10566000000E+00  0.10566000000E+00 0.  1.
     999900   -1    0    0    0    0 -0.00000000000E+00 -0.00000000000E+00 -0.74505805969E-08  0.93827000000E+00  0.93827000000E+00 0. -1.
     999902    2    1    2    0    0  0.18395613151E-01 -0.18779465541E-02  0.26905213334E-01  0.10112831660E+01  0.10107560665E+01 0.  0.
     999903    2    3    3    0    0 -0.22078815976E-03 -0.78033152772E-01 -0.89195903577E-01  0.12020199394E+00  0.20084532681E-01 0.  0.
         14    1    1    2    0    0 -0.18395613151E-01  0.18779465541E-02 -0.26905213334E-01  0.32646834012E-01  0.00000000000E+00 0. -1.
     999901    1    3    3    0    0  0.18616401310E-01  0.76155206218E-01  0.11610111691E+00  0.89108117205E+00  0.88000000000E+00 0.  1.
        -11    1    4    4    0    0 -0.43982033563E-02 -0.37933494120E-01 -0.56966927703E-01  0.68584153722E-01  0.51100000000E-03 0.  1.
         11    1    4    4    0    0  0.41774151966E-02 -0.40099658652E-01 -0.32228975874E-01  0.51617840217E-01  0.51100000000E-03 0. -1.
</event>
<event>
 8    1  0.1150307E+005  0.1043930E+01  0.7957747E-01            NaN
         13   -1    0    0    0    0  0.00000000000E+00  0.00000000000E+00  0.74505805969E-08  0.10566000000E+00  0.10566000000E+00 0.  1.
     999900   -1    0    0    0    0 -0.00000000000E+00 -0.00000000000E+00 -0.74505805969E-08  0.93827000000E+00  0.93827000000E+00 0. -1.
     999902    2    1    2    0    0  0.65998760270E-02  0.56590494564E-02  0.22963647807E-01  0.10193757270E+01  0.10190799578E+01 0.  0.
     999903    2    3    3    0    0 -0.82017831681E-01  0.73210982788E-01 -0.62954393215E-01  0.12819770232E+00  0.19611795946E-01 0.  0.
         14    1    1    2    0    0 -0.65998760270E-02 -0.56590494564E-02 -0.22963647807E-01  0.24554273049E-01  0.00000000000E+00 0. -1.
     999901    1    3    3    0    0  0.88617707708E-01 -0.67551933331E-01  0.85918041022E-01  0.89117802463E+00  0.88000000000E+00 0.  1.
        -11    1    4    4    0    0 -0.24983608091E-01  0.24753495148E-01 -0.10169316298E-01  0.36614099883E-01  0.51100000000E-03 0. -1.
         11    1    4    4    0    0 -0.57034223589E-01  0.48457487640E-01 -0.52785076917E-01  0.91583602435E-01  0.51100000000E-03 0.  1.
</event>
<event>
 8    1  0.1150307E+005  0.1043930E+01  0.7957747E-01            NaN
         13   -1    0    0    0    0  0.00000000000E+00  0.00000000000E+00  0.74505805969E-08  0.10566000000E+00  0.10566000000E+00 0.  1.
     999900   -1    0    0    0    0 -0.00000000000E+00 -0.00000000000E+00 -0.74505805969E-08  0.93827000000E+00  0.93827000000E+00 0. -1.
     999902    2    1    2    0    0  0.33488886998E-02 -0.23498671771E-01  0.23799269403E-02  0.10200748814E+01  0.10197959095E+01 0.  0.
     999903    2    3    3    0    0  0.77685568814E-01  0.87396253538E-01  0.50077502282E-01  0.12872832414E+00  0.19750252325E-01 0.  0.
         14    1    1    2    0    0 -0.33488886998E-02  0.23498671771E-01 -0.23799269403E-02  0.23855118586E-01  0.00000000000E+00 0. -1.
     999901    1    3    3    0    0 -0.74336680114E-01 -0.11089492531E+00 -0.47697575341E-01  0.89134655727E+00  0.88000000000E+00 0.  1.
        -11    1    4    4    0    0  0.11749981959E-01  0.15987849442E-01  0.10695530989E-02  0.19876580960E-01  0.51100000000E-03 0.  1.
         11    1    4    4    0    0  0.65935586855E-01  0.71408404095E-01  0.49007949183E-01  0.10885174318E+00  0.51100000000E-03 0. -1.
</event>
<event>
 8    1  0.1150307E+005  0.1043930E+01  0.7957747E-01            NaN
         13   -1    0    0    0    0  0.00000000000E+00  0.00000000000E+00  0.74505805969E-08  0.10566000000E+00  0.10566000000E+00 0.  1.
     999900   -1    0    0    0    0 -0.00000000000E+00 -0.00000000000E+00 -0.74505805969E-08  0.93827000000E+00  0.93827000000E+00 0.  1.
     999902    2    1    2    0    0  0.16051435399E-01 -0.70509027410E-02  0.16728173386E-01  0.10196978810E+01  0.10194099140E+01 0.  0.
     999903    2    3    3    0    0 -0.35534197557E-01 -0.90256083105E-01 -0.81894566547E-01  0.12879349530E+00  0.21730270805E-01 0.  0.
         14    1    1    2    0    0 -0.16051435399E-01  0.70509027410E-02 -0.16728173386E-01  0.24232119030E-01  0.00000000000E+00 0. -1.
     999901    1    3    3    0    0  0.51585632955E-01  0.83205180364E-01  0.98622739933E-01  0.89090438567E+00  0.88000000000E+00 0. -1.
        -11    1    4    4    0    0 -0.29261724251E-01 -0.70712422832E-01 -0.51989192335E-01  0.92518281921E-01  0.51100000000E-03 0. -1.
         11    1    4    4    0    0 -0.62724733055E-02 -0.19543660273E-01 -0.29905374213E-01  0.36275213384E-01  0.51100000000E-03 0.  1.
</event>
<event>
 8    1  0.1150307E+005  0.1043930E+01  0.7957747E-01            NaN
         13   -1    0    0    0    0  0.00000000000E+00  0.00000000000E+00  0.74505805969E-08  0.10566000000E+00  0.10566000000E+00 0.  1.
     999900   -1    0    0    0    0 -0.00000000000E+00 -0.00000000000E+00 -0.74505805969E-08  0.93827000000E+00  0.93827000000E+00 0.  1.
     999902    2    1    2    0    0  0.89798321160E-02  0.20792570290E-01 -0.46234657996E-02  0.10208141007E+01  0.10205523423E+01 0.  0.
     999903    2    3    3    0    0 -0.14893049798E-01 -0.81874592468E-02  0.12736330953E+00  0.13017934647E+00  0.20890481331E-01 0.  0.
         14    1    1    2    0    0 -0.89798321160E-02 -0.20792570290E-01  0.46234657996E-02  0.23115899292E-01  0.00000000000E+00 0.  1.
     999901    1    3    3    0    0  0.23872881914E-01  0.28980029537E-01 -0.13198677533E+00  0.89063475424E+00  0.88000000000E+00 0.  1.
        -11    1    4    4    0    0 -0.64340009161E-02  0.14321818148E-02  0.92357309597E-02  0.11358140688E-01  0.51100000000E-03 0. -1.
         11    1    4    4    0    0 -0.84590488817E-02 -0.96196410615E-02  0.11812757857E+00  0.11882120578E+00  0.51100000000E-03 0.  1.
</event>
<event>
 8    1  0.1150307E+005  0.1043930E+01  0.7957747E-01            NaN
         13   -1    0    0    0    0  0.00000000000E+00  0.00000000000E+00  0.74505805969E-08  0.10566000000E+00  0.10566000000E+00 0. -1.
     999900   -1    0    0    0    0 -0.00000000000E+00 -0.00000000000E+00 -0.74505805969E-08  0.93827000000E+00  0.93827000000E+00 0.  1.
     999902    2    1    2    0    0  0.26395852852E-02 -0.23484900432E-01 -0.21719358793E-03  0.10202962290E+01  0.10200224702E+01 0.  0.
     999903    2    3    3    0    0  0.54423642315E-01  0.46180073633E-01 -0.10608943415E+00  0.12971005770E+00  0.21799059326E-01 0.  0.
         14    1    1    2    0    0 -0.26395852852E-02  0.23484900432E-01  0.21719358793E-03  0.23633771003E-01  0.00000000000E+00 0.  1.
     999901    1    3    3    0    0 -0.51784057030E-01 -0.69664974065E-01  0.10587224056E+00  0.89058617129E+00  0.88000000000E+00 0. -1.
        -11    1    4    4    0    0  0.26016281776E-01  0.35565078599E-01 -0.57750091022E-01  0.72643347026E-01  0.51100000000E-03 0. -1.
         11    1    4    4    0    0  0.28407360539E-01  0.10614995034E-01 -0.48339343131E-01  0.57066710678E-01  0.51100000000E-03 0.  1.
</event>
<event>
 8    1  0.1150307E+005  0.1043930E+01  0.7957747E-01            NaN
         13   -1    0    0    0    0  0.00000000000E+00  0.00000000000E+00  0.74505805969E-08  0.10566000000E+00  0.10566000000E+00 0.  1.
     999900   -1    0    0    0    0 -0.00000000000E+00 -0.00000000000E+00 -0.74505805969E-08  0.93827000000E+00  0.93827000000E+00 0. -1.
     999902    2    1    2    0    0  0.76622233989E-02 -0.14177402067E-01 -0.17313218231E-01  0.10202771794E+01  0.10200029740E+01 0.  0.
     999903    2    3    3    0    0  0.98547052223E-01  0.73556137064E-01  0.35484600685E-01  0.12969038650E+00  0.20938306144E-01 0.  0.
         14    1    1    2    0    0 -0.76622233989E-02  0.14177402067E-01  0.17313218231E-01  0.23652820599E-01  0.00000000000E+00 0.  1.
     999901    1    3    3    0    0 -0.90884828824E-01 -0.87733539132E-01 -0.52797818916E-01  0.89058679290E+00  0.88000000000E+00 0.  1.
        -11    1    4    4    0    0  0.55908228830E-01  0.53399060404E-01  0.17949578907E-01  0.79370260217E-01  0.51100000000E-03 0. -1.
         11    1    4    4    0    0  0.42638823393E-01  0.20157076660E-01  0.17535021778E-01  0.50320126288E-01  0.51100000000E-03 0.  1.
</event>
<event>
 8    1  0.1150307E+005  0.1043930E+01  0.7957747E-01            NaN
         13   -1    0    0    0    0  0.00000000000E+00  0.00000000000E+00  0.74505805969E-08  0.10566000000E+00  0.10566000000E+00 0. -1.
     999900   -1    0    0    0    0 -0.00000000000E+00 -0.00000000000E+00 -0.74505805969E-08  0.93827000000E+00  0.93827000000E+00 0.  1.
     999902    2    1    2    0    0  0.21756967200E-01  0.23194841408E-02  0.85931952960E-02  0.10204227961E+01  0.10201519956E+01 0.  0.
     999903    2    3    3    0    0 -0.18530604283E-01 -0.11131481688E+00 -0.60717854532E-01  0.12950200032E+00  0.18701296066E-01 0.  0.
         14    1    1    2    0    0 -0.21756967200E-01 -0.23194841408E-02 -0.85931952960E-02  0.23507203871E-01  0.00000000000E+00 0.  1.
     999901    1    3    3    0    0  0.40287571483E-01  0.11363430102E+00  0.69311049828E-01  0.89092079581E+00  0.88000000000E+00 0. -1.
        -11    1    4    4    0    0  0.31285904092E-02 -0.32031533454E-01 -0.16416219917E-01  0.36132542268E-01  0.51100000000E-03 0.  1.
         11    1    4    4    0    0 -0.21659194692E-01 -0.79283283426E-01 -0.44301634615E-01  0.93369458048E-01  0.51100000000E-03 0. -1.
</event>
<event>
 8    1  0.1150307E+005  0.1043930E+01  0.7957747E-01            NaN
         13   -1    0    0    0    0  0.00000000000E+00  0.00000000000E+00  0.74505805969E-08  0.10566000000E+00  0.10566000000E+00 0. -1.
     999900   -1    0    0    0    0 -0.00000000000E+00 -0.00000000000E+00 -0.74505805969E-08  0.93827000000E+00  0.93827000000E+00 0. -1.
     999902    2    1    2    0    0  0.31535893985E-01  0.32076759764E-02  0.10762508077E-01  0.10104541374E+01  0.10098994655E+01 0.  0.
     999903    2    3    3    0    0 -0.10531383547E+00  0.39855323130E-01 -0.30438616437E-01  0.11817142934E+00  0.18934799163E-01 0.  0.
         14    1    1    2    0    0 -0.31535893985E-01 -0.32076759764E-02 -0.10762508077E-01  0.33475862568E-01  0.00000000000E+00 0.  1.
     999901    1    3    3    0    0  0.13684972945E+00 -0.36647647153E-01  0.41201124514E-01  0.89228270809E+00  0.88000000000E+00 0.  1.
        -11    1    4    4    0    0 -0.54921633297E-01  0.13733411920E-01 -0.22209654992E-01  0.60815477495E-01  0.51100000000E-03 0.  1.
         11    1    4    4    0    0 -0.50392202171E-01  0.26121911210E-01 -0.82289614447E-02  0.57355951848E-01  0.51100000000E-03 0. -1.
</event>
<event>
 8    1  0.1150307E+005  0.1043930E+01  0.7957747E-01            NaN
         13   -1    0    0    0    0  0.00000000000E+00  0.00000000000E+00  0.74505805969E-08  0.10566000000E+00  0.10566000000E+00 0. -1.
     999900   -1    0    0    0    0 -0.00000000000E+00 -0.00000000000E+00 -0.74505805969E-08  0.93827000000E+00  0.93827000000E+00 0. -1.
     999902    2    1    2    0    0 -0.22772814136E-01  0.55771762187E-02 -0.47489213296E-03  0.10204793821E+01  0.10202098989E+01 0.  0.
     999903    2    3    3    0    0  0.51157911203E-01 -0.89022121143E-01  0.75340641078E-01  0.12909687480E+00  0.21159417608E-01 0.  0.
         14    1    1    2    0    0  0.22772814136E-01 -0.55771762187E-02  0.47489213296E-03  0.23450617919E-01  0.00000000000E+00 0.  1.
     999901    1    3    3    0    0 -0.73930725339E-01  0.94599297361E-01 -0.75815533211E-01  0.89138250728E+00  0.88000000000E+00 0. -1.
        -11    1    4    4    0    0  0.20009342142E-01 -0.33302352547E-01  0.41479439320E-01  0.56835072494E-01  0.51100000000E-03 0.  1.
         11    1    4    4    0    0  0.31148569061E-01 -0.55719768596E-01  0.33861201758E-01  0.72261802305E-01  0.51100000000E-03 0. -1.
</event>
<event>
 8    1  0.1150307E+005  0.1043930E+01  0.7957747E-01            NaN
         13   -1    0    0    0    0  0.00000000000E+00  0.00000000000E+00  0.74505805969E-08  0.10566000000E+00  0.10566000000E+00 0.  1.
     999900   -1    0    0    0    0 -0.00000000000E+00 -0.00000000000E+00 -0.74505805969E-08  0.93827000000E+00  0.93827000000E+00 0.  1.
     999902    2    1    2    0    0 -0.33360677925E-02 -0.11508089954E-01  0.20132842934E-01  0.10205014523E+01  0.10202324820E+01 0.  0.
     999903    2    3    3    0    0  0.69664272428E-01 -0.11039664371E+00  0.92704706030E-02  0.13189243430E+00  0.16405572367E-01 0.  0.
         14    1    1    2    0    0  0.33360677925E-02  0.11508089954E-01 -0.20132842934E-01  0.23428547700E-01  0.00000000000E+00 0.  1.
     999901    1    3    3    0    0 -0.73000340220E-01  0.98888553759E-01  0.10862372331E-01  0.88860901800E+00  0.88000000000E+00 0.  1.
        -11    1    4    4    0    0  0.50895359176E-01 -0.68414934047E-01  0.17273894056E-02  0.85288837379E-01  0.51100000000E-03 0. -1.
         11    1    4    4    0    0  0.18768913252E-01 -0.41981709666E-01  0.75430811974E-02  0.46603596922E-01  0.51100000000E-03 0.  1.
</event>
<event>
 8    1  0.1150307E+005  0.1043930E+01  0.7957747E-01            NaN
         13   -1    0    0    0    0  0.00000000000E+00  0.00000000000E+00  0.74505805969E-08  0.10566000000E+00  0.10566000000E+00 0.  1.
     999900   -1    0    0    0    0 -0.00000000000E+00 -0.00000000000E+00 -0.74505805969E-08  0.93827000000E+00  0.93827000000E+00 0. -1.
     999902    2    1    2    0    0 -0.20063122093E-02  0.13449087453E-01 -0.17805630204E-01  0.10215258997E+01  0.10212801869E+01 0.  0.
     999903    2    3    3    0    0  0.11379309137E+00 -0.33177750837E-01  0.49944003285E-01  0.13013733308E+00  0.19791190038E-01 0.  0.
         14    1    1    2    0    0  0.20063122093E-02 -0.13449087453E-01  0.17805630204E-01  0.22404100271E-01  0.00000000000E+00 0. -1.
     999901    1    3    3    0    0 -0.11579940358E+00  0.46626838290E-01 -0.67749633489E-01  0.89138856665E+00  0.88000000000E+00 0.  1.
        -11    1    4    4    0    0  0.24209035703E-01 -0.80516011158E-02  0.19914208071E-01  0.32368850679E-01  0.51100000000E-03 0.  1.
         11    1    4    4    0    0  0.89584055664E-01 -0.25126149721E-01  0.30029795214E-01  0.97768482399E-01  0.51100000000E-03 0. -1.
</event>
<event>
 8    1  0.1150307E+005  0.1043930E+01  0.7957747E-01            NaN
         13   -1    0    0    0    0  0.00000000000E+00  0.00000000000E+00  0.74505805969E-08  0.10566000000E+00  0.10566000000E+00 0. -1.
     999900   -1    0    0    0    0 -0.00000000000E+00 -0.00000000000E+00 -0.74505805969E-08  0.93827000000E+00  0.93827000000E+00 0.  1.
     999902    2    1    2    0    0 -0.15169963213E-01 -0.17950762659E-01  0.42430479322E-02  0.10200477656E+01  0.10197681516E+01 0.  0.
     999903    2    3    3    0    0  0.57227373444E-02 -0.12795155262E+00 -0.27046540265E-01  0.13240159902E+00  0.19857455585E-01 0.  0.
         14    1    1    2    0    0  0.15169963213E-01  0.17950762659E-01 -0.42430479322E-02  0.23882234395E-01  0.00000000000E+00 0.  1.
     999901    1    3    3    0    0 -0.20892700558E-01  0.11000078996E+00  0.31289588197E-01  0.88764616659E+00  0.88000000000E+00 0. -1.
        -11    1    4    4    0    0  0.96429828216E-02 -0.31514099583E-01 -0.43066554286E-02  0.33240547411E-01  0.51100000000E-03 0.  1.
         11    1    4    4    0    0 -0.39202454772E-02 -0.96437453034E-01 -0.22739884836E-01  0.99161051606E-01  0.51100000000E-03 0. -1.
</event>
<event>
 8    1  0.1150307E+005  0.1043930E+01  0.7957747E-01            NaN
         13   -1    0    0    0    0  0.00000000000E+00  0.00000000000E+00  0.74505805969E-08  0.10566000000E+00  0.10566000000E+00 0. -1.
     999900   -1    0    0    0    0 -0.00000000000E+00 -0.00000000000E+00 -0.74505805969E-08  0.93827000000E+00  0.93827000000E+00 0.  1.
     999902    2    1    2    0    0 -0.12226670860E-01  0.18184926700E-01 -0.70902257157E-02  0.10208984056E+01  0.10206385747E+01 0.  0.
     999903    2    3    3    0    0 -0.12337093814E+00  0.41048320240E-01  0.23417961747E-01  0.13308844148E+00  0.16086620256E-01 0.  0.
         14    1    1    2    0    0  0.12226670860E-01 -0.18184926700E-01  0.70902257157E-02  0.23031594389E-01  0.00000000000E+00 0. -1.
     999901    1    3    3    0    0  0.11114426728E+00 -0.22863393540E-01 -0.30508187462E-01  0.88780996413E+00  0.88000000000E+00 0.  1.
        -11    1    4    4    0    0 -0.29937736381E-01  0.17252496118E-01  0.75934043647E-02  0.35381317002E-01  0.51100000000E-03 0. -1.
         11    1    4    4    0    0 -0.93433201756E-01  0.23795824121E-01  0.15824557382E-01  0.97707124476E-01  0.51100000000E-03 0.  1.
</event>
<event>
 8    1  0.1150307E+005  0.1043930E+01  0.7957747E-01            NaN
         13   -1    0    0    0    0  0.00000000000E+00  0.00000000000E+00  0.74505805969E-08  0.10566000000E+00  0.10566000000E+00 0. -1.
     999900   -1    0    0    0    0 -0.00000000000E+00 -0.00000000000E+00 -0.74505805969E-08  0.93827000000E+00  0.93827000000E+00 0.  1.
     999902    2    1    2    0    0  0.20406714783E-01 -0.51148879238E-02 -0.12080310241E-01  0.10196703631E+01  0.10193817339E+01 0.  0.
     999903    2    3    3    0    0 -0.71163416935E-01  0.98391277274E-01 -0.37836177991E-01  0.12851270030E+00  0.18408216087E-01 0.  0.
         14    1    1    2    0    0 -0.20406714783E-01  0.51148879238E-02  0.12080310241E-01  0.24259636894E-01  0.00000000000E+00 0. -1.
     999901    1    3    3    0    0  0.91570131719E-01 -0.10350616520E+00  0.25755867751E-01  0.89115766281E+00  0.88000000000E+00 0. -1.
        -11    1    4    4    0    0 -0.51962664353E-01  0.56697780807E-01 -0.24085271526E-01  0.80592296534E-01  0.51100000000E-03 0.  1.
         11    1    4    4    0    0 -0.19200752583E-01  0.41693496467E-01 -0.13750906466E-01  0.47920403765E-01  0.51100000000E-03 0. -1.
</event>
<event>
 8    1  0.1274028E+005  0.1043930E+01  0.7957747E-01            NaN
         13   -1    0    0    0    0  0.00000000000E+00  0.00000000000E+00  0.74505805969E-08  0.10566000000E+00  0.10566000000E+00 0. -1.
     999900   -1    0    0    0    0 -0.00000000000E+00 -0.00000000000E+00 -0.74505805969E-08  0.93827000000E+00  0.93827000000E+00 0.  1.
     999902    2    1    2    0    0  0.10216734861E-02  0.21944348949E-01 -0.87628454403E-02  0.10202786633E+01  0.10200044927E+01 0.  0.
     999903    2    3    3    0    0  0.79314861957E-01 -0.30909298746E-01  0.94513447199E-01  0.12921787746E+00  0.22764799099E-01 0.  0.
         14    1    1    2    0    0 -0.10216734861E-02 -0.21944348949E-01  0.87628454403E-02  0.23651336701E-01  0.00000000000E+00 0. -1.
     999901    1    3    3    0    0 -0.78293188471E-01  0.52853647695E-01 -0.10327629264E+00  0.89106078584E+00  0.88000000000E+00 0.  1.
        -11    1    4    4    0    0  0.31999536972E-01 -0.49537950539E-02  0.48377072161E-01  0.58216086126E-01  0.51100000000E-03 0.  1.
         11    1    4    4    0    0  0.47315324985E-01 -0.25955503692E-01  0.46136375038E-01  0.71001791336E-01  0.51100000000E-03 0. -1.
</event>
<event>
 8    1  0.1150307E+005  0.1043930E+01  0.7957747E-01            NaN
         13   -1    0    0    0    0  0.00000000000E+00  0.00000000000E+00  0.74505805969E-08  0.10566000000E+00  0.10566000000E+00 0.  1.
     999900   -1    0    0    0    0 -0.00000000000E+00 -0.00000000000E+00 -0.74505805969E-08  0.93827000000E+00  0.93827000000E+00 0.  1.
     999902    2    1    2    0    0  0.18358906304E-01  0.10702261141E-01 -0.96709402853E-02  0.10205823037E+01  0.10203152081E+01 0.  0.
     999903    2    3    3    0    0 -0.40553329194E-01 -0.55294566444E-01  0.10677156592E+00  0.12851443077E+00  0.20340354988E-01 0.  0.
         14    1    1    2    0    0 -0.18358906304E-01 -0.10702261141E-01  0.96709402853E-02  0.23347696250E-01  0.00000000000E+00 0.  1.
     999901    1    3    3    0    0  0.58912235497E-01  0.65996827584E-01 -0.11644250621E+00  0.89206787298E+00  0.88000000000E+00 0.  1.
        -11    1    4    4    0    0 -0.11554043804E-01 -0.24110658450E-01  0.57331797773E-01  0.63261488569E-01  0.51100000000E-03 0. -1.
         11    1    4    4    0    0 -0.28999285389E-01 -0.31183907994E-01  0.49439768149E-01  0.65252942205E-01  0.51100000000E-03 0.  1.
</event>
<event>
 8    1  0.1150307E+005  0.1043930E+01  0.7957747E-01            NaN
         13   -1    0    0    0    0  0.00000000000E+00  0.00000000000E+00  0.74505805969E-08  0.10566000000E+00  0.10566000000E+00 0. -1.
     999900   -1    0    0    0    0 -0.00000000000E+00 -0.00000000000E+00 -0.74505805969E-08  0.93827000000E+00  0.93827000000E+00 0. -1.
     999902    2    1    2    0    0 -0.14337564286E-01 -0.19129182173E-02  0.18082815553E-01  0.10207737217E+01  0.10205110375E+01 0.  0.
     999903    2    3    3    0    0  0.10392482227E+00 -0.43220877539E-01 -0.58776135046E-01  0.12858560373E+00  0.20278325833E-01 0.  0.
         14    1    1    2    0    0  0.14337564286E-01  0.19129182173E-02 -0.18082815553E-01  0.23156278287E-01  0.00000000000E+00 0.  1.
     999901    1    3    3    0    0 -0.11826238655E+00  0.41307959322E-01  0.76858950600E-01  0.89218811798E+00  0.88000000000E+00 0.  1.
        -11    1    4    4    0    0  0.72654416438E-01 -0.28759992274E-01 -0.50849852871E-01  0.93229662885E-01  0.51100000000E-03 0. -1.
         11    1    4    4    0    0  0.31270405827E-01 -0.14460885264E-01 -0.79262821750E-02  0.35355940849E-01  0.51100000000E-03 0.  1.
</event>
<event>
 8    1  0.1150307E+005  0.1043930E+01  0.7957747E-01            NaN
         13   -1    0    0    0    0  0.00000000000E+00  0.00000000000E+00  0.74505805969E-08  0.10566000000E+00  0.10566000000E+00 0.  1.
     999900   -1    0    0    0    0 -0.00000000000E+00 -0.00000000000E+00 -0.74505805969E-08  0.93827000000E+00  0.93827000000E+00 0. -1.
     999902    2    1    2    0    0 -0.18965817551E-01  0.31238123517E-02 -0.12390394580E-01  0.10210611934E+01  0.10208050638E+01 0.  0.
     999903    2    3    3    0    0 -0.19467247936E-01 -0.40217029287E-02 -0.13028616221E+00  0.13317002783E+00  0.19095141036E-01 0.  0.
         14    1    1    2    0    0  0.18965817551E-01 -0.31238123517E-02  0.12390394580E-01  0.22868806633E-01  0.00000000000E+00 0.  1.
     999901    1    3    3    0    0  0.50143038525E-03  0.71455152804E-02  0.11789576763E+00  0.88789116554E+00  0.88000000000E+00 0.  1.
        -11    1    4    4    0    0 -0.15099506636E-01  0.52731088339E-02 -0.97646800244E-01  0.98949277391E-01  0.51100000000E-03 0.  1.
         11    1    4    4    0    0 -0.43677413005E-02 -0.92948117626E-02 -0.32639361965E-01  0.34220750434E-01  0.51100000000E-03 0. -1.
</event>
<event>
 8    1  0.1150307E+005  0.1043930E+01  0.7957747E-01            NaN
         13   -1    0    0    0    0  0.00000000000E+00  0.00000000000E+00  0.74505805969E-08  0.10566000000E+00  0.10566000000E+00 0.  1.
     999900   -1    0    0    0    0 -0.00000000000E+00 -0.00000000000E+00 -0.74505805969E-08  0.93827000000E+00  0.93827000000E+00 0.  1.
     999902    2    1    2    0    0  0.19674896058E-02  0.23318711261E-01 -0.11970556902E-02  0.10204978372E+01  0.10202287829E+01 0.  0.
     999903    2    3    3    0    0 -0.58284679741E-01  0.10194114853E+00  0.58884478759E-01  0.13290468586E+00  0.20178504167E-01 0.  0.
         14    1    1    2    0    0 -0.19674896058E-02 -0.23318711261E-01  0.11970556902E-02  0.23432162780E-01  0.00000000000E+00 0. -1.
     999901    1    3    3    0    0  0.60252169347E-01 -0.78622437265E-01 -0.60081534450E-01  0.88759315136E+00  0.88000000000E+00 0.  1.
        -11    1    4    4    0    0 -0.24701489826E-01  0.27943204942E-01  0.24744579960E-01  0.44760939003E-01  0.51100000000E-03 0.  1.
         11    1    4    4    0    0 -0.33583189915E-01  0.73997943585E-01  0.34139898799E-01  0.88143746861E-01  0.51100000000E-03 0. -1.
</event>
<event>
 8    1  0.1150307E+005  0.1043930E+01  0.7957747E-01            NaN
         13   -1    0    0    0    0  0.00000000000E+00  0.00000000000E+00  0.74505805969E-08  0.10566000000E+00  0.10566000000E+00 0. -1.
     999900   -1    0    0    0    0 -0.00000000000E+00 -0.00000000000E+00 -0.74505805969E-08  0.93827000000E+00  0.93827000000E+00 0. -1.
     999902    2    1    2    0    0  0.12425840958E-01 -0.19847454088E-01 -0.36992976928E-02  0.10202232971E+01  0.10199478262E+01 0.  0.
     999903    2    3    3    0    0 -0.12388244013E+00  0.26086786017E-01  0.89752207690E-02  0.12845508436E+00  0.19818545146E-01 0.  0.
         14    1    1    2    0    0 -0.12425840958E-01  0.19847454088E-01  0.36992976928E-02  0.23706702864E-01  0.00000000000E+00 0. -1.
     999901    1    3    3    0    0  0.13630828109E+00 -0.45934240105E-01 -0.12674518462E-01  0.89176821278E+00  0.88000000000E+00 0. -1.
        -11    1    4    4    0    0 -0.10884083153E-01  0.82953140099E-02 -0.20314210451E-03  0.13695907722E-01  0.51100000000E-03 0. -1.
         11    1    4    4    0    0 -0.11299835698E+00  0.17791472007E-01  0.91783628735E-02  0.11475917663E+00  0.51100000000E-03 0.  1.
</event>
<event>
 8    1  0.1150307E+005  0.1043930E+01  0.7957747E-01            NaN
         13   -1    0    0    0    0  0.00000000000E+00  0.00000000000E+00  0.74505805969E-08  0.10566000000E+00  0.10566000000E+00 0.  1.
     999900   -1    0    0    0    0 -0.00000000000E+00 -0.00000000000E+00 -0.74505805969E-08  0.93827000000E+00  0.93827000000E+00 0. -1.
     999902    2    1    2    0    0  0.20435777625E-02  0.16012667496E-01  0.19747064694E-01  0.10184245438E+01  0.10181051140E+01 0.  0.
     999903    2    3    3    0    0  0.10276874613E-02 -0.20373599397E-01  0.12795252348E+00  0.13105009425E+00  0.19650426070E-01 0.  0.
         14    1    1    2    0    0 -0.20435777625E-02 -0.16012667496E-01 -0.19747064694E-01  0.25505456171E-01  0.00000000000E+00 0. -1.
     999901    1    3    3    0    0  0.10158903012E-02  0.36386266894E-01 -0.10820545879E+00  0.88737444958E+00  0.88000000000E+00 0. -1.
        -11    1    4    4    0    0  0.31867496758E-02 -0.14011632983E-01  0.34789533864E-01  0.37643777969E-01  0.51100000000E-03 0. -1.
         11    1    4    4    0    0 -0.21590622146E-02 -0.63619664142E-02  0.93162989616E-01  0.93406316283E-01  0.51100000000E-03 0.  1.
</event>
<event>
 8    1  0.1150307E+005  0.1043930E+01  0.7957747E-01            NaN
         13   -1    0    0    0    0  0.00000000000E+00  0.00000000000E+00  0.74505805969E-08  0.10566000000E+00  0.10566000000E+00 0. -1.
     999900   -1    0    0    0    0 -0.00000000000E+00 -0.00000000000E+00 -0.74505805969E-08  0.93827000000E+00  0.93827000000E+00 0. -1.
     999902    2    1    2    0    0  0.18524034838E-01 -0.12399216062E-01 -0.65753073208E-02  0.10206896237E+01  0.10204250060E+01 0.  0.
     999903    2    3    3    0    0 -0.11828500762E+00  0.45320158055E-01 -0.25655519377E-02  0.12824112746E+00  0.19848046774E-01 0.  0.
         14    1    1    2    0    0 -0.18524034838E-01  0.12399216062E-01  0.65753073208E-02  0.23240376330E-01  0.00000000000E+00 0. -1.
     999901    1    3    3    0    0  0.13680904246E+00 -0.57719374117E-01 -0.40097553831E-02  0.89244849621E+00  0.88000000000E+00 0. -1.
        -11    1    4    4    0    0 -0.75489371028E-01  0.28149886019E-01 -0.11143161538E-01  0.81335677234E-01  0.51100000000E-03 0. -1.
         11    1    4    4    0    0 -0.42795636596E-01  0.17170272036E-01  0.85776095999E-02  0.46905450226E-01  0.51100000000E-03 0.  1.
</event>
<event>
 8    1  0.1150307E+005  0.1043930E+01  0.7957747E-01            NaN
         13   -1    0    0    0    0  0.00000000000E+00  0.00000000000E+00  0.74505805969E-08  0.10566000000E+00  0.10566000000E+00 0. -1.
     999900   -1    0    0    0    0 -0.00000000000E+00 -0.00000000000E+00 -0.74505805969E-08  0.93827000000E+00  0.93827000000E+00 0. -1.
     999902    2    1    2    0    0 -0.14755092941E-01 -0.13180169030E-01 -0.10101087576E-01  0.10217160046E+01  0.10214744893E+01 0.  0.
     999903    2    3    3    0    0  0.26844522691E-01 -0.11984789800E+00  0.45096661904E-01  0.13258422356E+00  0.21464397739E-01 0.  0.
         14    1    1    2    0    0  0.14755092941E-01  0.13180169030E-01  0.10101087576E-01  0.22213995444E-01  0.00000000000E+00 0. -1.
     999901    1    3    3    0    0 -0.41599615632E-01  0.10666772897E+00 -0.55197749480E-01  0.88913178099E+00  0.88000000000E+00 0.  1.
        -11    1    4    4    0    0  0.28355393141E-01 -0.10749768055E+00  0.35007059833E-01  0.11655700324E+00  0.51100000000E-03 0. -1.
         11    1    4    4    0    0 -0.15108704508E-02 -0.12350217442E-01  0.10089602071E-01  0.16027220325E-01  0.51100000000E-03 0.  1.
</event>
<event>
 8    1  0.1150307E+005  0.1043930E+01  0.7957747E-01            NaN
         13   -1    0    0    0    0  0.00000000000E+00  0.00000000000E+00  0.74505805969E-08  0.10566000000E+00  0.10566000000E+00 0.  1.
     999900   -1    0    0    0    0 -0.00000000000E+00 -0.00000000000E+00 -0.74505805969E-08  0.93827000000E+00  0.93827000000E+00 0.  1.
     999902    2    1    2    0    0  0.12319842420E-02 -0.85141102314E-02  0.20300992558E-01  0.10218814591E+01  0.10216435671E+01 0.  0.
     999903    2    3    3    0    0 -0.95291366495E-01 -0.89893224266E-01 -0.42385863317E-02  0.13253253521E+00  0.19638507537E-01 0.  0.
         14    1    1    2    0    0 -0.12319842420E-02  0.85141102314E-02 -0.20300992558E-01  0.22048540928E-01  0.00000000000E+00 0. -1.
     999901    1    3    3    0    0  0.96523350737E-01  0.81379114035E-01  0.24539578890E-01  0.88934892386E+00  0.88000000000E+00 0. -1.
        -11    1    4    4    0    0 -0.13177631988E-01 -0.22962520844E-01 -0.22725982550E-02  0.26577305585E-01  0.51100000000E-03 0. -1.
         11    1    4    4    0    0 -0.82113734507E-01 -0.66930703422E-01 -0.19659880767E-02  0.10595522963E+00  0.51100000000E-03 0.  1.
</event>
<event>
 8    1  0.1150307E+005  0.1043930E+01  0.7957747E-01            NaN
         13   -1    0    0    0    0  0.00000000000E+00  0.00000000000E+00  0.74505805969E-08  0.10566000000E+00  0.10566000000E+00 0.  1.
     999900   -1    0    0    0    0 -0.00000000000E+00 -0.00000000000E+00 -0.74505805969E-08  0.93827000000E+00  0.93827000000E+00 0. -1.
     999902    2    1    2    0    0 -0.23368935433E-01  0.13198564936E-02  0.20325043758E-02  0.10204357403E+01  0.10201652414E+01 0.  0.
     999903    2    3    3    0    0  0.87820083600E-01 -0.16591578798E-01  0.91497206422E-01  0.12875880869E+00  0.14813657944E-01 0.  0.
         14    1    1    2    0    0  0.23368935433E-01 -0.13198564936E-02 -0.20325043758E-02  0.23494259692E-01  0.00000000000E+00 0. -1.
     999901    1    3    3    0    0 -0.11118901903E+00  0.17911435291E-01 -0.89464702046E-01  0.89167693162E+00  0.88000000000E+00 0. -1.
        -11    1    4    4    0    0  0.15146151527E-01 -0.57879946112E-02  0.10122263303E-01  0.19121404841E-01  0.51100000000E-03 0. -1.
         11    1    4    4    0    0  0.72673932073E-01 -0.10803584186E-01  0.81374943118E-01  0.10963740385E+00  0.51100000000E-03 0.  1.
</event>
<event>
 8    1  0.1150307E+005  0.1043930E+01  0.7957747E-01            NaN
         13   -1    0    0    0    0  0.00000000000E+00  0.00000000000E+00  0.74505805969E-08  0.10566000000E+00  0.10566000000E+00 0.  1.
     999900   -1    0    0    0    0 -0.00000000000E+00 -0.00000000000E+00 -0.74505805969E-08  0.93827000000E+00  0.93827000000E+00 0.  1.
     999902    2    1    2    0    0 -0.27822198042E-03 -0.24105619110E-01  0.50871382570E-02  0.10192918739E+01  0.10189940564E+01 0.  0.
     999903    2    3    3    0    0  0.21311343755E-01  0.11823186034E+00  0.35965683468E-01  0.12705897163E+00  0.20432956503E-01 0.  0.
         14    1    1    2    0    0  0.27822198042E-03  0.24105619110E-01 -0.50871382570E-02  0.24638126061E-01  0.00000000000E+00 0. -1.
     999901    1    3    3    0    0 -0.21589565736E-01 -0.14233747945E+00 -0.30878545211E-01  0.89223290231E+00  0.88000000000E+00 0. -1.
        -11    1    4    4    0    0 -0.23247190144E-02  0.30466411487E-01  0.13629430766E-01  0.33460858498E-01  0.51100000000E-03 0. -1.
         11    1    4    4    0    0  0.23636062770E-01  0.87765448857E-01  0.22336252703E-01  0.93598113133E-01  0.51100000000E-03 0.  1.
</event>
<event>
 8    1  0.1150307E+005  0.1043930E+01  0.7957747E-01            NaN
         13   -1    0    0    0    0  0.00000000000E+00  0.00000000000E+00  0.74505805969E-08  0.10566000000E+00  0.10566000000E+00 0.  1.
     999900   -1    0    0    0    0 -0.00000000000E+00 -0.00000000000E+00 -0.74505805969E-08  0.93827000000E+00  0.93827000000E+00 0.  1.
     999902    2    1    2    0    0  0.14508959831E-01  0.17974168334E-01 -0.27908539812E-02  0.10206626514E+01  0.10203974121E+01 0.  0.
     999903    2    3    3    0    0  0.86673405104E-01  0.72284635781E-01  0.67864677960E-01  0.13322277279E+00  0.20133180414E-01 0.  0.
         14    1    1    2    0    0 -0.14508959831E-01 -0.17974168334E-01  0.27908539812E-02  0.23267348551E-01  0.00000000000E+00 0.  1.
     999901    1    3    3    0    0 -0.72164445273E-01 -0.54310467447E-01 -0.70655531941E-01  0.88743987866E+00  0.88000000000E+00 0.  1.
        -11    1    4    4    0    0  0.34352246497E-01  0.37119477194E-01  0.39091673428E-01  0.63924584308E-01  0.51100000000E-03 0.  1.
         11    1    4    4    0    0  0.52321158607E-01  0.35165158587E-01  0.28773004532E-01  0.69298188484E-01  0.51100000000E-03 0. -1.
</event>
<event>
 8    1  0.1150307E+005  0.1043930E+01  0.7957747E-01            NaN
         13   -1    0    0    0    0  0.00000000000E+00  0.00000000000E+00  0.74505805969E-08  0.10566000000E+00  0.10566000000E+00 0.  1.
     999900   -1    0    0    0    0 -0.00000000000E+00 -0.00000000000E+00 -0.74505805969E-08  0.93827000000E+00  0.93827000000E+00 0. -1.
     999902    2    1    2    0    0  0.18699622927E-02 -0.21913168096E-03 -0.26949666262E-01  0.10169146472E+01  0.10165557389E+01 0.  0.
     999903    2    3    3    0    0  0.10938947546E+00 -0.32765767573E-01 -0.57102868885E-01  0.12926102955E+00  0.20199585599E-01 0.  0.
         14    1    1    2    0    0 -0.18699622927E-02  0.21913168096E-03  0.26949666262E-01  0.27015352844E-01  0.00000000000E+00 0.  1.
     999901    1    3    3    0    0 -0.10751951317E+00  0.32546635892E-01  0.30153202623E-01  0.88765361761E+00  0.88000000000E+00 0.  1.
        -11    1    4    4    0    0  0.14541766900E-01 -0.11139313632E-01 -0.12875291791E-01  0.22396016442E-01  0.51100000000E-03 0. -1.
         11    1    4    4    0    0  0.94847708564E-01 -0.21626453941E-01 -0.44227577095E-01  0.10686501311E+00  0.51100000000E-03 0.  1.
</event>
<event>
 8    1  0.1150307E+005  0.1043930E+01  0.7957747E-01            NaN
         13   -1    0    0    0    0  0.00000000000E+00  0.00000000000E+00  0.74505805969E-08  0.10566000000E+00  0.10566000000E+00 0. -1.
     999900   -1    0    0    0    0 -0.00000000000E+00 -0.00000000000E+00 -0.74505805969E-08  0.93827000000E+00  0.93827000000E+00 0. -1.
     999902    2    1    2    0    0 -0.77682567228E-02  0.22433763887E-01 -0.47886493914E-02  0.10197111904E+01  0.10194235435E+01 0.  0.
     999903    2    3    3    0    0  0.38572713044E-01  0.11868553303E+00  0.40724215237E-01  0.13208327885E+00  0.14608932343E-01 0.  0.
         14    1    1    2    0    0  0.77682567228E-02 -0.22433763887E-01  0.47886493914E-02  0.24218809583E-01  0.00000000000E+00 0.  1.
     999901    1    3    3    0    0 -0.46340969767E-01 -0.96251769141E-01 -0.45512864628E-01  0.88762791156E+00  0.88000000000E+00 0.  1.
        -11    1    4    4    0    0  0.10545810264E-01  0.42654501220E-01  0.78623491895E-02  0.44639648791E-01  0.51100000000E-03 0.  1.
         11    1    4    4    0    0  0.28026902780E-01  0.76031031808E-01  0.32861866047E-01  0.87443630061E-01  0.51100000000E-03 0. -1.
</event>
<event>
 8    1  0.1150307E+005  0.1043930E+01  0.7957747E-01            NaN
         13   -1    0    0    0    0  0.00000000000E+00  0.00000000000E+00  0.74505805969E-08  0.10566000000E+00  0.10566000000E+00 0.  1.
     999900   -1    0    0    0    0 -0.00000000000E+00 -0.00000000000E+00 -0.74505805969E-08  0.93827000000E+00  0.93827000000E+00 0.  1.
     999902    2    1    2    0    0  0.32057817128E-02 -0.15591668180E-01 -0.17290558980E-01  0.10204280728E+01  0.10201573953E+01 0.  0.
     999903    2    3    3    0    0 -0.13015234698E-01  0.29341860732E-01  0.12280700749E+00  0.12806633474E+00  0.17002466879E-01 0.  0.
         14    1    1    2    0    0 -0.32057817128E-02  0.15591668180E-01  0.17290558980E-01  0.23501927216E-01  0.00000000000E+00 0.  1.
     999901    1    3    3    0    0  0.16221016411E-01 -0.44933528912E-01 -0.14009756647E+00  0.89236173804E+00  0.88000000000E+00 0.  1.
        -11    1    4    4    0    0 -0.11692366837E-01  0.10867048140E-01  0.37309621536E-01  0.40584149094E-01  0.51100000000E-03 0.  1.
         11    1    4    4    0    0 -0.13228678613E-02  0.18474812592E-01  0.85497385953E-01  0.87482185646E-01  0.51100000000E-03 0. -1.
</event>
<event>
 8    1  0.1150307E+005  0.1043930E+01  0.7957747E-01            NaN
         13   -1    0    0    0    0  0.00000000000E+00  0.00000000000E+00  0.74505805969E-08  0.10566000000E+00  0.10566000000E+00 0.  1.
     999900   -1    0    0    0    0 -0.00000000000E+00 -0.00000000000E+00 -0.74505805969E-08  0.93827000000E+00  0.93827000000E+00 0.  1.
     999902    2    1    2    0    0  0.11241324079E-01 -0.54700845897E-02 -0.18311152225E-01  0.10217582277E+01  0.10215176398E+01 0.  0.
     999903    2    3    3    0    0 -0.11307214206E-01 -0.13004203486E+00  0.68154664741E-02  0.13234383924E+00  0.20728175968E-01 0.  0.
         14    1    1    2    0    0 -0.11241324079E-01  0.54700845897E-02  0.18311152225E-01  0.22171772330E-01  0.00000000000E+00 0.  1.
     999901    1    3    3    0    0  0.22548538285E-01  0.12457195027E+00 -0.25126618699E-01  0.88941438843E+00  0.88000000000E+00 0.  1.
        -11    1    4    4    0    0  0.68353255836E-03 -0.96813556215E-01  0.39375649424E-02  0.96897355084E-01  0.51100000000E-03 0.  1.
         11    1    4    4    0    0 -0.11990746764E-01 -0.33228478645E-01  0.28779015317E-02  0.35446484159E-01  0.51100000000E-03 0. -1.
</event>
<event>
 8    1  0.1150307E+005  0.1043930E+01  0.7957747E-01            NaN
         13   -1    0    0    0    0  0.00000000000E+00  0.00000000000E+00  0.74505805969E-08  0.10566000000E+00  0.10566000000E+00 0.  1.
     999900   -1    0    0    0    0 -0.00000000000E+00 -0.00000000000E+00 -0.74505805969E-08  0.93827000000E+00  0.93827000000E+00 0. -1.
     999902    2    1    2    0    0 -0.15796569314E-01 -0.15637809809E-01  0.14749908626E-01  0.10172535590E+01  0.10169037176E+01 0.  0.
     999903    2    3    3    0    0  0.61062673587E-01  0.41238624274E-01 -0.98807297854E-01  0.12482008190E+00  0.19695088211E-01 0.  0.
         14    1    1    2    0    0  0.15796569314E-01  0.15637809809E-01 -0.14749908626E-01  0.26676440958E-01  0.00000000000E+00 0. -1.
     999901    1    3    3    0    0 -0.76859242901E-01 -0.56876434084E-01  0.11355720648E+00  0.89243347714E+00  0.88000000000E+00 0.  1.
        -11    1    4    4    0    0  0.14074700142E-01  0.20052001945E-01 -0.36370429531E-01  0.43854865538E-01  0.51100000000E-03 0. -1.
         11    1    4    4    0    0  0.46987973445E-01  0.21186622330E-01 -0.62436868323E-01  0.80965216366E-01  0.51100000000E-03 0.  1.
</event>
<event>
 8    1  0.1150307E+005  0.1043930E+01  0.7957747E-01            NaN
         13   -1    0    0    0    0  0.00000000000E+00  0.00000000000E+00  0.74505805969E-08  0.10566000000E+00  0.10566000000E+00 0.  1.
     999900   -1    0    0    0    0 -0.00000000000E+00 -0.00000000000E+00 -0.74505805969E-08  0.93827000000E+00  0.93827000000E+00 0.  1.
     999902    2    1    2    0    0  0.21526281356E-01 -0.97905355073E-02  0.36844386382E-03  0.10202789720E+01  0.10200048086E+01 0.  0.
     999903    2    3    3    0    0 -0.12906679944E-01 -0.71578773390E-01  0.10735812539E+00  0.13098138001E+00  0.18445911046E-01 0.  0.
         14    1    1    2    0    0 -0.21526281356E-01  0.97905355073E-02 -0.36844386382E-03  0.23651027999E-01  0.00000000000E+00 0.  1.
     999901    1    3    3    0    0  0.34432961299E-01  0.61788237883E-01 -0.10698968153E+00  0.88929759199E+00  0.88000000000E+00 0.  1.
        -11    1    4    4    0    0  0.46961208487E-02 -0.17591501580E-01  0.24403457622E-01  0.30451672266E-01  0.51100000000E-03 0.  1.
         11    1    4    4    0    0 -0.17602800792E-01 -0.53987271811E-01  0.82954667772E-01  0.10052970775E+00  0.51100000000E-03 0. -1.
</event>
<event>
 8    1  0.1150307E+005  0.1043930E+01  0.7957747E-01            NaN
         13   -1    0    0    0    0  0.00000000000E+00  0.00000000000E+00  0.74505805969E-08  0.10566000000E+00  0.10566000000E+00 0. -1.
     999900   -1    0    0    0    0 -0.00000000000E+00 -0.00000000000E+00 -0.74505805969E-08  0.93827000000E+00  0.93827000000E+00 0. -1.
     999902    2    1    2    0    0 -0.79800345541E-02  0.19370698773E-01 -0.11520845796E-01  0.10200211144E+01  0.10197408686E+01 0.  0.
     999903    2    3    3    0    0  0.72773323812E-01  0.49828367794E-01  0.92877808484E-01  0.12965722615E+00  0.20146614844E-01 0.  0.
         14    1    1    2    0    0  0.79800345541E-02 -0.19370698773E-01  0.11520845796E-01  0.23908885593E-01  0.00000000000E+00 0.  1.
     999901    1    3    3    0    0 -0.80753358366E-01 -0.30457669021E-01 -0.10439865428E+00  0.89036388825E+00  0.88000000000E+00 0. -1.
        -11    1    4    4    0    0  0.15226541167E-01  0.14812019419E-02  0.15846210965E-01  0.22031909542E-01  0.51100000000E-03 0. -1.
         11    1    4    4    0    0  0.57546782644E-01  0.48347165852E-01  0.77031597519E-01  0.10762531661E+00  0.51100000000E-03 0.  1.
</event>
<event>
 8    1  0.1150307E+005  0.1043930E+01  0.7957747E-01            NaN
         13   -1    0    0    0    0  0.00000000000E+00  0.00000000000E+00  0.74505805969E-08  0.10566000000E+00  0.10566000000E+00 0. -1.
     999900   -1    0    0    0    0 -0.00000000000E+00 -0.00000000000E+00 -0.74505805969E-08  0.93827000000E+00  0.93827000000E+00 0.  1.
     999902    2    1    2    0    0  0.22245589763E-01 -0.17645610374E-02  0.61889787768E-02  0.10207722065E+01  0.10205094876E+01 0.  0.
     999903    2    3    3    0    0 -0.51034188346E-01 -0.40227645981E-01 -0.10991203109E+00  0.12929658754E+00  0.20351930854E-01 0.  0.
         14    1    1    2    0    0 -0.22245589763E-01  0.17645610374E-02 -0.61889787768E-02  0.23157793458E-01  0.00000000000E+00 0. -1.
     999901    1    3    3    0    0  0.73279778109E-01  0.38463084943E-01  0.11610100987E+00  0.89147561900E+00  0.88000000000E+00 0. -1.
        -11    1    4    4    0    0 -0.39520309950E-01 -0.32503234558E-01 -0.67705980950E-01  0.84868581541E-01  0.51100000000E-03 0.  1.
         11    1    4    4    0    0 -0.11513878396E-01 -0.77244114233E-02 -0.42206050141E-01  0.44428005999E-01  0.51100000000E-03 0. -1.
</event>
<event>
 8    1  0.1150307E+005  0.1043930E+01  0.7957747E-01            NaN
         13   -1    0    0    0    0  0.00000000000E+00  0.00000000000E+00  0.74505805969E-08  0.10566000000E+00  0.10566000000E+00 0. -1.
     999900   -1    0    0    0    0 -0.00000000000E+00 -0.00000000000E+00 -0.74505805969E-08  0.93827000000E+00  0.93827000000E+00 0.  1.
     999902    2    1    2    0    0  0.15815148454E-02 -0.23970513867E-01 -0.23693382758E-02  0.10197908101E+01  0.10195050740E+01 0.  0.
     999903    2    3    3    0    0  0.11593965024E+00 -0.59765625977E-01 -0.33268972855E-02  0.13166920240E+00  0.17657238396E-01 0.  0.
         14    1    1    2    0    0 -0.15815148454E-02  0.23970513867E-01  0.23693382758E-02  0.24139189882E-01  0.00000000000E+00 0. -1.
     999901    1    3    3    0    0 -0.11435813540E+00  0.35795112110E-01  0.95755900964E-03  0.88812160772E+00  0.88000000000E+00 0.  1.
        -11    1    4    4    0    0  0.68485142849E-01 -0.37528947479E-01  0.64315797238E-02  0.78359830453E-01  0.51100000000E-03 0. -1.
         11    1    4    4    0    0  0.47454507392E-01 -0.22236678499E-01 -0.97584770093E-02  0.53309371944E-01  0.51100000000E-03 0.  1.
</event>
<event>
 8    1  0.1150307E+005  0.1043930E+01  0.7957747E-01            NaN
         13   -1    0    0    0    0  0.00000000000E+00  0.00000000000E+00  0.74505805969E-08  0.10566000000E+00  0.10566000000E+00 0. -1.
     999900   -1    0    0    0    0 -0.00000000000E+00 -0.00000000000E+00 -0.74505805969E-08  0.93827000000E+00  0.93827000000E+00 0.  1.
     999902    2    1    2    0    0 -0.68919137153E-03 -0.22187673920E-01  0.63147852894E-02  0.10208509105E+01  0.10205899946E+01 0.  0.
     999903    2    3    3    0    0  0.67394880979E-02 -0.41126800145E-01 -0.12267055820E+00  0.13121553878E+00  0.20799456225E-01 0.  0.
         14    1    1    2    0    0  0.68919137153E-03  0.22187673920E-01 -0.63147852894E-02  0.23079089496E-01  0.00000000000E+00 0.  1.
     999901    1    3    3    0    0 -0.74286794695E-02  0.18939126225E-01  0.12898534349E+00  0.88963537172E+00  0.88000000000E+00 0. -1.
        -11    1    4    4    0    0 -0.49346271040E-02 -0.26945486023E-01 -0.84916682194E-01  0.89227315311E-01  0.51100000000E-03 0.  1.
         11    1    4    4    0    0  0.11674115202E-01 -0.14181314122E-01 -0.37753876005E-01  0.41988223473E-01  0.51100000000E-03 0. -1.
</event>
<event>
 8    1  0.1150307E+005  0.1043930E+01  0.7957747E-01            NaN
         13   -1    0    0    0    0  0.00000000000E+00  0.00000000000E+00  0.74505805969E-08  0.10566000000E+00  0.10566000000E+00 0.  1.
     999900   -1    0    0    0    0 -0.00000000000E+00 -0.00000000000E+00 -0.74505805969E-08  0.93827000000E+00  0.93827000000E+00 0.  1.
     999902    2    1    2    0    0  0.37508366998E-02 -0.17297737975E-02  0.22347049881E-01  0.10212044300E+01  0.10209515348E+01 0.  0.
     999903    2    3    3    0    0 -0.75329354850E-01 -0.75469572970E-01 -0.71474410026E-01  0.12963631650E+00  0.18078028664E-01 0.  0.
         14    1    1    2    0    0 -0.37508366998E-02  0.17297737975E-02 -0.22347049881E-01  0.22725569998E-01  0.00000000000E+00 0. -1.
     999901    1    3    3    0    0  0.79080191550E-01  0.73739799172E-01  0.93821459907E-01  0.89156811350E+00  0.88000000000E+00 0. -1.
        -11    1    4    4    0    0 -0.32259263719E-01 -0.43854973685E-01 -0.40717384164E-01  0.67985919916E-01  0.51100000000E-03 0. -1.
         11    1    4    4    0    0 -0.43070091131E-01 -0.31614599285E-01 -0.30757025861E-01  0.61650396583E-01  0.51100000000E-03 0.  1.
</event>
<event>
 8    1  0.1150307E+005  0.1043930E+01  0.7957747E-01            NaN
         13   -1    0    0    0    0  0.00000000000E+00  0.00000000000E+00  0.74505805969E-08  0.10566000000E+00  0.10566000000E+00 0.  1.
     999900   -1    0    0    0    0 -0.00000000000E+00 -0.00000000000E+00 -0.74505805969E-08  0.93827000000E+00  0.93827000000E+00 0.  1.
     999902    2    1    2    0    0 -0.39613203609E-02 -0.17355588105E-01  0.15492832551E-01  0.10203305009E+01  0.10200575448E+01 0.  0.
     999903    2    3    3    0    0 -0.10096899396E+00  0.35722918087E-01  0.73743044741E-01  0.13149929995E+00  0.19574591228E-01 0.  0.
         14    1    1    2    0    0  0.39613203609E-02  0.17355588105E-01 -0.15492832551E-01  0.23599499103E-01  0.00000000000E+00 0. -1.
     999901    1    3    3    0    0  0.97007673599E-01 -0.53078506192E-01 -0.58250212190E-01  0.88883120095E+00  0.88000000000E+00 0.  1.
        -11    1    4    4    0    0 -0.44404982225E-01  0.16671494798E-01  0.21109950657E-01  0.51919479225E-01  0.51100000000E-03 0. -1.
         11    1    4    4    0    0 -0.56564011735E-01  0.19051423288E-01  0.52633094083E-01  0.79579820725E-01  0.51100000000E-03 0.  1.
</event>
<event>
 8    1  0.1150307E+005  0.1043930E+01  0.7957747E-01            NaN
         13   -1    0    0    0    0  0.00000000000E+00  0.00000000000E+00  0.74505805969E-08  0.10566000000E+00  0.10566000000E+00 0.  1.
     999900   -1    0    0    0    0 -0.00000000000E+00 -0.00000000000E+00 -0.74505805969E-08  0.93827000000E+00  0.93827000000E+00 0. -1.
     999902    2    1    2    0    0  0.23759533990E-01 -0.82029189269E-02  0.18671275930E-02  0.10187250501E+01  0.10184131962E+01 0.  0.
     999903    2    3    3    0    0  0.55478223878E-02 -0.10239245357E+00 -0.77249462054E-01  0.12998280983E+00  0.20323842705E-01 0.  0.
         14    1    1    2    0    0 -0.23759533990E-01  0.82029189269E-02 -0.18671275930E-02  0.25204949906E-01  0.00000000000E+00 0.  1.
     999901    1    3    3    0    0  0.18211711602E-01  0.94189534641E-01  0.79116589647E-01  0.88874224027E+00  0.88000000000E+00 0. -1.
        -11    1    4    4    0    0  0.17443715439E-02 -0.86439150453E-01 -0.55503092164E-01  0.10274056611E+00  0.51100000000E-03 0.  1.
         11    1    4    4    0    0  0.38034508439E-02 -0.15953303115E-01 -0.21746369890E-01  0.27242243722E-01  0.51100000000E-03 0. -1.
</event>
<event>
 8    1  0.1150307E+005  0.1043930E+01  0.7957747E-01            NaN
         13   -1    0    0    0    0  0.00000000000E+00  0.00000000000E+00  0.74505805969E-08  0.10566000000E+00  0.10566000000E+00 0. -1.
     999900   -1    0    0    0    0 -0.00000000000E+00 -0.00000000000E+00 -0.74505805969E-08  0.93827000000E+00  0.93827000000E+00 0.  1.
     999902    2    1    2    0    0 -0.41696900845E-02  0.14126301175E-01 -0.19862247194E-01  0.10192025342E+01  0.10189025263E+01 0.  0.
     999903    2    3    3    0    0 -0.84611085992E-01 -0.27537928212E-02 -0.99057219636E-01  0.13183136080E+00  0.20013887228E-01 0.  0.
         14    1    1    2    0    0  0.41696900845E-02 -0.14126301175E-01  0.19862247194E-01  0.24727465780E-01  0.00000000000E+00 0.  1.
     999901    1    3    3    0    0  0.80441395908E-01  0.16880093996E-01  0.79194972441E-01  0.88737117342E+00  0.88000000000E+00 0. -1.
        -11    1    4    4    0    0 -0.23457350623E-01  0.79168812165E-02 -0.24856120673E-01  0.35085782909E-01  0.51100000000E-03 0.  1.
         11    1    4    4    0    0 -0.61153735369E-01 -0.10670674038E-01 -0.74201098963E-01  0.96745577895E-01  0.51100000000E-03 0. -1.
</event>
<event>
 8    1  0.1150307E+005  0.1043930E+01  0.7957747E-01            NaN
         13   -1    0    0    0    0  0.00000000000E+00  0.00000000000E+00  0.74505805969E-08  0.10566000000E+00  0.10566000000E+00 0.  1.
     999900   -1    0    0    0    0 -0.00000000000E+00 -0.00000000000E+00 -0.74505805969E-08  0.93827000000E+00  0.93827000000E+00 0. -1.
     999902    2    1    2    0    0 -0.13211354565E-01 -0.10868862116E-02 -0.20042957063E-01  0.10198999909E+01  0.10196168643E+01 0.  0.
     999903    2    3    3    0    0  0.98406907644E-01 -0.75550703583E-01  0.26480151592E-01  0.12851461058E+00  0.20566439160E-01 0.  0.
         14    1    1    2    0    0  0.13211354565E-01  0.10868862116E-02  0.20042957063E-01  0.24030009132E-01  0.00000000000E+00 0.  1.
     999901    1    3    3    0    0 -0.11161826221E+00  0.74463817371E-01 -0.46523108655E-01  0.89138538029E+00  0.88000000000E+00 0.  1.
        -11    1    4    4    0    0  0.86510332503E-01 -0.58034567859E-01  0.25808114857E-01  0.10732366286E+00  0.51100000000E-03 0.  1.
         11    1    4    4    0    0  0.11896575141E-01 -0.17516135723E-01  0.67203673488E-03  0.21190947717E-01  0.51100000000E-03 0. -1.
</event>
<event>
 8    1  0.1150307E+005  0.1043930E+01  0.7957747E-01            NaN
         13   -1    0    0    0    0  0.00000000000E+00  0.00000000000E+00  0.74505805969E-08  0.10566000000E+00  0.10566000000E+00 0.  1.
     999900   -1    0    0    0    0 -0.00000000000E+00 -0.00000000000E+00 -0.74505805969E-08  0.93827000000E+00  0.93827000000E+00 0. -1.
     999902    2    1    2    0    0  0.81204084714E-02  0.20357132109E-01 -0.16153805771E-01  0.10167031878E+01  0.10163385621E+01 0.  0.
     999903    2    3    3    0    0  0.38393949283E-01  0.96946679380E-02 -0.12193776048E+00  0.12978694571E+00  0.20192867990E-01 0.  0.
         14    1    1    2    0    0 -0.81204084714E-02 -0.20357132109E-01  0.16153805771E-01  0.27226812196E-01  0.00000000000E+00 0. -1.
     999901    1    3    3    0    0 -0.30273540811E-01  0.10662464171E-01  0.10578395471E+00  0.88691624209E+00  0.88000000000E+00 0. -1.
        -11    1    4    4    0    0  0.13366558346E-01  0.12998623309E-01 -0.62084316980E-01  0.64825555345E-01  0.51100000000E-03 0. -1.
         11    1    4    4    0    0  0.25027390937E-01 -0.33039553706E-02 -0.59853443501E-01  0.64961390365E-01  0.51100000000E-03 0.  1.
</event>
<event>
 8    1  0.1150307E+005  0.1043930E+01  0.7957747E-01            NaN
         13   -1    0    0    0    0  0.00000000000E+00  0.00000000000E+00  0.74505805969E-08  0.10566000000E+00  0.10566000000E+00 0. -1.
     999900   -1    0    0    0    0 -0.00000000000E+00 -0.00000000000E+00 -0.74505805969E-08  0.93827000000E+00  0.93827000000E+00 0. -1.
     999902    2    1    2    0    0  0.10756968777E-01  0.15060213600E-01 -0.46298636131E-02  0.10248523154E+01  0.10246747340E+01 0.  0.
     999903    2    3    3    0    0  0.34387001620E-01 -0.45740396210E-01  0.11925333741E+00  0.13378433818E+00  0.20055945067E-01 0.  0.
         14    1    1    2    0    0 -0.10756968777E-01 -0.15060213600E-01  0.46298636131E-02  0.19077684557E-01  0.00000000000E+00 0.  1.
     999901    1    3    3    0    0 -0.23630032842E-01  0.60800609810E-01 -0.12388320103E+00  0.89106797726E+00  0.88000000000E+00 0.  1.
        -11    1    4    4    0    0  0.50503813656E-02 -0.96368655086E-02  0.43862159043E-01  0.45194309882E-01  0.51100000000E-03 0.  1.
         11    1    4    4    0    0  0.29336620254E-01 -0.36103530701E-01  0.75391178370E-01  0.88590028299E-01  0.51100000000E-03 0. -1.
</event>
<event>
 8    1  0.1150307E+005  0.1043930E+01  0.7957747E-01            NaN
         13   -1    0    0    0    0  0.00000000000E+00  0.00000000000E+00  0.74505805969E-08  0.10566000000E+00  0.10566000000E+00 0. -1.
     999900   -1    0    0    0    0 -0.00000000000E+00 -0.00000000000E+00 -0.74505805969E-08  0.93827000000E+00  0.93827000000E+00 0. -1.
     999902    2    1    2    0    0  0.13348824579E-01  0.17977591445E-01  0.68267051471E-02  0.10205208391E+01  0.10202523189E+01 0.  0.
     999903    2    3    3    0    0  0.84174807683E-01 -0.59317532604E-01  0.78935422864E-01  0.13136926412E+00  0.20569750846E-01 0.  0.
         14    1    1    2    0    0 -0.13348824579E-01 -0.17977591445E-01 -0.68267051471E-02  0.23409160920E-01  0.00000000000E+00 0.  1.
     999901    1    3    3    0    0 -0.70825983104E-01  0.77295124049E-01 -0.72108717717E-01  0.88915157496E+00  0.88000000000E+00 0. -1.
        -11    1    4    4    0    0  0.63957942117E-02 -0.12952658571E-01  0.11258538129E-01  0.18321936291E-01  0.51100000000E-03 0. -1.
         11    1    4    4    0    0  0.77779013471E-01 -0.46364874033E-01  0.67676884735E-01  0.11304732783E+00  0.51100000000E-03 0.  1.
</event>
<event>
 8    1  0.1150307E+005  0.1043930E+01  0.7957747E-01            NaN
         13   -1    0    0    0    0  0.00000000000E+00  0.00000000000E+00  0.74505805969E-08  0.10566000000E+00  0.10566000000E+00 0.  1.
     999900   -1    0    0    0    0 -0.00000000000E+00 -0.00000000000E+00 -0.74505805969E-08  0.93827000000E+00  0.93827000000E+00 0.  1.
     999902    2    1    2    0    0  0.14035048494E-01 -0.52403315505E-02  0.10535855820E-01  0.10256147627E+01  0.10254512146E+01 0.  0.
     999903    2    3    3    0    0 -0.11301037053E+00 -0.59989644369E-01  0.35095619470E-01  0.13446875457E+00  0.21909864646E-01 0.  0.
         14    1    1    2    0    0 -0.14035048494E-01  0.52403315505E-02 -0.10535855820E-01  0.18315237341E-01  0.00000000000E+00 0. -1.
     999901    1    3    3    0    0  0.12704541903E+00  0.54749312819E-01 -0.24559763650E-01  0.89114600809E+00  0.88000000000E+00 0.  1.
        -11    1    4    4    0    0 -0.65495366366E-01 -0.22511804155E-01  0.20199475475E-01  0.72143636395E-01  0.51100000000E-03 0.  1.
         11    1    4    4    0    0 -0.47515004167E-01 -0.37477840214E-01  0.14896143995E-01  0.62325118171E-01  0.51100000000E-03 0. -1.
</event>
<event>
 8    1  0.1150307E+005  0.1043930E+01  0.7957747E-01            NaN
         13   -1    0    0    0    0  0.00000000000E+00  0.00000000000E+00  0.74505805969E-08  0.10566000000E+00  0.10566000000E+00 0.  1.
     999900   -1    0    0    0    0 -0.00000000000E+00 -0.00000000000E+00 -0.74505805969E-08  0.93827000000E+00  0.93827000000E+00 0. -1.
     999902    2    1    2    0    0  0.15293424069E-01 -0.51688259532E-02 -0.16618600844E-01  0.10207614119E+01  0.10204984451E+01 0.  0.
     999903    2    3    3    0    0  0.66367296653E-01 -0.88194188252E-01  0.68346004909E-01  0.13131173063E+00  0.19717030894E-01 0.  0.
         14    1    1    2    0    0 -0.15293424069E-01  0.51688259532E-02  0.16618600844E-01  0.23168588121E-01  0.00000000000E+00 0.  1.
     999901    1    3    3    0    0 -0.51073872583E-01  0.83025362299E-01 -0.84964605753E-01  0.88944968125E+00  0.88000000000E+00 0. -1.
        -11    1    4    4    0    0  0.33482767368E-02 -0.84991468177E-02  0.12133166609E-01  0.15196095113E-01  0.51100000000E-03 0.  1.
         11    1    4    4    0    0  0.63019019916E-01 -0.79695041434E-01  0.56212838300E-01  0.11611563552E+00  0.51100000000E-03 0. -1.
</event>
<event>
 8    1  0.1150307E+005  0.1043930E+01  0.7957747E-01            NaN
         13   -1    0    0    0    0  0.00000000000E+00  0.00000000000E+00  0.74505805969E-08  0.10566000000E+00  0.10566000000E+00 0.  1.
     999900   -1    0    0    0    0 -0.00000000000E+00 -0.00000000000E+00 -0.74505805969E-08  0.93827000000E+00  0.93827000000E+00 0. -1.
     999902    2    1    2    0    0  0.74276932589E-03  0.42980793922E-02 -0.23101861648E-01  0.10204199765E+01  0.10201491103E+01 0.  0.
     999903    2    3    3    0    0 -0.95595618541E-01 -0.85663401292E-01  0.74149016532E-02  0.13007991461E+00  0.19724675254E-01 0.  0.
         14    1    1    2    0    0 -0.74276932589E-03 -0.42980793922E-02  0.23101861648E-01  0.23510023487E-01  0.00000000000E+00 0.  1.
     999901    1    3    3    0    0  0.96338387867E-01  0.89961480684E-01 -0.30516763301E-01  0.89034006190E+00  0.88000000000E+00 0. -1.
        -11    1    4    4    0    0 -0.40139360954E-01 -0.29313557294E-01 -0.53488315205E-02  0.49993240130E-01  0.51100000000E-03 0. -1.
         11    1    4    4    0    0 -0.55456257587E-01 -0.56349843999E-01  0.12763733174E-01  0.80086674483E-01  0.51100000000E-03 0.  1.
</event>
<event>
 8    1  0.1150307E+005  0.1043930E+01  0.7957747E-01            NaN
         13   -1    0    0    0    0  0.00000000000E+00  0.00000000000E+00  0.74505805969E-08  0.10566000000E+00  0.10566000000E+00 0.  1.
     999900   -1    0    0    0    0 -0.00000000000E+00 -0.00000000000E+00 -0.74505805969E-08  0.93827000000E+00  0.93827000000E+00 0. -1.
     999902    2    1    2    0    0  0.17540345852E-01 -0.13251379194E-01  0.35760574207E-02  0.10216577983E+01  0.10214150018E+01 0.  0.
     999903    2    3    3    0    0  0.50075390777E-01  0.74954172758E-01 -0.93491008314E-01  0.13134281817E+00  0.19613629802E-01 0.  0.
         14    1    1    2    0    0 -0.17540345852E-01  0.13251379194E-01 -0.35760574207E-02  0.22272201728E-01  0.00000000000E+00 0.  1.
     999901    1    3    3    0    0 -0.32535044926E-01 -0.88205551952E-01  0.97067065735E-01  0.89031498010E+00  0.88000000000E+00 0.  1.
        -11    1    4    4    0    0  0.21053350767E-01  0.48687070524E-01 -0.51483450185E-01  0.73922129154E-01  0.51100000000E-03 0. -1.
         11    1    4    4    0    0  0.29022040010E-01  0.26267102234E-01 -0.42007558129E-01  0.57420689016E-01  0.51100000000E-03 0.  1.
</event>
<event>
 8    1  0.1150307E+005  0.1043930E+01  0.7957747E-01            NaN
         13   -1    0    0    0    0  0.00000000000E+00  0.00000000000E+00  0.74505805969E-08  0.10566000000E+00  0.10566000000E+00 0. -1.
     999900   -1    0    0    0    0 -0.00000000000E+00 -0.00000000000E+00 -0.74505805969E-08  0.93827000000E+00  0.93827000000E+00 0.  1.
     999902    2    1    2    0    0  0.50016188902E-03  0.23560884295E-01  0.28299872993E-02  0.10201944937E+01  0.10199183451E+01 0.  0.
     999903    2    3    3    0    0 -0.12327247087E+00  0.31690836891E-01  0.22823748975E-01  0.13127069987E+00  0.22597829750E-01 0.  0.
         14    1    1    2    0    0 -0.50016188902E-03 -0.23560884295E-01 -0.28299872993E-02  0.23735506289E-01  0.00000000000E+00 0. -1.
     999901    1    3    3    0    0  0.12377263276E+00 -0.81299525954E-02 -0.19993761676E-01  0.88892379384E+00  0.88000000000E+00 0.  1.
        -11    1    4    4    0    0 -0.78614727140E-01  0.10718061371E-01  0.79676738785E-02  0.79742693151E-01  0.51100000000E-03 0. -1.
         11    1    4    4    0    0 -0.44657743732E-01  0.20972775520E-01  0.14856075097E-01  0.51528006720E-01  0.51100000000E-03 0.  1.
</event>
<event>
 8    1  0.1150307E+005  0.1043930E+01  0.7957747E-01            NaN
         13   -1    0    0    0    0  0.00000000000E+00  0.00000000000E+00  0.74505805969E-08  0.10566000000E+00  0.10566000000E+00 0.  1.
     999900   -1    0    0    0    0 -0.00000000000E+00 -0.00000000000E+00 -0.74505805969E-08  0.93827000000E+00  0.93827000000E+00 0. -1.
     999902    2    1    2    0    0 -0.13638554885E-01 -0.15808353729E-02 -0.19048278489E-01  0.10204492391E+01  0.10201790546E+01 0.  0.
     999903    2    3    3    0    0 -0.10706948368E+00  0.73181300299E-01 -0.26499526411E-02  0.13219948790E+00  0.25501084337E-01 0.  0.
         14    1    1    2    0    0  0.13638554885E-01  0.15808353729E-02  0.19048278489E-01  0.23480760917E-01  0.00000000000E+00 0.  1.
     999901    1    3    3    0    0  0.93430928798E-01 -0.74762135672E-01 -0.16398325848E-01  0.88824975118E+00  0.88000000000E+00 0.  1.
        -11    1    4    4    0    0 -0.56855248781E-01  0.44999050145E-01  0.10129357582E-01  0.73214061722E-01  0.51100000000E-03 0.  1.
         11    1    4    4    0    0 -0.50214234903E-01  0.28182250154E-01 -0.12779310223E-01  0.58985426178E-01  0.51100000000E-03 0. -1.
</event>
<event>
 8    1  0.1150307E+005  0.1043930E+01  0.7957747E-01            NaN
         13   -1    0    0    0    0  0.00000000000E+00  0.00000000000E+00  0.74505805969E-08  0.10566000000E+00  0.10566000000E+00 0. -1.
     999900   -1    0    0    0    0 -0.00000000000E+00 -0.00000000000E+00 -0.74505805969E-08  0.93827000000E+00  0.93827000000E+00 0. -1.
     999902    2    1    2    0    0  0.12013049761E-01 -0.19956740203E-01  0.70204048371E-04  0.10206364435E+01  0.10203705994E+01 0.  0.
     999903    2    3    3    0    0 -0.10534534506E+00  0.68544819171E-01 -0.16075710531E-01  0.12829894606E+00  0.20153340416E-01 0.  0.
         14    1    1    2    0    0 -0.12013049761E-01  0.19956740203E-01 -0.70204048371E-04  0.23293556463E-01  0.00000000000E+00 0.  1.
     999901    1    3    3    0    0  0.11735839482E+00 -0.88501559374E-01  0.16145914579E-01  0.89233749748E+00  0.88000000000E+00 0.  1.
        -11    1    4    4    0    0 -0.27027437388E-01  0.19767784220E-01 -0.13172759776E-01  0.35986530617E-01  0.51100000000E-03 0. -1.
         11    1    4    4    0    0 -0.78317907671E-01  0.48777034952E-01 -0.29029507546E-02  0.92312415442E-01  0.51100000000E-03 0.  1.
</event>
<event>
 8    1  0.1150307E+005  0.1043930E+01  0.7957747E-01            NaN
         13   -1    0    0    0    0  0.00000000000E+00  0.00000000000E+00  0.74505805969E-08  0.10566000000E+00  0.10566000000E+00 0. -1.
     999900   -1    0    0    0    0 -0.00000000000E+00 -0.00000000000E+00 -0.74505805969E-08  0.93827000000E+00  0.93827000000E+00 0. -1.
     999902    2    1    2    0    0  0.15150661292E-02 -0.17901474697E-01 -0.13698001336E-01  0.10213381107E+01  0.10210882150E+01 0.  0.
     999903    2    3    3    0    0 -0.80618549169E-01 -0.27909830229E-01  0.96768663200E-01  0.13058057808E+00  0.20218904527E-01 0.  0.
         14    1    1    2    0    0 -0.15150661292E-02  0.17901474697E-01  0.13698001336E-01  0.22591889304E-01  0.00000000000E+00 0.  1.
     999901    1    3    3    0    0  0.82133615298E-01  0.10008355532E-01 -0.11046666454E+00  0.89075753262E+00  0.88000000000E+00 0. -1.
        -11    1    4    4    0    0 -0.30814447529E-01 -0.15751421948E-02  0.40906642162E-01  0.51240860097E-01  0.51100000000E-03 0. -1.
         11    1    4    4    0    0 -0.49804101640E-01 -0.26334688034E-01  0.55862021038E-01  0.79339717982E-01  0.51100000000E-03 0.  1.
</event>
<event>
 8    1  0.1150307E+005  0.1043930E+01  0.7957747E-01            NaN
         13   -1    0    0    0    0  0.00000000000E+00  0.00000000000E+00  0.74505805969E-08  0.10566000000E+00  0.10566000000E+00 0.  1.
     999900   -1    0    0    0    0 -0.00000000000E+00 -0.00000000000E+00 -0.74505805969E-08  0.93827000000E+00  0.93827000000E+00 0. -1.
     999902    2    1    2    0    0 -0.30524639464E-03 -0.20565051061E-01  0.10817098490E-01  0.10206915809E+01  0.10204270083E+01 0.  0.
     999903    2    3    3    0    0  0.80107837376E-01 -0.51739300559E-01  0.90755361826E-01  0.13286940065E+00  0.17986692246E-01 0.  0.
         14    1    1    2    0    0  0.30524639464E-03  0.20565051061E-01 -0.10817098490E-01  0.23238419057E-01  0.00000000000E+00 0. -1.
     999901    1    3    3    0    0 -0.80413083770E-01  0.31174249498E-01 -0.79938263335E-01  0.88782218029E+00  0.88000000000E+00 0. -1.
        -11    1    4    4    0    0  0.39355857006E-01 -0.14837289358E-01  0.38852220490E-01  0.57260674063E-01  0.51100000000E-03 0. -1.
         11    1    4    4    0    0  0.40751980369E-01 -0.36902011202E-01  0.51903141336E-01  0.75608726588E-01  0.51100000000E-03 0.  1.
</event>
<event>
 8    1  0.1150307E+005  0.1043930E+01  0.7957747E-01            NaN
         13   -1    0    0    0    0  0.00000000000E+00  0.00000000000E+00  0.74505805969E-08  0.10566000000E+00  0.10566000000E+00 0.  1.
     999900   -1    0    0    0    0 -0.00000000000E+00 -0.00000000000E+00 -0.74505805969E-08  0.93827000000E+00  0.93827000000E+00 0. -1.
     999902    2    1    2    0    0  0.24523040961E-03 -0.17967545697E-01  0.16147570058E-01  0.10197714227E+01  0.10194852220E+01 0.  0.
     999903    2    3    3    0    0  0.56271506611E-01 -0.81549690161E-01  0.86280650548E-01  0.13292291161E+00  0.20182055159E-01 0.  0.
         14    1    1    2    0    0 -0.24523040961E-03  0.17967545697E-01 -0.16147570058E-01  0.24158577257E-01  0.00000000000E+00 0. -1.
     999901    1    3    3    0    0 -0.56026276201E-01  0.63582144464E-01 -0.70133080490E-01  0.88684851113E+00  0.88000000000E+00 0. -1.
        -11    1    4    4    0    0  0.17251161256E-01 -0.13390572605E-01  0.25728521521E-01  0.33750969468E-01  0.51100000000E-03 0.  1.
         11    1    4    4    0    0  0.39020345354E-01 -0.68159117556E-01  0.60552129027E-01  0.99171942142E-01  0.51100000000E-03 0. -1.
</event>
<event>
 8    1  0.1150307E+005  0.1043930E+01  0.7957747E-01            NaN
         13   -1    0    0    0    0  0.00000000000E+00  0.00000000000E+00  0.74505805969E-08  0.10566000000E+00  0.10566000000E+00 0. -1.
     999900   -1    0    0    0    0 -0.00000000000E+00 -0.00000000000E+00 -0.74505805969E-08  0.93827000000E+00  0.93827000000E+00 0.  1.
     999902    2    1    2    0    0 -0.22662300000E-02  0.11915443303E-01  0.20639845436E-01  0.10199901419E+01  0.10197091608E+01 0.  0.
     999903    2    3    3    0    0 -0.12555564312E+00  0.31301689414E-01  0.87533033684E-03  0.13096441560E+00  0.20171679887E-01 0.  0.
         14    1    1    2    0    0  0.22662300000E-02 -0.11915443303E-01 -0.20639845436E-01  0.23939858127E-01  0.00000000000E+00 0.  1.
     999901    1    3    3    0    0  0.12328941312E+00 -0.19386246110E-01  0.19764515099E-01  0.88902572628E+00  0.88000000000E+00 0.  1.
        -11    1    4    4    0    0 -0.64367935920E-01  0.26312876553E-01  0.18227930975E-02  0.69564231777E-01  0.51100000000E-03 0. -1.
         11    1    4    4    0    0 -0.61187707201E-01  0.49888128611E-02 -0.94746276066E-03  0.61400183818E-01  0.51100000000E-03 0.  1.
</event>
<event>
 8    1  0.1150307E+005  0.1043930E+01  0.7957747E-01            NaN
         13   -1    0    0    0    0  0.00000000000E+00  0.00000000000E+00  0.74505805969E-08  0.10566000000E+00  0.10566000000E+00 0.  1.
     999900   -1    0    0    0    0 -0.00000000000E+00 -0.00000000000E+00 -0.74505805969E-08  0.93827000000E+00  0.93827000000E+00 0. -1.
     999902    2    1    2    0    0 -0.19650485068E-01  0.52519993663E-02 -0.55499690496E-02  0.10228461859E+01  0.10226288637E+01 0.  0.
     999903    2    3    3    0    0  0.82980776117E-01 -0.44934698795E-01 -0.89536587341E-01  0.13149573153E+00  0.19219536344E-01 0.  0.
         14    1    1    2    0    0  0.19650485068E-01 -0.52519993663E-02  0.55499690496E-02  0.21083814104E-01  0.00000000000E+00 0. -1.
     999901    1    3    3    0    0 -0.10263126118E+00  0.50186698162E-01  0.83986618292E-01  0.89135045437E+00  0.88000000000E+00 0.  1.
        -11    1    4    4    0    0  0.38881608122E-01 -0.30948292540E-01 -0.51866127255E-01  0.71832670414E-01  0.51100000000E-03 0. -1.
         11    1    4    4    0    0  0.44099167994E-01 -0.13986406256E-01 -0.37670460086E-01  0.59663061117E-01  0.51100000000E-03 0.  1.
</event>
<event>
 8    1  0.1150307E+005  0.1043930E+01  0.7957747E-01            NaN
         13   -1    0    0    0    0  0.00000000000E+00  0.00000000000E+00  0.74505805969E-08  0.10566000000E+00  0.10566000000E+00 0.  1.
     999900   -1    0    0    0    0 -0.00000000000E+00 -0.00000000000E+00 -0.74505805969E-08  0.93827000000E+00  0.93827000000E+00 0.  1.
     999902    2    1    2    0    0 -0.17827228245E-01  0.14549056087E-01  0.41008058535E-02  0.10205569020E+01  0.10202892181E+01 0.  0.
     999903    2    3    3    0    0 -0.55048724746E-01  0.63183274218E-01 -0.10038957055E+00  0.13226136240E+00  0.19811962807E-01 0.  0.
         14    1    1    2    0    0  0.17827228245E-01 -0.14549056087E-01 -0.41008058535E-02  0.23373097967E-01  0.00000000000E+00 0. -1.
     999901    1    3    3    0    0  0.37221496500E-01 -0.48634218131E-01  0.10449037641E+00  0.88829553964E+00  0.88000000000E+00 0. -1.
        -11    1    4    4    0    0 -0.24474587067E-01  0.37893982162E-01 -0.41818918560E-01  0.61514570361E-01  0.51100000000E-03 0. -1.
         11    1    4    4    0    0 -0.30574137678E-01  0.25289292056E-01 -0.58570651993E-01  0.70746792036E-01  0.51100000000E-03 0.  1.
</event>
<event>
 8    1  0.1150307E+005  0.1043930E+01  0.7957747E-01            NaN
         13   -1    0    0    0    0  0.00000000000E+00  0.00000000000E+00  0.74505805969E-08  0.10566000000E+00  0.10566000000E+00 0.  1.
     999900   -1    0    0    0    0 -0.00000000000E+00 -0.00000000000E+00 -0.74505805969E-08  0.93827000000E+00  0.93827000000E+00 0.  1.
     999902    2    1    2    0    0 -0.47890677881E-02  0.68605347507E-03 -0.22210335242E-01  0.10211988577E+01  0.10209458370E+01 0.  0.
     999903    2    3    3    0    0  0.11238467887E+00 -0.54248091895E-01 -0.36398404287E-01  0.13162100918E+00  0.20641577056E-01 0.  0.
         14    1    1    2    0    0  0.47890677881E-02 -0.68605347507E-03  0.22210335242E-01  0.22731142321E-01  0.00000000000E+00 0.  1.
     999901    1    3    3    0    0 -0.11717374666E+00  0.54934145370E-01  0.14188069045E-01  0.88957784850E+00  0.88000000000E+00 0. -1.
        -11    1    4    4    0    0  0.88127292381E-01 -0.51491338255E-01 -0.29510781425E-01  0.10624935256E+00  0.51100000000E-03 0.  1.
         11    1    4    4    0    0  0.24257386494E-01 -0.27567536399E-02 -0.68876228621E-02  0.25371656624E-01  0.51100000000E-03 0. -1.
</event>
<event>
 8    1  0.1150307E+005  0.1043930E+01  0.7957747E-01            NaN
         13   -1    0    0    0    0  0.00000000000E+00  0.00000000000E+00  0.74505805969E-08  0.10566000000E+00  0.10566000000E+00 0.  1.
     999900   -1    0    0    0    0 -0.00000000000E+00 -0.00000000000E+00 -0.74505805969E-08  0.93827000000E+00  0.93827000000E+00 0. -1.
     999902    2    1    2    0    0 -0.93355295701E-02  0.20377615852E-01 -0.10865695446E-01  0.10190209117E+01  0.10187164257E+01 0.  0.
     999903    2    3    3    0    0 -0.24338228198E-01 -0.11507360095E+00  0.43345664991E-01  0.12688247815E+00  0.19647737811E-01 0.  0.
         14    1    1    2    0    0  0.93355295701E-02 -0.20377615852E-01  0.10865695446E-01  0.24909088255E-01  0.00000000000E+00 0.  1.
     999901    1    3    3    0    0  0.15002698628E-01  0.13545121680E+00 -0.54211360436E-01  0.89213843360E+00  0.88000000000E+00 0.  1.
        -11    1    4    4    0    0 -0.49557648445E-02 -0.69245242967E-01  0.23202659017E-01  0.73198960274E-01  0.51100000000E-03 0.  1.
         11    1    4    4    0    0 -0.19382463354E-01 -0.45828357980E-01  0.20143005974E-01  0.53683517875E-01  0.51100000000E-03 0. -1.
</event>
<event>
 8    1  0.1150307E+005  0.1043930E+01  0.7957747E-01            NaN
         13   -1    0    0    0    0  0.00000000000E+00  0.00000000000E+00  0.74505805969E-08  0.10566000000E+00  0.10566000000E+00 0.  1.
     999900   -1    0    0    0    0 -0.00000000000E+00 -0.00000000000E+00 -0.74505805969E-08  0.93827000000E+00  0.93827000000E+00 0.  1.
     999902    2    1    2    0    0  0.16298537685E-01  0.90464349360E-02 -0.13979985274E-01  0.10206293497E+01  0.10203633417E+01 0.  0.
     999903    2    3    3    0    0  0.70744072632E-01 -0.56016910992E-01 -0.95325611982E-01  0.13281480475E+00  0.20252948699E-01 0.  0.
         14    1    1    2    0    0 -0.16298537685E-01 -0.90464349360E-02  0.13979985274E-01  0.23300650291E-01  0.00000000000E+00 0.  1.
     999901    1    3    3    0    0 -0.54445534947E-01  0.65063345928E-01  0.81345626707E-01  0.88781454496E+00  0.88000000000E+00 0. -1.
        -11    1    4    4    0    0  0.32829203341E-01 -0.34225279450E-01 -0.38370328307E-01  0.61005487957E-01  0.51100000000E-03 0.  1.
         11    1    4    4    0    0  0.37914869291E-01 -0.21791631542E-01 -0.56955283675E-01  0.71809316792E-01  0.51100000000E-03 0. -1.
</event>
<event>
 8    1  0.1150307E+005  0.1043930E+01  0.7957747E-01            NaN
         13   -1    0    0    0    0  0.00000000000E+00  0.00000000000E+00  0.74505805969E-08  0.10566000000E+00  0.10566000000E+00 0. -1.
     999900   -1    0    0    0    0 -0.00000000000E+00 -0.00000000000E+00 -0.74505805969E-08  0.93827000000E+00  0.93827000000E+00 0. -1.
     999902    2    1    2    0    0  0.21542246361E-01  0.11091466384E-01  0.10702411360E-02  0.10196764555E+01  0.10193879730E+01 0.  0.
     999903    2    3    3    0    0  0.89913837258E-01  0.90048541433E-01  0.33249503906E-01  0.13291583442E+00  0.19179457364E-01 0.  0.
         14    1    1    2    0    0 -0.21542246361E-01 -0.11091466384E-01 -0.10702411360E-02  0.24253544502E-01  0.00000000000E+00 0.  1.
     999901    1    3    3    0    0 -0.68371590897E-01 -0.78957075049E-01 -0.32179262770E-01  0.88676062108E+00  0.88000000000E+00 0. -1.
        -11    1    4    4    0    0  0.57027365440E-01  0.43662704178E-01  0.18209731918E-01  0.74097284719E-01  0.51100000000E-03 0. -1.
         11    1    4    4    0    0  0.32886471819E-01  0.46385837255E-01  0.15039771988E-01  0.58818549701E-01  0.51100000000E-03 0.  1.
</event>
<event>
 8    1  0.1150307E+005  0.1043930E+01  0.7957747E-01            NaN
         13   -1    0    0    0    0  0.00000000000E+00  0.00000000000E+00  0.74505805969E-08  0.10566000000E+00  0.10566000000E+00 0.  1.
     999900   -1    0    0    0    0 -0.00000000000E+00 -0.00000000000E+00 -0.74505805969E-08  0.93827000000E+00  0.93827000000E+00 0.  1.
     999902    2    1    2    0    0 -0.11178816791E-01 -0.13917991975E-01  0.15608384819E-01  0.10202171739E+01  0.10199415590E+01 0.  0.
     999903    2    3    3    0    0  0.79200889742E-01 -0.97672371469E-01  0.32501177325E-01  0.13147162320E+00  0.20390882627E-01 0.  0.
         14    1    1    2    0    0  0.11178816791E-01  0.13917991975E-01 -0.15608384819E-01  0.23712826110E-01  0.00000000000E+00 0.  1.
     999901    1    3    3    0    0 -0.90379706533E-01  0.83754379494E-01 -0.16892792506E-01  0.88874555069E+00  0.88000000000E+00 0.  1.
        -11    1    4    4    0    0  0.67291049857E-01 -0.69405174054E-01  0.26096899557E-01  0.10013227683E+00  0.51100000000E-03 0. -1.
         11    1    4    4    0    0  0.11909839885E-01 -0.28267197415E-01  0.64042777680E-02  0.31339346364E-01  0.51100000000E-03 0.  1.
</event>
<event>
 8    1  0.1150307E+005  0.1043930E+01  0.7957747E-01            NaN
         13   -1    0    0    0    0  0.00000000000E+00  0.00000000000E+00  0.74505805969E-08  0.10566000000E+00  0.10566000000E+00 0.  1.
     999900   -1    0    0    0    0 -0.00000000000E+00 -0.00000000000E+00 -0.74505805969E-08  0.93827000000E+00  0.93827000000E+00 0.  1.
     999902    2    1    2    0    0 -0.21400128073E-01 -0.82616658890E-02  0.72401352063E-02  0.10198750595E+01  0.10195913381E+01 0.  0.
     999903    2    3    3    0    0 -0.45336647474E-02 -0.71060229791E-01 -0.10687287373E+00  0.13012795159E+00  0.21008623789E-01 0.  0.
         14    1    1    2    0    0  0.21400128073E-01  0.82616658890E-02 -0.72401352063E-02  0.24054940503E-01  0.00000000000E+00 0.  1.
     999901    1    3    3    0    0 -0.16866463325E-01  0.62798563902E-01  0.11411300893E+00  0.88974710790E+00  0.88000000000E+00 0. -1.
        -11    1    4    4    0    0  0.56435799671E-03 -0.19615033583E-01 -0.14990168920E-01  0.24698873004E-01  0.51100000000E-03 0.  1.
         11    1    4    4    0    0 -0.50980227442E-02 -0.51445196208E-01 -0.91882704807E-01  0.10542907859E+00  0.51100000000E-03 0. -1.
</event>
<event>
 7    1  0.1150307E+005  0.1043930E+01  0.7957747E-01            NaN
         13   -1    0    0    0    0  0.00000000000E+00  0.00000000000E+00  0.74505805969E-08  0.10566000000E+00  0.10566000000E+00 0. -1.
     999900   -1    0    0    0    0 -0.00000000000E+00 -0.00000000000E+00 -0.74505805969E-08  0.93827000000E+00  0.93827000000E+00 0. -1.
     999903    2    1    2    0    0 -0.53237456616E-01  0.96236834943E-01 -0.68734982217E-02  0.11167106496E+00  0.18094932590E-01 0.  0.
         14    1    1    2    0    0  0.10555146403E-01  0.17931161513E-02 -0.43070911211E-01  0.44381637799E-01  0.00000000000E+00 0.  1.
     999901    1    1    2    0    0  0.42682310213E-01 -0.98029951095E-01  0.49944409433E-01  0.88787729724E+00  0.88000000000E+00 0.  1.
        -11    1    3    3    0    0 -0.47492101007E-01  0.78757935769E-01  0.14969445339E-03  0.91970623756E-01  0.51100000000E-03 0.  1.
         11    1    3    3    0    0 -0.57453556096E-02  0.17478899174E-01 -0.70231926750E-02  0.19700441208E-01  0.51100000000E-03 0. -1.
</event>
<event>
 8    1  0.1150307E+005  0.1043930E+01  0.7957747E-01            NaN
         13   -1    0    0    0    0  0.00000000000E+00  0.00000000000E+00  0.74505805969E-08  0.10566000000E+00  0.10566000000E+00 0.  1.
     999900   -1    0    0    0    0 -0.00000000000E+00 -0.00000000000E+00 -0.74505805969E-08  0.93827000000E+00  0.93827000000E+00 0.  1.
     999902    2    1    2    0    0  0.18389115635E-01  0.91493305618E-02  0.10641085559E-01  0.10207977168E+01  0.10205355830E+01 0.  0.
     999903    2    3    3    0    0  0.91957514767E-01 -0.38190205451E-01 -0.84443272860E-01  0.13136285341E+00  0.14520902529E-01 0.  0.
         14    1    1    2    0    0 -0.18389115635E-01 -0.91493305618E-02 -0.10641085559E-01  0.23132283187E-01  0.00000000000E+00 0. -1.
     999901    1    3    3    0    0 -0.73568399132E-01  0.47339536013E-01  0.95084358418E-01  0.88943486340E+00  0.88000000000E+00 0.  1.
        -11    1    4    4    0    0  0.63494481504E-01 -0.19608398545E-01 -0.59483171113E-01  0.89188268520E-01  0.51100000000E-03 0.  1.
         11    1    4    4    0    0  0.28463033263E-01 -0.18581806906E-01 -0.24960101747E-01  0.42174584890E-01  0.51100000000E-03 0. -1.
</event>
<event>
 8    1  0.1150307E+005  0.1043930E+01  0.7957747E-01            NaN
         13   -1    0    0    0    0  0.00000000000E+00  0.00000000000E+00  0.74505805969E-08  0.10566000000E+00  0.10566000000E+00 0. -1.
     999900   -1    0    0    0    0 -0.00000000000E+00 -0.00000000000E+00 -0.74505805969E-08  0.93827000000E+00  0.93827000000E+00 0. -1.
     999902    2    1    2    0    0 -0.60030238495E-02 -0.99113033440E-02 -0.20650490770E-01  0.10202506208E+01  0.10199757920E+01 0.  0.
     999903    2    3    3    0    0  0.86688549092E-01  0.21714974573E-01  0.88890701561E-01  0.12806721929E+00  0.22654164474E-01 0.  0.
         14    1    1    2    0    0  0.60030238495E-02  0.99113033440E-02  0.20650490770E-01  0.23679379180E-01  0.00000000000E+00 0. -1.
     999901    1    3    3    0    0 -0.92691572942E-01 -0.31626277917E-01 -0.10954119233E+00  0.89218340153E+00  0.88000000000E+00 0. -1.
        -11    1    4    4    0    0  0.62053989750E-01  0.22742522734E-01  0.74177835788E-01  0.99350553231E-01  0.51100000000E-03 0. -1.
         11    1    4    4    0    0  0.24634559342E-01 -0.10275481614E-02  0.14712865773E-01  0.28716666058E-01  0.51100000000E-03 0.  1.
</event>
<event>
 8    1  0.1150307E+005  0.1043930E+01  0.7957747E-01            NaN
         13   -1    0    0    0    0  0.00000000000E+00  0.00000000000E+00  0.74505805969E-08  0.10566000000E+00  0.10566000000E+00 0. -1.
     999900   -1    0    0    0    0 -0.00000000000E+00 -0.00000000000E+00 -0.74505805969E-08  0.93827000000E+00  0.93827000000E+00 0.  1.
     999902    2    1    2    0    0 -0.10179978077E-01  0.18673724977E-01 -0.91662897452E-02  0.10207705349E+01  0.10205077775E+01 0.  0.
     999903    2    3    3    0    0  0.98379272966E-01 -0.17407557932E-01 -0.81503491944E-01  0.13042249011E+00  0.19639305081E-01 0.  0.
         14    1    1    2    0    0  0.10179978077E-01 -0.18673724977E-01  0.91662897452E-02  0.23159465146E-01  0.00000000000E+00 0. -1.
     999901    1    3    3    0    0 -0.10855925104E+00  0.36081282909E-01  0.72337202199E-01  0.89034804475E+00  0.88000000000E+00 0. -1.
        -11    1    4    4    0    0  0.42210902580E-01 -0.16833670583E-01 -0.40521760053E-01  0.60888479376E-01  0.51100000000E-03 0. -1.
         11    1    4    4    0    0  0.56168370387E-01 -0.57388734941E-03 -0.40981731891E-01  0.69534010731E-01  0.51100000000E-03 0.  1.
</event>
<event>
 8    1  0.1150307E+005  0.1043930E+01  0.7957747E-01            NaN
         13   -1    0    0    0    0  0.00000000000E+00  0.00000000000E+00  0.74505805969E-08  0.10566000000E+00  0.10566000000E+00 0.  1.
     999900   -1    0    0    0    0 -0.00000000000E+00 -0.00000000000E+00 -0.74505805969E-08  0.93827000000E+00  0.93827000000E+00 0. -1.
     999902    2    1    2    0    0 -0.21359492659E-01 -0.88641538610E-02 -0.53185272373E-02  0.10202005271E+01  0.10199245206E+01 0.  0.
     999903    2    3    3    0    0 -0.98373092119E-01 -0.83801599385E-01 -0.25209894119E-01  0.13344104356E+00  0.21702535150E-01 0.  0.
         14    1    1    2    0    0  0.21359492659E-01  0.88641538610E-02  0.53185272373E-02  0.23729472861E-01  0.00000000000E+00 0.  1.
     999901    1    3    3    0    0  0.77013599460E-01  0.74937445524E-01  0.19891366882E-01  0.88675948358E+00  0.88000000000E+00 0.  1.
        -11    1    4    4    0    0 -0.27428954911E-01 -0.29138176317E-01  0.12873770889E-02  0.40041220603E-01  0.51100000000E-03 0. -1.
         11    1    4    4    0    0 -0.70944137208E-01 -0.54663423068E-01 -0.26497271208E-01  0.93399822956E-01  0.51100000000E-03 0.  1.
</event>
<event>
 8    1  0.1150307E+005  0.1043930E+01  0.7957747E-01            NaN
         13   -1    0    0    0    0  0.00000000000E+00  0.00000000000E+00  0.74505805969E-08  0.10566000000E+00  0.10566000000E+00 0.  1.
     999900   -1    0    0    0    0 -0.00000000000E+00 -0.00000000000E+00 -0.74505805969E-08  0.93827000000E+00  0.93827000000E+00 0. -1.
     999902    2    1    2    0    0  0.64333329404E-02 -0.13900703494E-01  0.15765648284E-01  0.10219488036E+01  0.10217123784E+01 0.  0.
     999903    2    3    3    0    0  0.56151980879E-02 -0.73505907454E-01  0.11101376637E+00  0.13480414024E+00  0.20333495097E-01 0.  0.
         14    1    1    2    0    0 -0.64333329404E-02  0.13900703494E-01 -0.15765648284E-01  0.21981196423E-01  0.00000000000E+00 0. -1.
     999901    1    3    3    0    0  0.81813485253E-03  0.59605203960E-01 -0.95248118086E-01  0.88714466333E+00  0.88000000000E+00 0. -1.
        -11    1    4    4    0    0  0.10777421433E-01 -0.59571057549E-01  0.79210979389E-01  0.99697061577E-01  0.51100000000E-03 0. -1.
         11    1    4    4    0    0 -0.51622233454E-02 -0.13934849905E-01  0.31802786981E-01  0.35107078666E-01  0.51100000000E-03 0.  1.
</event>
<event>
 8    1  0.1150307E+005  0.1043930E+01  0.7957747E-01            NaN
         13   -1    0    0    0    0  0.00000000000E+00  0.00000000000E+00  0.74505805969E-08  0.10566000000E+00  0.10566000000E+00 0. -1.
     999900   -1    0    0    0    0 -0.00000000000E+00 -0.00000000000E+00 -0.74505805969E-08  0.93827000000E+00  0.93827000000E+00 0. -1.
     999902    2    1    2    0    0  0.22831592298E-01  0.53317560018E-02 -0.50519238291E-03  0.10204786792E+01  0.10202091796E+01 0.  0.
     999903    2    3    3    0    0  0.45282361224E-01  0.47790073048E-02 -0.12215758067E+00  0.13182596516E+00  0.19551967332E-01 0.  0.
         14    1    1    2    0    0 -0.22831592298E-01 -0.53317560018E-02  0.50519238291E-03  0.23451320821E-01  0.00000000000E+00 0. -1.
     999901    1    3    3    0    0 -0.22450768926E-01  0.55274869696E-03  0.12165238829E+00  0.88865271402E+00  0.88000000000E+00 0.  1.
        -11    1    4    4    0    0  0.41361849961E-01  0.94729191086E-02 -0.11381836803E+00  0.12147189326E+00  0.51100000000E-03 0. -1.
         11    1    4    4    0    0  0.39205112624E-02 -0.46939118038E-02 -0.83392126352E-02  0.10354071902E-01  0.51100000000E-03 0.  1.
</event>
<event>
 8    1  0.1150307E+005  0.1043930E+01  0.7957747E-01            NaN
         13   -1    0    0    0    0  0.00000000000E+00  0.00000000000E+00  0.74505805969E-08  0.10566000000E+00  0.10566000000E+00 0.  1.
     999900   -1    0    0    0    0 -0.00000000000E+00 -0.00000000000E+00 -0.74505805969E-08  0.93827000000E+00  0.93827000000E+00 0.  1.
     999902    2    1    2    0    0  0.98464658336E-02  0.13290348102E-01 -0.16904506162E-01  0.10202794488E+01  0.10200052966E+01 0.  0.
     999903    2    3    3    0    0 -0.34496784358E-01  0.11155889706E+00  0.55282263280E-01  0.13076612052E+00  0.20204801417E-01 0.  0.
         14    1    1    2    0    0 -0.98464658336E-02 -0.13290348102E-01  0.16904506162E-01  0.23650551170E-01  0.00000000000E+00 0.  1.
     999901    1    3    3    0    0  0.44343250192E-01 -0.98268548954E-01 -0.72186769441E-01  0.88951332831E+00  0.88000000000E+00 0.  1.
        -11    1    4    4    0    0 -0.34339885982E-01  0.81689894308E-01  0.42288195692E-01  0.98188691901E-01  0.51100000000E-03 0. -1.
         11    1    4    4    0    0 -0.15689837625E-03  0.29869002747E-01  0.12994067587E-01  0.32577428623E-01  0.51100000000E-03 0.  1.
</event>
<event>
 8    1  0.1150307E+005  0.1043930E+01  0.7957747E-01            NaN
         13   -1    0    0    0    0  0.00000000000E+00  0.00000000000E+00  0.74505805969E-08  0.10566000000E+00  0.10566000000E+00 0. -1.
     999900   -1    0    0    0    0 -0.00000000000E+00 -0.00000000000E+00 -0.74505805969E-08  0.93827000000E+00  0.93827000000E+00 0.  1.
     999902    2    1    2    0    0 -0.15027219331E-01 -0.79346997992E-02 -0.17017550163E-01  0.10198805968E+01  0.10195970076E+01 0.  0.
     999903    2    3    3    0    0 -0.11014617981E+00 -0.59799993770E-01 -0.39669211960E-01  0.13294727170E+00  0.19827014179E-01 0.  0.
         14    1    1    2    0    0  0.15027219331E-01  0.79346997992E-02  0.17017550163E-01  0.24049403221E-01  0.00000000000E+00 0. -1.
     999901    1    3    3    0    0  0.95118960483E-01  0.51865293970E-01  0.22651661798E-01  0.88693332508E+00  0.88000000000E+00 0. -1.
        -11    1    4    4    0    0 -0.12363878773E-02 -0.27489033050E-02 -0.37916550516E-02  0.48706152993E-02  0.51100000000E-03 0. -1.
         11    1    4    4    0    0 -0.10890979194E+00 -0.57051090465E-01 -0.35877556909E-01  0.12807665640E+00  0.51100000000E-03 0.  1.
</event>
<event>
 8    1  0.1150307E+005  0.1043930E+01  0.7957747E-01            NaN
         13   -1    0    0    0    0  0.00000000000E+00  0.00000000000E+00  0.74505805969E-08  0.10566000000E+00  0.10566000000E+00 0. -1.
     999900   -1    0    0    0    0 -0.00000000000E+00 -0.00000000000E+00 -0.74505805969E-08  0.93827000000E+00  0.93827000000E+00 0. -1.
     999902    2    1    2    0    0 -0.76302785030E-02 -0.21727858559E-01  0.25400075582E-02  0.10207616460E+01  0.10204986846E+01 0.  0.
     999903    2    3    3    0    0  0.12340201982E+00  0.94986847608E-02 -0.33538777145E-01  0.12978115302E+00  0.20000364946E-01 0.  0.
         14    1    1    2    0    0  0.76302785030E-02  0.21727858559E-01 -0.25400075582E-02  0.23168353977E-01  0.00000000000E+00 0. -1.
     999901    1    3    3    0    0 -0.13103229832E+00 -0.31226543320E-01  0.36078784703E-01  0.89098049301E+00  0.88000000000E+00 0. -1.
        -11    1    4    4    0    0  0.15652323046E-01  0.48366292027E-02  0.13003479384E-02  0.16442026169E-01  0.51100000000E-03 0. -1.
         11    1    4    4    0    0  0.10774969677E+00  0.46620555581E-02 -0.34839125083E-01  0.11333912685E+00  0.51100000000E-03 0.  1.
</event>
<event>
 8    1  0.1150307E+005  0.1043930E+01  0.7957747E-01            NaN
         13   -1    0    0    0    0  0.00000000000E+00  0.00000000000E+00  0.74505805969E-08  0.10566000000E+00  0.10566000000E+00 0. -1.
     999900   -1    0    0    0    0 -0.00000000000E+00 -0.00000000000E+00 -0.74505805969E-08  0.93827000000E+00  0.93827000000E+00 0. -1.
     999902    2    1    2    0    0 -0.17563960028E-01  0.73945875387E-02  0.16352802127E-01  0.10188185135E+01  0.10185089969E+01 0.  0.
     999903    2    3    3    0    0  0.59086309870E-01  0.83923156993E-01  0.78078499305E-01  0.13003172945E+00  0.16664642684E-01 0.  0.
         14    1    1    2    0    0  0.17563960028E-01 -0.73945875387E-02 -0.16352802127E-01  0.25111486497E-01  0.00000000000E+00 0.  1.
     999901    1    3    3    0    0 -0.76650269898E-01 -0.76528569454E-01 -0.61725697179E-01  0.88878678405E+00  0.88000000000E+00 0. -1.
        -11    1    4    4    0    0  0.31514560244E-01  0.31870930790E-01  0.38238146944E-01  0.58918084995E-01  0.51100000000E-03 0. -1.
         11    1    4    4    0    0  0.27571749626E-01  0.52052226202E-01  0.39840352361E-01  0.71113644453E-01  0.51100000000E-03 0.  1.
</event>
<event>
 8    1  0.1150307E+005  0.1043930E+01  0.7957747E-01            NaN
         13   -1    0    0    0    0  0.00000000000E+00  0.00000000000E+00  0.74505805969E-08  0.10566000000E+00  0.10566000000E+00 0. -1.
     999900   -1    0    0    0    0 -0.00000000000E+00 -0.00000000000E+00 -0.74505805969E-08  0.93827000000E+00  0.93827000000E+00 0. -1.
     999902    2    1    2    0    0 -0.87961894918E-02 -0.20567155084E-01  0.66980636547E-02  0.10205795209E+01  0.10203123608E+01 0.  0.
     999903    2    3    3    0    0  0.84911634440E-01  0.25671302426E-01  0.93194749942E-01  0.13018588437E+00  0.19851993381E-01 0.  0.
         14    1    1    2    0    0  0.87961894918E-02  0.20567155084E-01 -0.66980636547E-02  0.23350479108E-01  0.00000000000E+00 0.  1.
     999901    1    3    3    0    0 -0.93707823932E-01 -0.46238457511E-01 -0.86496686287E-01  0.89039363652E+00  0.88000000000E+00 0. -1.
        -11    1    4    4    0    0  0.98131205160E-02  0.41091748243E-02  0.22165456920E-01  0.24591690740E-01  0.51100000000E-03 0.  1.
         11    1    4    4    0    0  0.75098513924E-01  0.21562127602E-01  0.71029293022E-01  0.10559419363E+00  0.51100000000E-03 0. -1.
</event>
<event>
 8    1  0.1150307E+005  0.1043930E+01  0.7957747E-01            NaN
         13   -1    0    0    0    0  0.00000000000E+00  0.00000000000E+00  0.74505805969E-08  0.10566000000E+00  0.10566000000E+00 0.  1.
     999900   -1    0    0    0    0 -0.00000000000E+00 -0.00000000000E+00 -0.74505805969E-08  0.93827000000E+00  0.93827000000E+00 0.  1.
     999902    2    1    2    0    0  0.36119116127E-02  0.43670579147E-02  0.20950037621E-01  0.10222269777E+01  0.10219965620E+01 0.  0.
     999903    2    3    3    0    0  0.11802533729E+00 -0.40649606183E-01 -0.37350550503E-01  0.13176873018E+00  0.19635781216E-01 0.  0.
         14    1    1    2    0    0 -0.36119116127E-02 -0.43670579147E-02 -0.20950037621E-01  0.21703022293E-01  0.00000000000E+00 0. -1.
     999901    1    3    3    0    0 -0.11441342568E+00  0.45016664097E-01  0.58300588125E-01  0.89045824753E+00  0.88000000000E+00 0. -1.
        -11    1    4    4    0    0  0.38607823300E-01 -0.53389470861E-02 -0.63612660040E-02  0.39494242645E-01  0.51100000000E-03 0.  1.
         11    1    4    4    0    0  0.79417513990E-01 -0.35310659096E-01 -0.30989284499E-01  0.92274487530E-01  0.51100000000E-03 0. -1.
</event>
<event>
 8    1  0.1150307E+005  0.1043930E+01  0.7957747E-01            NaN
         13   -1    0    0    0    0  0.00000000000E+00  0.00000000000E+00  0.74505805969E-08  0.10566000000E+00  0.10566000000E+00 0. -1.
     999900   -1    0    0    0    0 -0.00000000000E+00 -0.00000000000E+00 -0.74505805969E-08  0.93827000000E+00  0.93827000000E+00 0. -1.
     999902    2    1    2    0    0 -0.48836125618E-02 -0.13606622931E-03 -0.24183457462E-01  0.10192579956E+01  0.10189593485E+01 0.  0.
     999903    2    3    3    0    0  0.21252275942E-01  0.17451251732E-02 -0.12936600022E+00  0.13260699840E+00  0.19858230490E-01 0.  0.
         14    1    1    2    0    0  0.48836125618E-02  0.13606622931E-03  0.24183457462E-01  0.24672004387E-01  0.00000000000E+00 0. -1.
     999901    1    3    3    0    0 -0.26135888504E-01 -0.18811914025E-02  0.10518254276E+00  0.88665099721E+00  0.88000000000E+00 0.  1.
        -11    1    4    4    0    0  0.10598861302E-01  0.22754976460E-03 -0.19391439822E-01  0.22106033094E-01  0.51100000000E-03 0. -1.
         11    1    4    4    0    0  0.10653414640E-01  0.15175754086E-02 -0.10997456040E+00  0.11050096531E+00  0.51100000000E-03 0.  1.
</event>
<event>
 8    1  0.1150307E+005  0.1043930E+01  0.7957747E-01            NaN
         13   -1    0    0    0    0  0.00000000000E+00  0.00000000000E+00  0.74505805969E-08  0.10566000000E+00  0.10566000000E+00 0.  1.
     999900   -1    0    0    0    0 -0.00000000000E+00 -0.00000000000E+00 -0.74505805969E-08  0.93827000000E+00  0.93827000000E+00 0.  1.
     999902    2    1    2    0    0 -0.10685118964E-01  0.22779568926E-02  0.21730763567E-01  0.10196074397E+01  0.10193172932E+01 0.  0.
     999903    2    3    3    0    0 -0.73542380436E-01 -0.26548761343E-01  0.10555844596E+00  0.13292311292E+00  0.20313788072E-01 0.  0.
         14    1    1    2    0    0  0.10685118964E-01 -0.22779568926E-02 -0.21730763567E-01  0.24322560311E-01  0.00000000000E+00 0. -1.
     999901    1    3    3    0    0  0.62857261472E-01  0.28826718236E-01 -0.83827682391E-01  0.88668432677E+00  0.88000000000E+00 0.  1.
        -11    1    4    4    0    0 -0.45604906471E-01 -0.13681480152E-01  0.47719151676E-01  0.67411934783E-01  0.51100000000E-03 0.  1.
         11    1    4    4    0    0 -0.27937473965E-01 -0.12867281191E-01  0.57839294282E-01  0.65511178136E-01  0.51100000000E-03 0. -1.
</event>
<event>
 8    1  0.1150307E+005  0.1043930E+01  0.7957747E-01            NaN
         13   -1    0    0    0    0  0.00000000000E+00  0.00000000000E+00  0.74505805969E-08  0.10566000000E+00  0.10566000000E+00 0. -1.
     999900   -1    0    0    0    0 -0.00000000000E+00 -0.00000000000E+00 -0.74505805969E-08  0.93827000000E+00  0.93827000000E+00 0. -1.
     999902    2    1    2    0    0 -0.11378813959E-01  0.50827253442E-02 -0.18116064448E-01  0.10219412916E+01  0.10217047031E+01 0.  0.
     999903    2    3    3    0    0  0.63363325212E-01  0.70402293290E-01  0.86616526984E-01  0.13018911249E+00  0.21803402975E-01 0.  0.
         14    1    1    2    0    0  0.11378813959E-01 -0.50827253442E-02  0.18116064448E-01  0.21988708355E-01  0.00000000000E+00 0. -1.
     999901    1    3    3    0    0 -0.74742139170E-01 -0.65319567946E-01 -0.10473259143E+00  0.89175217916E+00  0.88000000000E+00 0. -1.
        -11    1    4    4    0    0  0.39661300625E-01  0.57942123069E-01  0.58946003977E-01  0.91679882738E-01  0.51100000000E-03 0. -1.
         11    1    4    4    0    0  0.23702024587E-01  0.12460170220E-01  0.27670523007E-01  0.38509229750E-01  0.51100000000E-03 0.  1.
</event>
<event>
 8    1  0.1150307E+005  0.1043930E+01  0.7957747E-01            NaN
         13   -1    0    0    0    0  0.00000000000E+00  0.00000000000E+00  0.74505805969E-08  0.10566000000E+00  0.10566000000E+00 0. -1.
     999900   -1    0    0    0    0 -0.00000000000E+00 -0.00000000000E+00 -0.74505805969E-08  0.93827000000E+00  0.93827000000E+00 0.  1.
     999902    2    1    2    0    0  0.24063495374E-01  0.12593882605E-01 -0.87502559509E-02  0.10153953777E+01  0.10149943588E+01 0.  0.
     999903    2    3    3    0    0 -0.80889032777E-01 -0.25014402877E-01  0.87065082365E-01  0.12320145523E+00  0.20724720211E-01 0.  0.
         14    1    1    2    0    0 -0.24063495374E-01 -0.12593882605E-01  0.87502559509E-02  0.28534622266E-01  0.00000000000E+00 0.  1.
     999901    1    3    3    0    0  0.10495252815E+00  0.37608285482E-01 -0.95815338316E-01  0.89219392251E+00  0.88000000000E+00 0.  1.
        -11    1    4    4    0    0 -0.58660588321E-01 -0.18117837228E-01  0.75175910362E-01  0.97061832188E-01  0.51100000000E-03 0. -1.
         11    1    4    4    0    0 -0.22228444455E-01 -0.68965656492E-02  0.11889172004E-01  0.26139623038E-01  0.51100000000E-03 0.  1.
</event>
<event>
 8    1  0.1150307E+005  0.1043930E+01  0.7957747E-01            NaN
         13   -1    0    0    0    0  0.00000000000E+00  0.00000000000E+00  0.74505805969E-08  0.10566000000E+00  0.10566000000E+00 0.  1.
     999900   -1    0    0    0    0 -0.00000000000E+00 -0.00000000000E+00 -0.74505805969E-08  0.93827000000E+00  0.93827000000E+00 0.  1.
     999902    2    1    2    0    0  0.30897435874E-02  0.26095085517E-01  0.65746784790E-02  0.10168426155E+01  0.10164817648E+01 0.  0.
     999903    2    3    3    0    0  0.27817833881E-01 -0.99903686349E-01  0.67802014312E-01  0.12541905979E+00  0.19448624294E-01 0.  0.
         14    1    1    2    0    0 -0.30897435874E-02 -0.26095085517E-01 -0.65746784790E-02  0.27087384530E-01  0.00000000000E+00 0.  1.
     999901    1    3    3    0    0 -0.24728090294E-01  0.12599877187E+00 -0.61227335833E-01  0.89142355568E+00  0.88000000000E+00 0. -1.
        -11    1    4    4    0    0  0.11098765834E-01 -0.53937862104E-01  0.46463093357E-01  0.72052451288E-01  0.51100000000E-03 0.  1.
         11    1    4    4    0    0  0.16719068047E-01 -0.45965824245E-01  0.21338920956E-01  0.53366608506E-01  0.51100000000E-03 0. -1.
</event>
<event>
 8    1  0.1150307E+005  0.1043930E+01  0.7957747E-01            NaN
         13   -1    0    0    0    0  0.00000000000E+00  0.00000000000E+00  0.74505805969E-08  0.10566000000E+00  0.10566000000E+00 0. -1.
     999900   -1    0    0    0    0 -0.00000000000E+00 -0.00000000000E+00 -0.74505805969E-08  0.93827000000E+00  0.93827000000E+00 0. -1.
     999902    2    1    2    0    0  0.64615522505E-02  0.19602544653E-01 -0.11582453282E-01  0.10202622025E+01  0.10199876456E+01 0.  0.
     999903    2    3    3    0    0 -0.30675745384E-01 -0.45586606039E-01  0.11406608035E+00  0.12817680399E+00  0.19977046557E-01 0.  0.
         14    1    1    2    0    0 -0.64615522505E-02 -0.19602544653E-01  0.11582453282E-01  0.23667797497E-01  0.00000000000E+00 0.  1.
     999901    1    3    3    0    0  0.37137297634E-01  0.65189150692E-01 -0.12564853363E+00  0.89208539852E+00  0.88000000000E+00 0. -1.
        -11    1    4    4    0    0 -0.12999308633E-02 -0.13826019403E-01  0.40657380024E-01  0.42966641761E-01  0.51100000000E-03 0.  1.
         11    1    4    4    0    0 -0.29375814521E-01 -0.31760586636E-01  0.73408700324E-01  0.85210162225E-01  0.51100000000E-03 0. -1.
</event>
<event>
 8    1  0.1150307E+005  0.1043930E+01  0.7957747E-01            NaN
         13   -1    0    0    0    0  0.00000000000E+00  0.00000000000E+00  0.74505805969E-08  0.10566000000E+00  0.10566000000E+00 0.  1.
     999900   -1    0    0    0    0 -0.00000000000E+00 -0.00000000000E+00 -0.74505805969E-08  0.93827000000E+00  0.93827000000E+00 0.  1.
     999902    2    1    2    0    0 -0.10034394938E-01  0.21501392256E-02 -0.20014248923E-01  0.10214381717E+01  0.10211905093E+01 0.  0.
     999903    2    3    3    0    0 -0.78904713612E-01  0.10366134829E+00 -0.16774740914E-01  0.13292360188E+00  0.20387816073E-01 0.  0.
         14    1    1    2    0    0  0.10034394938E-01 -0.21501392256E-02  0.20014248923E-01  0.22491828303E-01  0.00000000000E+00 0.  1.
     999901    1    3    3    0    0  0.68870318675E-01 -0.10151120907E+00 -0.32395080094E-02  0.88851456981E+00  0.88000000000E+00 0. -1.
        -11    1    4    4    0    0 -0.36344345917E-01  0.38067025796E-01  0.13741282654E-02  0.52651298964E-01  0.51100000000E-03 0.  1.
         11    1    4    4    0    0 -0.42560367695E-01  0.65594322498E-01 -0.18148869179E-01  0.80272302918E-01  0.51100000000E-03 0. -1.
</event>
<event>
 8    1  0.1150307E+005  0.1043930E+01  0.7957747E-01            NaN
         13   -1    0    0    0    0  0.00000000000E+00  0.00000000000E+00  0.74505805969E-08  0.10566000000E+00  0.10566000000E+00 0.  1.
     999900   -1    0    0    0    0 -0.00000000000E+00 -0.00000000000E+00 -0.74505805969E-08  0.93827000000E+00  0.93827000000E+00 0.  1.
     999902    2    1    2    0    0  0.16040116779E-01  0.13524362503E-01 -0.84387709571E-02  0.10213156996E+01  0.10210653024E+01 0.  0.
     999903    2    3    3    0    0 -0.98173381701E-01  0.79850217687E-01 -0.26498313995E-01  0.13127638058E+00  0.22743291642E-01 0.  0.
         14    1    1    2    0    0 -0.16040116779E-01 -0.13524362503E-01  0.84387709571E-02  0.22614300402E-01  0.00000000000E+00 0. -1.
     999901    1    3    3    0    0  0.11421349848E+00 -0.66325855185E-01  0.18059543038E-01  0.89003931902E+00  0.88000000000E+00 0.  1.
        -11    1    4    4    0    0 -0.45275015519E-01  0.49441922924E-01 -0.80062021958E-02  0.67518080299E-01  0.51100000000E-03 0.  1.
         11    1    4    4    0    0 -0.52898366182E-01  0.30408294763E-01 -0.18492111799E-01  0.63758300283E-01  0.51100000000E-03 0. -1.
</event>
<event>
 8    1  0.1150307E+005  0.1043930E+01  0.7957747E-01            NaN
         13   -1    0    0    0    0  0.00000000000E+00  0.00000000000E+00  0.74505805969E-08  0.10566000000E+00  0.10566000000E+00 0. -1.
     999900   -1    0    0    0    0 -0.00000000000E+00 -0.00000000000E+00 -0.74505805969E-08  0.93827000000E+00  0.93827000000E+00 0.  1.
     999902    2    1    2    0    0 -0.19310157661E-01 -0.11548602530E-01 -0.27026110299E-02  0.10212682146E+01  0.10210167529E+01 0.  0.
     999903    2    3    3    0    0  0.59007088436E-01  0.20455614619E-01 -0.11271561400E+00  0.13039183614E+00  0.19923670291E-01 0.  0.
         14    1    1    2    0    0  0.19310157661E-01  0.11548602530E-01  0.27026110299E-02  0.22661785359E-01  0.00000000000E+00 0. -1.
     999901    1    3    3    0    0 -0.78317246097E-01 -0.32004217150E-01  0.11001300297E+00  0.89087637850E+00  0.88000000000E+00 0. -1.
        -11    1    4    4    0    0  0.21659196971E-01  0.16919374891E-01 -0.39510768031E-01  0.48132608194E-01  0.51100000000E-03 0. -1.
         11    1    4    4    0    0  0.37347891464E-01  0.35362397286E-02 -0.73204845965E-01  0.82259227945E-01  0.51100000000E-03 0.  1.
</event>
<event>
 8    1  0.1150307E+005  0.1043930E+01  0.7957747E-01            NaN
         13   -1    0    0    0    0  0.00000000000E+00  0.00000000000E+00  0.74505805969E-08  0.10566000000E+00  0.10566000000E+00 0.  1.
     999900   -1    0    0    0    0 -0.00000000000E+00 -0.00000000000E+00 -0.74505805969E-08  0.93827000000E+00  0.93827000000E+00 0.  1.
     999902    2    1    2    0    0  0.13210201148E-01 -0.80813546249E-02 -0.15098207614E-01  0.10223019261E+01  0.10220731160E+01 0.  0.
     999903    2    3    3    0    0 -0.93413053814E-01  0.47481220707E-01 -0.77080030909E-01  0.13196633506E+00  0.22210751480E-01 0.  0.
         14    1    1    2    0    0 -0.13210201148E-01  0.80813546249E-02  0.15098207614E-01  0.21628073888E-01  0.00000000000E+00 0. -1.
     999901    1    3    3    0    0  0.10662325496E+00 -0.55562575332E-01  0.61981823295E-01  0.89033559105E+00  0.88000000000E+00 0. -1.
        -11    1    4    4    0    0 -0.33204914170E-01  0.98561563810E-02 -0.15371660228E-01  0.37898010539E-01  0.51100000000E-03 0.  1.
         11    1    4    4    0    0 -0.60208139644E-01  0.37625064326E-01 -0.61708370681E-01  0.94068324520E-01  0.51100000000E-03 0. -1.
</event>
<event>
 8    1  0.1150307E+005  0.1043930E+01  0.7957747E-01            NaN
         13   -1    0    0    0    0  0.00000000000E+00  0.00000000000E+00  0.74505805969E-08  0.10566000000E+00  0.10566000000E+00 0.  1.
     999900   -1    0    0    0    0 -0.00000000000E+00 -0.00000000000E+00 -0.74505805969E-08  0.93827000000E+00  0.93827000000E+00 0. -1.
     999902    2    1    2    0    0  0.15302291789E-01  0.17080146966E-01 -0.21532105632E-02  0.10208968094E+01  0.10206369421E+01 0.  0.
     999903    2    3    3    0    0  0.63119555702E-01  0.54694364379E-02  0.11381919249E+00  0.13192498891E+00  0.20866266376E-01 0.  0.
         14    1    1    2    0    0 -0.15302291789E-01 -0.17080146966E-01  0.21532105632E-02  0.23033190619E-01  0.00000000000E+00 0. -1.
     999901    1    3    3    0    0 -0.47817263913E-01  0.11610710528E-01 -0.11597240305E+00  0.88897182047E+00  0.88000000000E+00 0. -1.
        -11    1    4    4    0    0  0.39448987087E-01  0.13356174930E-01  0.74574743729E-01  0.85418168525E-01  0.51100000000E-03 0. -1.
         11    1    4    4    0    0  0.23670568615E-01 -0.78867384923E-02  0.39244448759E-01  0.46506820382E-01  0.51100000000E-03 0.  1.
</event>
<event>
 8    1  0.1150307E+005  0.1043930E+01  0.7957747E-01            NaN
         13   -1    0    0    0    0  0.00000000000E+00  0.00000000000E+00  0.74505805969E-08  0.10566000000E+00  0.10566000000E+00 0. -1.
     999900   -1    0    0    0    0 -0.00000000000E+00 -0.00000000000E+00 -0.74505805969E-08  0.93827000000E+00  0.93827000000E+00 0.  1.
     999902    2    1    2    0    0  0.77880221314E-02  0.12720392901E-01  0.13568214272E-01  0.10237667135E+01  0.10235681343E+01 0.  0.
     999903    2    3    3    0    0 -0.18647714717E-01 -0.12018643451E+00  0.48841352706E-01  0.13269585927E+00  0.20741191556E-01 0.  0.
         14    1    1    2    0    0 -0.77880221314E-02 -0.12720392901E-01 -0.13568214272E-01  0.20163286508E-01  0.00000000000E+00 0.  1.
     999901    1    3    3    0    0  0.26435736848E-01  0.13290682741E+00 -0.35273138434E-01  0.89107085423E+00  0.88000000000E+00 0. -1.
        -11    1    4    4    0    0 -0.84611684423E-02 -0.10332058780E+00  0.41356802488E-01  0.11161264027E+00  0.51100000000E-03 0. -1.
         11    1    4    4    0    0 -0.10186546274E-01 -0.16865846716E-01  0.74845502179E-02  0.21083219000E-01  0.51100000000E-03 0.  1.
</event>
<event>
 8    1  0.1150307E+005  0.1043930E+01  0.7957747E-01            NaN
         13   -1    0    0    0    0  0.00000000000E+00  0.00000000000E+00  0.74505805969E-08  0.10566000000E+00  0.10566000000E+00 0. -1.
     999900   -1    0    0    0    0 -0.00000000000E+00 -0.00000000000E+00 -0.74505805969E-08  0.93827000000E+00  0.93827000000E+00 0. -1.
     999902    2    1    2    0    0 -0.94069089914E-02 -0.20895353597E-01  0.55901050600E-02  0.10203428210E+01  0.10200701532E+01 0.  0.
     999903    2    3    3    0    0 -0.10413335691E+00  0.28440511872E-01  0.72173031291E-01  0.13138814632E+00  0.20031969743E-01 0.  0.
         14    1    1    2    0    0  0.94069089914E-02  0.20895353597E-01 -0.55901050600E-02  0.23587179002E-01  0.00000000000E+00 0. -1.
     999901    1    3    3    0    0  0.94726447920E-01 -0.49335865469E-01 -0.66582926231E-01  0.88895467467E+00  0.88000000000E+00 0. -1.
        -11    1    4    4    0    0 -0.44560024959E-01  0.31472143419E-02  0.34986576516E-01  0.56743479270E-01  0.51100000000E-03 0. -1.
         11    1    4    4    0    0 -0.59573331953E-01  0.25293297530E-01  0.37186454775E-01  0.74644667054E-01  0.51100000000E-03 0.  1.
</event>
<event>
 8    1  0.1150307E+005  0.1043930E+01  0.7957747E-01            NaN
         13   -1    0    0    0    0  0.00000000000E+00  0.00000000000E+00  0.74505805969E-08  0.10566000000E+00  0.10566000000E+00 0.  1.
     999900   -1    0    0    0    0 -0.00000000000E+00 -0.00000000000E+00 -0.74505805969E-08  0.93827000000E+00  0.93827000000E+00 0.  1.
     999902    2    1    2    0    0 -0.21661157517E-01  0.24108024391E-02  0.68710009219E-02  0.10210776836E+01  0.10208219274E+01 0.  0.
     999903    2    3    3    0    0  0.72849578778E-01  0.81458662807E-01 -0.66542085241E-01  0.12946659977E+00  0.19778181749E-01 0.  0.
         14    1    1    2    0    0  0.21661157517E-01 -0.24108024391E-02 -0.68710009219E-02  0.22852316448E-01  0.00000000000E+00 0.  1.
     999901    1    3    3    0    0 -0.94510736295E-01 -0.79047860368E-01  0.73413086163E-01  0.89161108378E+00  0.88000000000E+00 0. -1.
        -11    1    4    4    0    0  0.18044037186E-01  0.13059272917E-01 -0.21327147855E-01  0.30842182862E-01  0.51100000000E-03 0.  1.
         11    1    4    4    0    0  0.54805541592E-01  0.68399389890E-01 -0.45214937386E-01  0.98624416908E-01  0.51100000000E-03 0. -1.
</event>
<event>
 8    1  0.1150307E+005  0.1043930E+01  0.7957747E-01            NaN
         13   -1    0    0    0    0  0.00000000000E+00  0.00000000000E+00  0.74505805969E-08  0.10566000000E+00  0.10566000000E+00 0. -1.
     999900   -1    0    0    0    0 -0.00000000000E+00 -0.00000000000E+00 -0.74505805969E-08  0.93827000000E+00  0.93827000000E+00 0. -1.
     999902    2    1    2    0    0  0.15654553116E-01 -0.28499430427E-02  0.17916824304E-01  0.10199675335E+01  0.10196860152E+01 0.  0.
     999903    2    3    3    0    0  0.56009633519E-01 -0.11683494599E+00  0.12479335572E-01  0.13168228667E+00  0.19925038404E-01 0.  0.
         14    1    1    2    0    0 -0.15654553116E-01  0.28499430427E-02 -0.17916824304E-01  0.23962466521E-01  0.00000000000E+00 0.  1.
     999901    1    3    3    0    0 -0.40355080402E-01  0.11398500295E+00  0.54374887320E-02  0.88828524681E+00  0.88000000000E+00 0.  1.
        -11    1    4    4    0    0  0.18190685083E-02 -0.99728616728E-02 -0.36432424916E-02  0.10784308834E-01  0.51100000000E-03 0. -1.
         11    1    4    4    0    0  0.54190565010E-01 -0.10686208432E+00  0.16122578063E-01  0.12089797784E+00  0.51100000000E-03 0.  1.
</event>
<event>
 8    1  0.1150307E+005  0.1043930E+01  0.7957747E-01            NaN
         13   -1    0    0    0    0  0.00000000000E+00  0.00000000000E+00  0.74505805969E-08  0.10566000000E+00  0.10566000000E+00 0.  1.
     999900   -1    0    0    0    0 -0.00000000000E+00 -0.00000000000E+00 -0.74505805969E-08  0.93827000000E+00  0.93827000000E+00 0. -1.
     999902    2    1    2    0    0  0.78004272841E-02  0.17112728617E-01  0.10562363210E-01  0.10223602141E+01  0.10221326488E+01 0.  0.
     999903    2    3    3    0    0  0.69608851899E-01 -0.55248539932E-01  0.96896973762E-01  0.13302894877E+00  0.20245598523E-01 0.  0.
         14    1    1    2    0    0 -0.78004272841E-02 -0.17112728617E-01 -0.10562363210E-01  0.21569785885E-01  0.00000000000E+00 0. -1.
     999901    1    3    3    0    0 -0.61808424615E-01  0.72361268549E-01 -0.86334610552E-01  0.88933126534E+00  0.88000000000E+00 0. -1.
        -11    1    4    4    0    0  0.15559193758E-01 -0.24068939613E-01  0.33145241285E-01  0.43820891198E-01  0.51100000000E-03 0. -1.
         11    1    4    4    0    0  0.54049658141E-01 -0.31179600318E-01  0.63751732477E-01  0.89208057573E-01  0.51100000000E-03 0.  1.
</event>
<event>
 8    1  0.1150307E+005  0.1043930E+01  0.7957747E-01            NaN
         13   -1    0    0    0    0  0.00000000000E+00  0.00000000000E+00  0.74505805969E-08  0.10566000000E+00  0.10566000000E+00 0.  1.
     999900   -1    0    0    0    0 -0.00000000000E+00 -0.00000000000E+00 -0.74505805969E-08  0.93827000000E+00  0.93827000000E+00 0.  1.
     999902    2    1    2    0    0  0.21450365343E-01  0.74029424839E-02 -0.73813950566E-02  0.10200677553E+01  0.10197886147E+01 0.  0.
     999903    2    3    3    0    0  0.23892564324E-01 -0.27463008239E-01 -0.12459814482E+00  0.13160764627E+00  0.21698004804E-01 0.  0.
         14    1    1    2    0    0 -0.21450365343E-01 -0.74029424839E-02  0.73813950566E-02  0.23862244734E-01  0.00000000000E+00 0. -1.
     999901    1    3    3    0    0 -0.24421989806E-02  0.34865950723E-01  0.11721674976E+00  0.88846010900E+00  0.88000000000E+00 0. -1.
        -11    1    4    4    0    0  0.40131697427E-02 -0.12348696432E-01 -0.74535980725E-01  0.75660223226E-01  0.51100000000E-03 0. -1.
         11    1    4    4    0    0  0.19879394581E-01 -0.15114311807E-01 -0.50062164093E-01  0.55947423042E-01  0.51100000000E-03 0.  1.
</event>
<event>
 8    1  0.1150307E+005  0.1043930E+01  0.7957747E-01            NaN
         13   -1    0    0    0    0  0.00000000000E+00  0.00000000000E+00  0.74505805969E-08  0.10566000000E+00  0.10566000000E+00 0. -1.
     999900   -1    0    0    0    0 -0.00000000000E+00 -0.00000000000E+00 -0.74505805969E-08  0.93827000000E+00  0.93827000000E+00 0.  1.
     999902    2    1    2    0    0  0.43616051732E-02 -0.17509697844E-01 -0.14599623914E-01  0.10207187498E+01  0.10204548025E+01 0.  0.
     999903    2    3    3    0    0 -0.55062540184E-01  0.94520464509E-01  0.62399316407E-01  0.12830022513E+00  0.24520838858E-01 0.  0.
         14    1    1    2    0    0 -0.43616051732E-02  0.17509697844E-01  0.14599623914E-01  0.23211250218E-01  0.00000000000E+00 0. -1.
     999901    1    3    3    0    0  0.59424145358E-01 -0.11203016235E+00 -0.76998940320E-01  0.89241852465E+00  0.88000000000E+00 0. -1.
        -11    1    4    4    0    0 -0.25476182088E-01  0.66744736421E-01  0.37512720434E-01  0.80693004709E-01  0.51100000000E-03 0.  1.
         11    1    4    4    0    0 -0.29586358096E-01  0.27775728088E-01  0.24886595972E-01  0.47607220422E-01  0.51100000000E-03 0. -1.
</event>
<event>
 8    1  0.1150307E+005  0.1043930E+01  0.7957747E-01            NaN
         13   -1    0    0    0    0  0.00000000000E+00  0.00000000000E+00  0.74505805969E-08  0.10566000000E+00  0.10566000000E+00 0. -1.
     999900   -1    0    0    0    0 -0.00000000000E+00 -0.00000000000E+00 -0.74505805969E-08  0.93827000000E+00  0.93827000000E+00 0. -1.
     999902    2    1    2    0    0  0.55692822245E-02  0.60946597430E-02  0.22409256904E-01  0.10200482794E+01  0.10197686776E+01 0.  0.
     999903    2    3    3    0    0 -0.10218609903E+00 -0.69302137938E-02 -0.74291413320E-01  0.12812233569E+00  0.20151727265E-01 0.  0.
         14    1    1    2    0    0 -0.55692822245E-02 -0.60946597430E-02 -0.22409256904E-01  0.23881720559E-01  0.00000000000E+00 0.  1.
     999901    1    3    3    0    0  0.10775538125E+00  0.13024873537E-01  0.96700670224E-01  0.89192594375E+00  0.88000000000E+00 0.  1.
        -11    1    4    4    0    0 -0.68790748949E-01 -0.14080504632E-01 -0.49164865179E-01  0.85719734255E-01  0.51100000000E-03 0. -1.
         11    1    4    4    0    0 -0.33395350076E-01  0.71502908381E-02 -0.25126548141E-01  0.42402601432E-01  0.51100000000E-03 0.  1.
</event>
<event>
 7    1  0.1150307E+005  0.1043930E+01  0.7957747E-01            NaN
         13   -1    0    0    0    0  0.00000000000E+00  0.00000000000E+00  0.74505805969E-08  0.10566000000E+00  0.10566000000E+00 0. -1.
     999900   -1    0    0    0    0 -0.00000000000E+00 -0.00000000000E+00 -0.74505805969E-08  0.93827000000E+00  0.93827000000E+00 0.  1.
     999903    2    1    2    0    0 -0.51416971810E-01  0.47329219044E-01 -0.83298157280E-01  0.11052599964E+00  0.19840706246E-01 0.  0.
         14    1    1    2    0    0 -0.88886918064E-02 -0.46324067094E-01  0.10623572200E-01  0.48350680662E-01  0.00000000000E+00 0. -1.
     999901    1    1    2    0    0  0.60305663617E-01 -0.10051519497E-02  0.72674585081E-01  0.88505331970E+00  0.88000000000E+00 0. -1.
        -11    1    3    3    0    0 -0.36917805729E-01  0.21079197297E-01 -0.45456320406E-01  0.62239819444E-01  0.51100000000E-03 0.  1.
         11    1    3    3    0    0 -0.14499166081E-01  0.26250021747E-01 -0.37841836874E-01  0.48286180194E-01  0.51100000000E-03 0. -1.
</event>
<event>
 8    1  0.1150307E+005  0.1043930E+01  0.7957747E-01            NaN
         13   -1    0    0    0    0  0.00000000000E+00  0.00000000000E+00  0.74505805969E-08  0.10566000000E+00  0.10566000000E+00 0. -1.
     999900   -1    0    0    0    0 -0.00000000000E+00 -0.00000000000E+00 -0.74505805969E-08  0.93827000000E+00  0.93827000000E+00 0. -1.
     999902    2    1    2    0    0 -0.89971054715E-03 -0.22491370525E-01 -0.73604825721E-02  0.10202477718E+01  0.10199728761E+01 0.  0.
     999903    2    3    3    0    0  0.63854874292E-02 -0.13139645150E+00 -0.65371992238E-02  0.13350425279E+00  0.21791021635E-01 0.  0.
         14    1    1    2    0    0  0.89971054715E-03  0.22491370525E-01  0.73604825721E-02  0.23682228164E-01  0.00000000000E+00 0. -1.
     999901    1    3    3    0    0 -0.72851979763E-02  0.10890508097E+00 -0.82328334827E-03  0.88674351904E+00  0.88000000000E+00 0.  1.
        -11    1    4    4    0    0 -0.10181452007E-02 -0.99122220790E-01  0.25571439325E-02  0.99161743531E-01  0.51100000000E-03 0.  1.
         11    1    4    4    0    0  0.74036326299E-02 -0.32274230707E-01 -0.90943431563E-02  0.34342509261E-01  0.51100000000E-03 0. -1.
</event>
<event>
 8    1  0.1150307E+005  0.1043930E+01  0.7957747E-01            NaN
         13   -1    0    0    0    0  0.00000000000E+00  0.00000000000E+00  0.74505805969E-08  0.10566000000E+00  0.10566000000E+00 0.  1.
     999900   -1    0    0    0    0 -0.00000000000E+00 -0.00000000000E+00 -0.74505805969E-08  0.93827000000E+00  0.93827000000E+00 0. -1.
     999902    2    1    2    0    0  0.34024837333E-02  0.22474996967E-01  0.35764473520E-02  0.10209192773E+01  0.10206599225E+01 0.  0.
     999903    2    3    3    0    0 -0.13038913595E-01 -0.66798821418E-01 -0.10898244674E+00  0.12911793235E+00  0.12734635637E-01 0.  0.
         14    1    1    2    0    0 -0.34024837333E-02 -0.22474996967E-01 -0.35764473520E-02  0.23010722715E-01  0.00000000000E+00 0.  1.
     999901    1    3    3    0    0  0.16441397328E-01  0.89273818385E-01  0.11255889409E+00  0.89180134494E+00  0.88000000000E+00 0.  1.
        -11    1    4    4    0    0 -0.32494305471E-02 -0.10004023323E-01 -0.26303251073E-01  0.28333044657E-01  0.51100000000E-03 0.  1.
         11    1    4    4    0    0 -0.97894830480E-02 -0.56794798094E-01 -0.82679195669E-01  0.10078488769E+00  0.51100000000E-03 0. -1.
</event>
<event>
 8    1  0.1150307E+005  0.1043930E+01  0.7957747E-01            NaN
         13   -1    0    0    0    0  0.00000000000E+00  0.00000000000E+00  0.74505805969E-08  0.10566000000E+00  0.10566000000E+00 0.  1.
     999900   -1    0    0    0    0 -0.00000000000E+00 -0.00000000000E+00 -0.74505805969E-08  0.93827000000E+00  0.93827000000E+00 0. -1.
     999902    2    1    2    0    0 -0.10851736326E-01 -0.20643241000E-01  0.11332869052E-02  0.10205807405E+01  0.10203136086E+01 0.  0.
     999903    2    3    3    0    0 -0.40118886394E-01 -0.12587521586E+00 -0.38614348438E-02  0.13381398319E+00  0.20908763872E-01 0.  0.
         14    1    1    2    0    0  0.10851736326E-01  0.20643241000E-01 -0.11332869052E-02  0.23349259506E-01  0.00000000000E+00 0. -1.
     999901    1    3    3    0    0  0.29267150069E-01  0.10523197486E+00  0.49947217490E-02  0.88676675730E+00  0.88000000000E+00 0. -1.
        -11    1    4    4    0    0 -0.11108478517E-01 -0.12706835056E-01  0.65137871280E-03  0.16898146861E-01  0.51100000000E-03 0. -1.
         11    1    4    4    0    0 -0.29010407877E-01 -0.11316838080E+00 -0.45128135566E-02  0.11691583633E+00  0.51100000000E-03 0.  1.
</event>
<event>
 7    1  0.1150307E+005  0.1043930E+01  0.7957747E-01            NaN
         13   -1    0    0    0    0  0.00000000000E+00  0.00000000000E+00  0.74505805969E-08  0.10566000000E+00  0.10566000000E+00 0. -1.
     999900   -1    0    0    0    0 -0.00000000000E+00 -0.00000000000E+00 -0.74505805969E-08  0.93827000000E+00  0.93827000000E+00 0. -1.
     999903    2    1    2    0    0 -0.51120311871E-01  0.26747903789E-01  0.23838927916E-01  0.65425083833E-01  0.19580869939E-01 0.  0.
         14    1    1    2    0    0 -0.36276745414E-01  0.33614359859E-01 -0.75899270566E-01  0.90590433927E-01  0.00000000000E+00 0.  1.
     999901    1    1    2    0    0  0.87397057285E-01 -0.60362263648E-01  0.52060342650E-01  0.88791448224E+00  0.88000000000E+00 0. -1.
        -11    1    3    3    0    0 -0.15344549143E-01  0.11067780343E-01  0.17638906932E-01  0.25871666140E-01  0.51100000000E-03 0.  1.
         11    1    3    3    0    0 -0.35775762727E-01  0.15680123446E-01  0.62000209845E-02  0.39553417693E-01  0.51100000000E-03 0. -1.
</event>
<event>
 8    1  0.1150307E+005  0.1043930E+01  0.7957747E-01            NaN
         13   -1    0    0    0    0  0.00000000000E+00  0.00000000000E+00  0.74505805969E-08  0.10566000000E+00  0.10566000000E+00 0.  1.
     999900   -1    0    0    0    0 -0.00000000000E+00 -0.00000000000E+00 -0.74505805969E-08  0.93827000000E+00  0.93827000000E+00 0.  1.
     999902    2    1    2    0    0 -0.19734981603E-02  0.11774259376E-02  0.26402085266E-01  0.10174280919E+01  0.10170828732E+01 0.  0.
     999903    2    3    3    0    0 -0.10931941407E+00  0.66663654528E-02  0.67232665393E-01  0.12994828345E+00  0.19265262928E-01 0.  0.
         14    1    1    2    0    0  0.19734981603E-02 -0.11774259376E-02 -0.26402085266E-01  0.26501908105E-01  0.00000000000E+00 0. -1.
     999901    1    3    3    0    0  0.10734591591E+00 -0.54889395152E-02 -0.40830580127E-01  0.88747980844E+00  0.88000000000E+00 0. -1.
        -11    1    4    4    0    0 -0.49381039218E-01  0.19300737718E-03  0.19673137935E-01  0.53158421377E-01  0.51100000000E-03 0.  1.
         11    1    4    4    0    0 -0.59938374851E-01  0.64733580756E-02  0.47559527458E-01  0.76789862076E-01  0.51100000000E-03 0. -1.
</event>
<event>
 8    1  0.1150307E+005  0.1043930E+01  0.7957747E-01            NaN
         13   -1    0    0    0    0  0.00000000000E+00  0.00000000000E+00  0.74505805969E-08  0.10566000000E+00  0.10566000000E+00 0. -1.
     999900   -1    0    0    0    0 -0.00000000000E+00 -0.00000000000E+00 -0.74505805969E-08  0.93827000000E+00  0.93827000000E+00 0. -1.
     999902    2    1    2    0    0 -0.25464169513E-01 -0.96183468860E-02 -0.90983735254E-02  0.10152295309E+01  0.10148237697E+01 0.  0.
     999903    2    3    3    0    0 -0.44110793122E-01  0.91258599548E-01 -0.73723442775E-01  0.12691637977E+00  0.19968159103E-01 0.  0.
         14    1    1    2    0    0  0.25464169513E-01  0.96183468860E-02  0.90983735254E-02  0.28700469101E-01  0.00000000000E+00 0. -1.
     999901    1    3    3    0    0  0.18646623609E-01 -0.10087694643E+00  0.64625069250E-01  0.88831315113E+00  0.88000000000E+00 0.  1.
        -11    1    4    4    0    0 -0.14171880489E-01  0.33079520438E-01 -0.38114526533E-01  0.52422086212E-01  0.51100000000E-03 0. -1.
         11    1    4    4    0    0 -0.29938912633E-01  0.58179079109E-01 -0.35608916243E-01  0.74494293557E-01  0.51100000000E-03 0.  1.
</event>
<event>
 8    1  0.1150307E+005  0.1043930E+01  0.7957747E-01            NaN
         13   -1    0    0    0    0  0.00000000000E+00  0.00000000000E+00  0.74505805969E-08  0.10566000000E+00  0.10566000000E+00 0.  1.
     999900   -1    0    0    0    0 -0.00000000000E+00 -0.00000000000E+00 -0.74505805969E-08  0.93827000000E+00  0.93827000000E+00 0.  1.
     999902    2    1    2    0    0  0.12502396110E-02  0.17566731120E-03 -0.24332072604E-01  0.10195651952E+01  0.10192740277E+01 0.  0.
     999903    2    3    3    0    0  0.66416684353E-02 -0.12801203256E+00 -0.92312496206E-02  0.13013324792E+00  0.20451259265E-01 0.  0.
         14    1    1    2    0    0 -0.12502396110E-02 -0.17566731120E-03  0.24332072604E-01  0.24364804848E-01  0.00000000000E+00 0.  1.
     999901    1    3    3    0    0 -0.53914288243E-02  0.12818769987E+00 -0.15100822983E-01  0.88943194723E+00  0.88000000000E+00 0. -1.
        -11    1    4    4    0    0  0.12199951817E-01 -0.11489239359E+00 -0.86777674150E-02  0.11586485963E+00  0.51100000000E-03 0.  1.
         11    1    4    4    0    0 -0.55582833820E-02 -0.13119638968E-01 -0.55348220566E-03  0.14268388288E-01  0.51100000000E-03 0. -1.
</event>
<event>
 8    1  0.1150307E+005  0.1043930E+01  0.7957747E-01            NaN
         13   -1    0    0    0    0  0.00000000000E+00  0.00000000000E+00  0.74505805969E-08  0.10566000000E+00  0.10566000000E+00 0.  1.
     999900   -1    0    0    0    0 -0.00000000000E+00 -0.00000000000E+00 -0.74505805969E-08  0.93827000000E+00  0.93827000000E+00 0.  1.
     999902    2    1    2    0    0  0.50773171025E-02  0.61682229079E-02  0.21770620613E-01  0.10207397856E+01  0.10204763220E+01 0.  0.
     999903    2    3    3    0    0  0.17324230649E-01  0.80911111874E-01 -0.96902367086E-01  0.12954970241E+00  0.23373481870E-01 0.  0.
         14    1    1    2    0    0 -0.50773171025E-02 -0.61682229079E-02 -0.21770620613E-01  0.23190214417E-01  0.00000000000E+00 0. -1.
     999901    1    3    3    0    0 -0.12246913547E-01 -0.74742888966E-01  0.11867298770E+00  0.89119008318E+00  0.88000000000E+00 0. -1.
        -11    1    4    4    0    0 -0.15807297366E-02  0.84778504240E-02 -0.22068151462E-01  0.23698883608E-01  0.51100000000E-03 0.  1.
         11    1    4    4    0    0  0.18904960386E-01  0.72433261450E-01 -0.74834215623E-01  0.10585081880E+00  0.51100000000E-03 0. -1.
</event>
<event>
 8    1  0.1150307E+005  0.1043930E+01  0.7957747E-01            NaN
         13   -1    0    0    0    0  0.00000000000E+00  0.00000000000E+00  0.74505805969E-08  0.10566000000E+00  0.10566000000E+00 0.  1.
     999900   -1    0    0    0    0 -0.00000000000E+00 -0.00000000000E+00 -0.74505805969E-08  0.93827000000E+00  0.93827000000E+00 0.  1.
     999902    2    1    2    0    0  0.64342710903E-02 -0.21419048645E-01  0.27336645770E-02  0.10213989456E+01  0.10211504090E+01 0.  0.
     999903    2    3    3    0    0  0.22431031928E-01  0.10129726130E+00 -0.75000465159E-01  0.12934637766E+00  0.18469685936E-01 0.  0.
         14    1    1    2    0    0 -0.64342710903E-02  0.21419048645E-01 -0.27336645770E-02  0.22531054377E-01  0.00000000000E+00 0. -1.
     999901    1    3    3    0    0 -0.15996760837E-01 -0.12271630995E+00  0.77734129736E-01  0.89205256796E+00  0.88000000000E+00 0. -1.
        -11    1    4    4    0    0  0.16274322431E-01  0.92950018563E-01 -0.62932615003E-01  0.11342545867E+00  0.51100000000E-03 0.  1.
         11    1    4    4    0    0  0.61567094968E-02  0.83472427399E-02 -0.12067850156E-01  0.15920918993E-01  0.51100000000E-03 0. -1.
</event>
<event>
 8    1  0.1150307E+005  0.1043930E+01  0.7957747E-01            NaN
         13   -1    0    0    0    0  0.00000000000E+00  0.00000000000E+00  0.74505805969E-08  0.10566000000E+00  0.10566000000E+00 0.  1.
     999900   -1    0    0    0    0 -0.00000000000E+00 -0.00000000000E+00 -0.74505805969E-08  0.93827000000E+00  0.93827000000E+00 0. -1.
     999902    2    1    2    0    0 -0.44374550400E-02 -0.40814718899E-02  0.23565503238E-01  0.10196054782E+01  0.10193152843E+01 0.  0.
     999903    2    3    3    0    0 -0.39619092282E-01  0.92498414493E-01  0.82388111984E-01  0.13167219161E+00  0.20594559743E-01 0.  0.
         14    1    1    2    0    0  0.44374550400E-02  0.40814718899E-02 -0.23565503238E-01  0.24324521843E-01  0.00000000000E+00 0. -1.
     999901    1    3    3    0    0  0.35181637242E-01 -0.96579886383E-01 -0.58822608747E-01  0.88793328654E+00  0.88000000000E+00 0. -1.
        -11    1    4    4    0    0 -0.18712552896E-01  0.31110290452E-01  0.18967897339E-01  0.40964033717E-01  0.51100000000E-03 0. -1.
         11    1    4    4    0    0 -0.20906539386E-01  0.61388124041E-01  0.63420214645E-01  0.90708157897E-01  0.51100000000E-03 0.  1.
</event>
<event>
 8    1  0.1150307E+005  0.1043930E+01  0.7957747E-01            NaN
         13   -1    0    0    0    0  0.00000000000E+00  0.00000000000E+00  0.74505805969E-08  0.10566000000E+00  0.10566000000E+00 0.  1.
     999900   -1    0    0    0    0 -0.00000000000E+00 -0.00000000000E+00 -0.74505805969E-08  0.93827000000E+00  0.93827000000E+00 0.  1.
     999902    2    1    2    0    0  0.27457795549E-02 -0.23023509969E-01  0.10801230303E-01  0.10183509482E+01  0.10180296488E+01 0.  0.
     999903    2    3    3    0    0  0.24124542051E-01  0.12128678079E+00 -0.13240238860E-01  0.12601664772E+00  0.20307999753E-01 0.  0.
         14    1    1    2    0    0 -0.27457795549E-02  0.23023509969E-01 -0.10801230303E-01  0.25579051834E-01  0.00000000000E+00 0.  1.
     999901    1    3    3    0    0 -0.21378762496E-01 -0.14431029076E+00  0.24041469162E-01  0.89233430044E+00  0.88000000000E+00 0. -1.
        -11    1    4    4    0    0 -0.84670439927E-03  0.26216698181E-01  0.29330054207E-02  0.26398784322E-01  0.51100000000E-03 0. -1.
         11    1    4    4    0    0  0.24971246450E-01  0.95070082612E-01 -0.16173244280E-01  0.99617863402E-01  0.51100000000E-03 0.  1.
</event>
<event>
 8    1  0.1150307E+005  0.1043930E+01  0.7957747E-01            NaN
         13   -1    0    0    0    0  0.00000000000E+00  0.00000000000E+00  0.74505805969E-08  0.10566000000E+00  0.10566000000E+00 0. -1.
     999900   -1    0    0    0    0 -0.00000000000E+00 -0.00000000000E+00 -0.74505805969E-08  0.93827000000E+00  0.93827000000E+00 0. -1.
     999902    2    1    2    0    0  0.19863125742E-01 -0.26910864320E-02  0.17835533707E-01  0.10170991973E+01  0.10167452410E+01 0.  0.
     999903    2    3    3    0    0  0.32502192970E-01 -0.99221182301E-01 -0.69974195337E-01  0.12738668535E+00  0.20730268338E-01 0.  0.
         14    1    1    2    0    0 -0.19863125742E-01  0.26910864320E-02 -0.17835533707E-01  0.26830802691E-01  0.00000000000E+00 0.  1.
     999901    1    3    3    0    0 -0.12639067228E-01  0.96530095869E-01  0.87809729044E-01  0.88971251196E+00  0.88000000000E+00 0.  1.
        -11    1    4    4    0    0  0.10011416327E-01 -0.43403511944E-01 -0.41212514283E-01  0.60686289724E-01  0.51100000000E-03 0. -1.
         11    1    4    4    0    0  0.22490776643E-01 -0.55817670357E-01 -0.28761681053E-01  0.66700395622E-01  0.51100000000E-03 0.  1.
</event>
<event>
 8    1  0.1150307E+005  0.1043930E+01  0.7957747E-01            NaN
         13   -1    0    0    0    0  0.00000000000E+00  0.00000000000E+00  0.74505805969E-08  0.10566000000E+00  0.10566000000E+00 0.  1.
     999900   -1    0    0    0    0 -0.00000000000E+00 -0.00000000000E+00 -0.74505805969E-08  0.93827000000E+00  0.93827000000E+00 0. -1.
     999902    2    1    2    0    0 -0.19300445370E-01 -0.11741046132E-01 -0.17857196994E-01  0.10151334926E+01  0.10147249720E+01 0.  0.
     999903    2    3    3    0    0  0.93908855831E-01 -0.66259094651E-01  0.42443343736E-01  0.12416507635E+00  0.20159065688E-01 0.  0.
         14    1    1    2    0    0  0.19300445370E-01  0.11741046132E-01  0.17857196994E-01  0.28796507431E-01  0.00000000000E+00 0. -1.
     999901    1    3    3    0    0 -0.11320930120E+00  0.54518048519E-01 -0.60300540729E-01  0.89096841622E+00  0.88000000000E+00 0. -1.
        -11    1    4    4    0    0  0.39943177880E-01 -0.17443403240E-01  0.11436820858E-01  0.45064307029E-01  0.51100000000E-03 0. -1.
         11    1    4    4    0    0  0.53965677951E-01 -0.48815691411E-01  0.31006522878E-01  0.79100769318E-01  0.51100000000E-03 0.  1.
</event>
<event>
 8    1  0.1150307E+005  0.1043930E+01  0.7957747E-01            NaN
         13   -1    0    0    0    0  0.00000000000E+00  0.00000000000E+00  0.74505805969E-08  0.10566000000E+00  0.10566000000E+00 0.  1.
     999900   -1    0    0    0    0 -0.00000000000E+00 -0.00000000000E+00 -0.74505805969E-08  0.93827000000E+00  0.93827000000E+00 0. -1.
     999902    2    1    2    0    0 -0.12700492000E-01 -0.17332104906E-01  0.71881496604E-02  0.10212722452E+01  0.10210208739E+01 0.  0.
     999903    2    3    3    0    0  0.82286006283E-01 -0.96908874471E-01  0.27083022966E-01  0.13236803039E+00  0.25009769176E-01 0.  0.
         14    1    1    2    0    0  0.12700492000E-01  0.17332104906E-01 -0.71881496604E-02  0.22657754811E-01  0.00000000000E+00 0.  1.
     999901    1    3    3    0    0 -0.94986498283E-01  0.79576769564E-01 -0.19894873305E-01  0.88890421480E+00  0.88000000000E+00 0. -1.
        -11    1    4    4    0    0  0.33811069083E-01 -0.49434283086E-01  0.16810067000E-02  0.59916806000E-01  0.51100000000E-03 0. -1.
         11    1    4    4    0    0  0.48474937200E-01 -0.47474591385E-01  0.25402016266E-01  0.72451224386E-01  0.51100000000E-03 0.  1.
</event>
<event>
 7    1  0.1242558E+005  0.1043930E+01  0.7957747E-01            NaN
         13   -1    0    0    0    0  0.00000000000E+00  0.00000000000E+00  0.74505805969E-08  0.10566000000E+00  0.10566000000E+00 0.  1.
     999900   -1    0    0    0    0 -0.00000000000E+00 -0.00000000000E+00 -0.74505805969E-08  0.93827000000E+00  0.93827000000E+00 0. -1.
     999903    2    1    2    0    0 -0.45460484577E-01 -0.51104802257E-01  0.79269036235E-01  0.10684128365E+00  0.21286693394E-01 0.  0.
         14    1    1    2    0    0  0.40109969721E-01 -0.27858863307E-01 -0.15509355409E-01  0.51239301722E-01  0.00000000000E+00 0. -1.
     999901    1    1    2    0    0  0.53505148561E-02  0.78963665565E-01 -0.63759680826E-01  0.88584941462E+00  0.88000000000E+00 0. -1.
        -11    1    3    3    0    0 -0.30401599183E-01 -0.45991014251E-01  0.55435118232E-01  0.78184039798E-01  0.51100000000E-03 0.  1.
         11    1    3    3    0    0 -0.15058885395E-01 -0.51137880057E-02  0.23833918003E-01  0.28657243857E-01  0.51100000000E-03 0. -1.
</event>
<event>
 8    1  0.1150307E+005  0.1043930E+01  0.7957747E-01            NaN
         13   -1    0    0    0    0  0.00000000000E+00  0.00000000000E+00  0.74505805969E-08  0.10566000000E+00  0.10566000000E+00 0. -1.
     999900   -1    0    0    0    0 -0.00000000000E+00 -0.00000000000E+00 -0.74505805969E-08  0.93827000000E+00  0.93827000000E+00 0. -1.
     999902    2    1    2    0    0 -0.77831590884E-02  0.23664900638E-01 -0.10837768489E-02  0.10189944900E+01  0.10186893496E+01 0.  0.
     999903    2    3    3    0    0  0.68253228038E-02 -0.71210882714E-01 -0.10413866001E+00  0.12779578545E+00  0.19217893283E-01 0.  0.
         14    1    1    2    0    0  0.77831590884E-02 -0.23664900638E-01  0.10837768489E-02  0.24935510019E-01  0.00000000000E+00 0. -1.
     999901    1    3    3    0    0 -0.14608481892E-01  0.94875783353E-01  0.10305488316E+00  0.89119870453E+00  0.88000000000E+00 0.  1.
        -11    1    4    4    0    0  0.67592527342E-02 -0.45317532869E-01 -0.50239158389E-01  0.67997061991E-01  0.51100000000E-03 0. -1.
         11    1    4    4    0    0  0.66070069614E-04 -0.25893349846E-01 -0.53899501622E-01  0.59798723462E-01  0.51100000000E-03 0.  1.
</event>
<event>
 8    1  0.1150307E+005  0.1043930E+01  0.7957747E-01            NaN
         13   -1    0    0    0    0  0.00000000000E+00  0.00000000000E+00  0.74505805969E-08  0.10566000000E+00  0.10566000000E+00 0. -1.
     999900   -1    0    0    0    0 -0.00000000000E+00 -0.00000000000E+00 -0.74505805969E-08  0.93827000000E+00  0.93827000000E+00 0. -1.
     999902    2    1    2    0    0  0.51741021614E-02  0.20022496998E-01 -0.10737582013E-01  0.10206283394E+01  0.10203623081E+01 0.  0.
     999903    2    3    3    0    0  0.37615943780E-01  0.12611630296E+00  0.94417328072E-02  0.13343299817E+00  0.19873036633E-01 0.  0.
         14    1    1    2    0    0 -0.51741021614E-02 -0.20022496998E-01  0.10737582013E-01  0.23301660600E-01  0.00000000000E+00 0. -1.
     999901    1    3    3    0    0 -0.32441841618E-01 -0.10609380596E+00 -0.20179314820E-01  0.88719534123E+00  0.88000000000E+00 0. -1.
        -11    1    4    4    0    0  0.32993624864E-01  0.10246809457E+00  0.15024978345E-01  0.10869360966E+00  0.51100000000E-03 0. -1.
         11    1    4    4    0    0  0.46223189158E-02  0.23648208386E-01 -0.55832455377E-02  0.24739388508E-01  0.51100000000E-03 0.  1.
</event>
<event>
 8    1  0.1150307E+005  0.1043930E+01  0.7957747E-01            NaN
         13   -1    0    0    0    0  0.00000000000E+00  0.00000000000E+00  0.74505805969E-08  0.10566000000E+00  0.10566000000E+00 0.  1.
     999900   -1    0    0    0    0 -0.00000000000E+00 -0.00000000000E+00 -0.74505805969E-08  0.93827000000E+00  0.93827000000E+00 0.  1.
     999902    2    1    2    0    0 -0.24042092683E-02  0.23088578917E-01  0.62456600768E-02  0.10198910531E+01  0.10196077134E+01 0.  0.
     999903    2    3    3    0    0 -0.12273633346E+00  0.84531266675E-02 -0.38864135050E-01  0.13043677648E+00  0.19174690673E-01 0.  0.
         14    1    1    2    0    0  0.24042092683E-02 -0.23088578917E-01 -0.62456600768E-02  0.24038946907E-01  0.00000000000E+00 0. -1.
     999901    1    3    3    0    0  0.12033212419E+00  0.14635452250E-01  0.45109795126E-01  0.88945427662E+00  0.88000000000E+00 0. -1.
        -11    1    4    4    0    0 -0.45187197159E-01  0.58118686199E-02 -0.23757186669E-01  0.51384099129E-01  0.51100000000E-03 0. -1.
         11    1    4    4    0    0 -0.77549136302E-01  0.26412580476E-02 -0.15106948381E-01  0.79052677347E-01  0.51100000000E-03 0.  1.
</event>
<event>
 8    1  0.1150307E+005  0.1043930E+01  0.7957747E-01            NaN
         13   -1    0    0    0    0  0.00000000000E+00  0.00000000000E+00  0.74505805969E-08  0.10566000000E+00  0.10566000000E+00 0.  1.
     999900   -1    0    0    0    0 -0.00000000000E+00 -0.00000000000E+00 -0.74505805969E-08  0.93827000000E+00  0.93827000000E+00 0. -1.
     999902    2    1    2    0    0 -0.23616848744E-01  0.87156061979E-03  0.40321807336E-02  0.10199555627E+01  0.10196737597E+01 0.  0.
     999903    2    3    3    0    0  0.39340169023E-01 -0.11124661579E+00 -0.48212045276E-01  0.12907760769E+00  0.20326560788E-01 0.  0.
         14    1    1    2    0    0  0.23616848744E-01 -0.87156061979E-03 -0.40321807336E-02  0.23974437302E-01  0.00000000000E+00 0.  1.
     999901    1    3    3    0    0 -0.62957017766E-01  0.11211817641E+00  0.52244226009E-01  0.89087795501E+00  0.88000000000E+00 0. -1.
        -11    1    4    4    0    0  0.22162475568E-01 -0.33995579615E-01 -0.15506823106E-01  0.43446489392E-01  0.51100000000E-03 0. -1.
         11    1    4    4    0    0  0.17177693455E-01 -0.77251036176E-01 -0.32705222169E-01  0.85631118297E-01  0.51100000000E-03 0.  1.
</event>
<event>
 7    1  0.1150307E+005  0.1043930E+01  0.7957747E-01            NaN
         13   -1    0    0    0    0  0.00000000000E+00  0.00000000000E+00  0.74505805969E-08  0.10566000000E+00  0.10566000000E+00 0. -1.
     999900   -1    0    0    0    0 -0.00000000000E+00 -0.00000000000E+00 -0.74505805969E-08  0.93827000000E+00  0.93827000000E+00 0. -1.
     999902    2    1    2    0    0  0.19061587713E-01  0.12484700337E-01 -0.49807979417E-02  0.10206057590E+01  0.10203392059E+01 0.  0.
         14    1    1    2    0    0 -0.19061587713E-01 -0.12484700337E-01  0.49807979417E-02  0.23324240969E-01  0.00000000000E+00 0.  1.
     999901    1    3    3    0    0 -0.37040134073E-01  0.60363410531E-01 -0.74354488620E-01  0.88597082505E+00  0.88000000000E+00 0. -1.
        -11    1    3    3    0    0  0.38774494467E-01  0.44067835539E-02  0.69319377253E-01  0.79550728132E-01  0.51100000000E-03 0. -1.
         11    1    3    3    0    0  0.17327227318E-01 -0.52285493748E-01  0.54313425556E-04  0.55084205849E-01  0.51100000000E-03 0.  1.
</event>
<event>
 8    1  0.1150307E+005  0.1043930E+01  0.7957747E-01            NaN
         13   -1    0    0    0    0  0.00000000000E+00  0.00000000000E+00  0.74505805969E-08  0.10566000000E+00  0.10566000000E+00 0.  1.
     999900   -1    0    0    0    0 -0.00000000000E+00 -0.00000000000E+00 -0.74505805969E-08  0.93827000000E+00  0.93827000000E+00 0. -1.
     999902    2    1    2    0    0 -0.21159600252E-01 -0.54893913915E-02 -0.73020772185E-02  0.10208826047E+01  0.10206224131E+01 0.  0.
     999903    2    3    3    0    0 -0.55741405884E-01  0.66423085726E-02 -0.11883809682E+00  0.13308568919E+00  0.20930428055E-01 0.  0.
         14    1    1    2    0    0  0.21159600252E-01  0.54893913915E-02  0.73020772185E-02  0.23047395349E-01  0.00000000000E+00 0.  1.
     999901    1    3    3    0    0  0.34581805632E-01 -0.12131699964E-01  0.11153601960E+00  0.88779691546E+00  0.88000000000E+00 0.  1.
        -11    1    4    4    0    0 -0.84991808436E-03  0.32637619355E-03 -0.18577433901E-01  0.18606747527E-01  0.51100000000E-03 0.  1.
         11    1    4    4    0    0 -0.54891487800E-01  0.63159323790E-02 -0.10026066292E+00  0.11447894167E+00  0.51100000000E-03 0. -1.
</event>
<event>
 8    1  0.1150307E+005  0.1043930E+01  0.7957747E-01            NaN
         13   -1    0    0    0    0  0.00000000000E+00  0.00000000000E+00  0.74505805969E-08  0.10566000000E+00  0.10566000000E+00 0.  1.
     999900   -1    0    0    0    0 -0.00000000000E+00 -0.00000000000E+00 -0.74505805969E-08  0.93827000000E+00  0.93827000000E+00 0. -1.
     999902    2    1    2    0    0 -0.83058892890E-02  0.21668562401E-01 -0.59337288391E-02  0.10199774734E+01  0.10196961914E+01 0.  0.
     999903    2    3    3    0    0  0.53075274374E-01  0.92733937087E-01 -0.74512693141E-01  0.13232832587E+00  0.23282537480E-01 0.  0.
         14    1    1    2    0    0  0.83058892890E-02 -0.21668562401E-01  0.59337288391E-02  0.23952526618E-01  0.00000000000E+00 0.  1.
     999901    1    3    3    0    0 -0.61381163663E-01 -0.71065374685E-01  0.68578964301E-01  0.88764914751E+00  0.88000000000E+00 0.  1.
        -11    1    4    4    0    0  0.19182302945E-01  0.15092742752E-01 -0.20285425485E-01  0.31741317524E-01  0.51100000000E-03 0. -1.
         11    1    4    4    0    0  0.33892971429E-01  0.77641194335E-01 -0.54227267655E-01  0.10058700835E+00  0.51100000000E-03 0.  1.
</event>
<event>
 8    1  0.1150307E+005  0.1043930E+01  0.7957747E-01            NaN
         13   -1    0    0    0    0  0.00000000000E+00  0.00000000000E+00  0.74505805969E-08  0.10566000000E+00  0.10566000000E+00 0. -1.
     999900   -1    0    0    0    0 -0.00000000000E+00 -0.00000000000E+00 -0.74505805969E-08  0.93827000000E+00  0.93827000000E+00 0. -1.
     999902    2    1    2    0    0 -0.50273149887E-02 -0.18847197842E-01 -0.14460515619E-01  0.10196483758E+01  0.10193592168E+01 0.  0.
     999903    2    3    3    0    0 -0.40297243272E-01 -0.63311035718E-01 -0.10783371841E+00  0.13289048565E+00  0.19990379957E-01 0.  0.
         14    1    1    2    0    0  0.50273149887E-02  0.18847197842E-01  0.14460515619E-01  0.24281624214E-01  0.00000000000E+00 0. -1.
     999901    1    3    3    0    0  0.35269928283E-01  0.44463837876E-01  0.93373202793E-01  0.88675789014E+00  0.88000000000E+00 0.  1.
        -11    1    4    4    0    0 -0.34657617613E-01 -0.62934642853E-01 -0.97678256307E-01  0.12125684560E+00  0.51100000000E-03 0. -1.
         11    1    4    4    0    0 -0.56396256591E-02 -0.37639286488E-03 -0.10155462105E-01  0.11633640046E-01  0.51100000000E-03 0.  1.
</event>
<event>
 8    1  0.1150307E+005  0.1043930E+01  0.7957747E-01            NaN
         13   -1    0    0    0    0  0.00000000000E+00  0.00000000000E+00  0.74505805969E-08  0.10566000000E+00  0.10566000000E+00 0. -1.
     999900   -1    0    0    0    0 -0.00000000000E+00 -0.00000000000E+00 -0.74505805969E-08  0.93827000000E+00  0.93827000000E+00 0.  1.
     999902    2    1    2    0    0 -0.85960117496E-02 -0.98828584836E-02  0.16273732286E-01  0.10230398906E+01  0.10228265840E+01 0.  0.
     999903    2    3    3    0    0 -0.11271093274E+00  0.66992587022E-01 -0.10415546242E-01  0.13317356999E+00  0.20855576405E-01 0.  0.
         14    1    1    2    0    0  0.85960117496E-02  0.98828584836E-02 -0.16273732286E-01  0.20890109438E-01  0.00000000000E+00 0.  1.
     999901    1    3    3    0    0  0.10411492099E+00 -0.76875445505E-01  0.26689278528E-01  0.88986632057E+00  0.88000000000E+00 0.  1.
        -11    1    4    4    0    0 -0.57188624690E-01  0.27052921264E-01 -0.13563073303E-01  0.64704075770E-01  0.51100000000E-03 0. -1.
         11    1    4    4    0    0 -0.55522308047E-01  0.39939665757E-01  0.31475270610E-02  0.68469494224E-01  0.51100000000E-03 0.  1.
</event>
<event>
 8    1  0.1150307E+005  0.1043930E+01  0.7957747E-01            NaN
         13   -1    0    0    0    0  0.00000000000E+00  0.00000000000E+00  0.74505805969E-08  0.10566000000E+00  0.10566000000E+00 0.  1.
     999900   -1    0    0    0    0 -0.00000000000E+00 -0.00000000000E+00 -0.74505805969E-08  0.93827000000E+00  0.93827000000E+00 0. -1.
     999902    2    1    2    0    0 -0.17136633047E-01  0.91289569527E-02 -0.14265509444E-01  0.10198362911E+01  0.10195516436E+01 0.  0.
     999903    2    3    3    0    0 -0.43660282032E-01  0.65797065238E-01 -0.10511013264E+00  0.13294986999E+00  0.19800351640E-01 0.  0.
         14    1    1    2    0    0  0.17136633047E-01 -0.91289569527E-02  0.14265509444E-01  0.24093708866E-01  0.00000000000E+00 0. -1.
     999901    1    3    3    0    0  0.26523648985E-01 -0.56668108285E-01  0.90844623195E-01  0.88688642115E+00  0.88000000000E+00 0.  1.
        -11    1    4    4    0    0 -0.31212591959E-01  0.57305051143E-01 -0.76036321820E-01  0.10019919231E+00  0.51100000000E-03 0. -1.
         11    1    4    4    0    0 -0.12447690073E-01  0.84920140952E-02 -0.29073810818E-01  0.32750677673E-01  0.51100000000E-03 0.  1.
</event>
<event>
 8    1  0.1150307E+005  0.1043930E+01  0.7957747E-01            NaN
         13   -1    0    0    0    0  0.00000000000E+00  0.00000000000E+00  0.74505805969E-08  0.10566000000E+00  0.10566000000E+00 0.  1.
     999900   -1    0    0    0    0 -0.00000000000E+00 -0.00000000000E+00 -0.74505805969E-08  0.93827000000E+00  0.93827000000E+00 0.  1.
     999902    2    1    2    0    0 -0.22529809673E-01  0.62558906380E-02  0.18921149719E-02  0.10204713429E+01  0.10202016728E+01 0.  0.
     999903    2    3    3    0    0  0.27250479441E-01  0.22179522653E-01  0.12409331331E+00  0.13049113411E+00  0.19856128018E-01 0.  0.
         14    1    1    2    0    0  0.22529809673E-01 -0.62558906380E-02 -0.18921149719E-02  0.23458657051E-01  0.00000000000E+00 0.  1.
     999901    1    3    3    0    0 -0.49780289115E-01 -0.15923632015E-01 -0.12220119834E+00  0.88998020883E+00  0.88000000000E+00 0.  1.
        -11    1    4    4    0    0 -0.32266379447E-03  0.96264108983E-02  0.22623615185E-01  0.24593921683E-01  0.51100000000E-03 0.  1.
         11    1    4    4    0    0  0.27573143236E-01  0.12553111755E-01  0.10146969812E+00  0.10589721243E+00  0.51100000000E-03 0. -1.
</event>
<event>
 8    1  0.1150307E+005  0.1043930E+01  0.7957747E-01            NaN
         13   -1    0    0    0    0  0.00000000000E+00  0.00000000000E+00  0.74505805969E-08  0.10566000000E+00  0.10566000000E+00 0.  1.
     999900   -1    0    0    0    0 -0.00000000000E+00 -0.00000000000E+00 -0.74505805969E-08  0.93827000000E+00  0.93827000000E+00 0. -1.
     999902    2    1    2    0    0  0.22525028561E-02  0.11940374786E-01  0.20645870685E-01  0.10199738255E+01  0.10196924568E+01 0.  0.
     999903    2    3    3    0    0  0.32627431924E-01 -0.11315679890E+00 -0.46197765071E-01  0.12809938884E+00  0.20154638965E-01 0.  0.
         14    1    1    2    0    0 -0.22525028561E-02 -0.11940374786E-01 -0.20645870685E-01  0.23956174475E-01  0.00000000000E+00 0. -1.
     999901    1    3    3    0    0 -0.30374929068E-01  0.12509717368E+00  0.66843635756E-01  0.89187443669E+00  0.88000000000E+00 0.  1.
        -11    1    4    4    0    0  0.18316786232E-01 -0.40254366903E-01 -0.25153348167E-01  0.50880946901E-01  0.51100000000E-03 0. -1.
         11    1    4    4    0    0  0.14310645692E-01 -0.72902431995E-01 -0.21044416904E-01  0.77218441934E-01  0.51100000000E-03 0.  1.
</event>
<event>
 8    1  0.1150307E+005  0.1043930E+01  0.7957747E-01            NaN
         13   -1    0    0    0    0  0.00000000000E+00  0.00000000000E+00  0.74505805969E-08  0.10566000000E+00  0.10566000000E+00 0.  1.
     999900   -1    0    0    0    0 -0.00000000000E+00 -0.00000000000E+00 -0.74505805969E-08  0.93827000000E+00  0.93827000000E+00 0. -1.
     999902    2    1    2    0    0 -0.17639328462E-01 -0.12827643635E-01  0.96462652378E-02  0.10200816293E+01  0.10198028171E+01 0.  0.
     999903    2    3    3    0    0  0.76275382023E-01 -0.10376428628E+00  0.46841117466E-02  0.13041086508E+00  0.20002295341E-01 0.  0.
         14    1    1    2    0    0  0.17639328462E-01  0.12827643635E-01 -0.96462652378E-02  0.23848370654E-01  0.00000000000E+00 0. -1.
     999901    1    3    3    0    0 -0.93914710485E-01  0.90936642643E-01  0.49621534912E-02  0.88967076426E+00  0.88000000000E+00 0. -1.
        -11    1    4    4    0    0  0.63787709272E-01 -0.74998260153E-01  0.84616744538E-02  0.98820402426E-01  0.51100000000E-03 0. -1.
         11    1    4    4    0    0  0.12487672751E-01 -0.28766026125E-01 -0.37775627071E-02  0.31590462655E-01  0.51100000000E-03 0.  1.
</event>
<event>
 8    1  0.1150307E+005  0.1043930E+01  0.7957747E-01            NaN
         13   -1    0    0    0    0  0.00000000000E+00  0.00000000000E+00  0.74505805969E-08  0.10566000000E+00  0.10566000000E+00 0. -1.
     999900   -1    0    0    0    0 -0.00000000000E+00 -0.00000000000E+00 -0.74505805969E-08  0.93827000000E+00  0.93827000000E+00 0. -1.
     999902    2    1    2    0    0  0.22409937295E-01  0.69610748484E-02  0.20463515949E-02  0.10203747584E+01  0.10201028370E+01 0.  0.
     999903    2    3    3    0    0  0.47494429576E-01 -0.12025978480E+00  0.12176116682E-02  0.13087205142E+00  0.20195905176E-01 0.  0.
         14    1    1    2    0    0 -0.22409937295E-01 -0.69610748484E-02 -0.20463515949E-02  0.23555241614E-01  0.00000000000E+00 0. -1.
     999901    1    3    3    0    0 -0.25084492280E-01  0.12722085965E+00  0.82873992661E-03  0.88950270696E+00  0.88000000000E+00 0.  1.
        -11    1    4    4    0    0  0.34162352776E-01 -0.59141126812E-01  0.13419091347E-02  0.68313988823E-01  0.51100000000E-03 0.  1.
         11    1    4    4    0    0  0.13332076800E-01 -0.61118657985E-01 -0.12429746642E-03  0.62558062602E-01  0.51100000000E-03 0. -1.
</event>
<event>
 8    1  0.1150307E+005  0.1043930E+01  0.7957747E-01            NaN
         13   -1    0    0    0    0  0.00000000000E+00  0.00000000000E+00  0.74505805969E-08  0.10566000000E+00  0.10566000000E+00 0. -1.
     999900   -1    0    0    0    0 -0.00000000000E+00 -0.00000000000E+00 -0.74505805969E-08  0.93827000000E+00  0.93827000000E+00 0.  1.
     999902    2    1    2    0    0  0.71029191087E-02  0.16915774202E-01  0.13989998209E-01  0.10208580489E+01  0.10205972963E+01 0.  0.
     999903    2    3    3    0    0 -0.61981705637E-03  0.96751892554E-01 -0.86843862047E-01  0.13147572741E+00  0.19562659226E-01 0.  0.
         14    1    1    2    0    0 -0.71029191087E-02 -0.16915774202E-01 -0.13989998209E-01  0.23071951080E-01  0.00000000000E+00 0.  1.
     999901    1    3    3    0    0  0.77227361651E-02 -0.79836118351E-01  0.10083386026E+00  0.88938232151E+00  0.88000000000E+00 0. -1.
        -11    1    4    4    0    0  0.64941037348E-02  0.12424274432E-01 -0.10854848019E-01  0.17737666842E-01  0.51100000000E-03 0.  1.
         11    1    4    4    0    0 -0.71139207912E-02  0.84327618122E-01 -0.75989014028E-01  0.11373806056E+00  0.51100000000E-03 0. -1.
</event>
<event>
 8    1  0.1150307E+005  0.1043930E+01  0.7957747E-01            NaN
         13   -1    0    0    0    0  0.00000000000E+00  0.00000000000E+00  0.74505805969E-08  0.10566000000E+00  0.10566000000E+00 0.  1.
     999900   -1    0    0    0    0 -0.00000000000E+00 -0.00000000000E+00 -0.74505805969E-08  0.93827000000E+00  0.93827000000E+00 0. -1.
     999902    2    1    2    0    0 -0.12636508159E-01 -0.54739390806E-02  0.16503019637E-01  0.10224359309E+01  0.10222099774E+01 0.  0.
     999903    2    3    3    0    0 -0.64454227222E-01 -0.11426667719E+00 -0.15819110350E-01  0.13363580945E+00  0.19926474655E-01 0.  0.
         14    1    1    2    0    0  0.12636508159E-01  0.54739390806E-02 -0.16503019637E-01  0.21494069057E-01  0.00000000000E+00 0.  1.
     999901    1    3    3    0    0  0.51817719063E-01  0.10879273811E+00  0.32322129986E-01  0.88880012149E+00  0.88000000000E+00 0.  1.
        -11    1    4    4    0    0 -0.39446697833E-01 -0.82059180446E-01 -0.38279114645E-02  0.91129935217E-01  0.51100000000E-03 0. -1.
         11    1    4    4    0    0 -0.25007529388E-01 -0.32207496747E-01 -0.11991198885E-01  0.42505874236E-01  0.51100000000E-03 0.  1.
</event>
<event>
 8    1  0.1150307E+005  0.1043930E+01  0.7957747E-01            NaN
         13   -1    0    0    0    0  0.00000000000E+00  0.00000000000E+00  0.74505805969E-08  0.10566000000E+00  0.10566000000E+00 0.  1.
     999900   -1    0    0    0    0 -0.00000000000E+00 -0.00000000000E+00 -0.74505805969E-08  0.93827000000E+00  0.93827000000E+00 0.  1.
     999902    2    1    2    0    0 -0.24895982470E-01  0.11601974301E-01  0.23139983188E-01  0.10080151761E+01  0.10073751639E+01 0.  0.
     999903    2    3    3    0    0  0.62740403517E-01  0.15825407195E-01  0.99533331944E-01  0.12035875766E+00  0.19812739124E-01 0.  0.
         14    1    1    2    0    0  0.24895982470E-01 -0.11601974301E-01 -0.23139983188E-01  0.35914823859E-01  0.00000000000E+00 0.  1.
     999901    1    3    3    0    0 -0.87636385987E-01 -0.42234328937E-02 -0.76393348756E-01  0.88765641848E+00  0.88000000000E+00 0.  1.
        -11    1    4    4    0    0  0.26872668935E-01  0.47058071719E-02  0.59549893670E-01  0.65503709162E-01  0.51100000000E-03 0.  1.
         11    1    4    4    0    0  0.35867734582E-01  0.11119600023E-01  0.39983438274E-01  0.54855048500E-01  0.51100000000E-03 0. -1.
</event>
<event>
 8    1  0.1150307E+005  0.1043930E+01  0.7957747E-01            NaN
         13   -1    0    0    0    0  0.00000000000E+00  0.00000000000E+00  0.74505805969E-08  0.10566000000E+00  0.10566000000E+00 0. -1.
     999900   -1    0    0    0    0 -0.00000000000E+00 -0.00000000000E+00 -0.74505805969E-08  0.93827000000E+00  0.93827000000E+00 0. -1.
     999902    2    1    2    0    0  0.11413415673E-01 -0.18963103556E-01  0.88635571055E-02  0.10200882719E+01  0.10198096168E+01 0.  0.
     999903    2    3    3    0    0  0.31451343444E-01  0.11433586211E+00  0.46468073805E-01  0.12903034311E+00  0.20680212586E-01 0.  0.
         14    1    1    2    0    0 -0.11413415673E-01  0.18963103556E-01 -0.88635571055E-02  0.23841728091E-01  0.00000000000E+00 0. -1.
     999901    1    3    3    0    0 -0.20037927771E-01 -0.13329896566E+00 -0.37604516699E-01  0.89105792880E+00  0.88000000000E+00 0. -1.
        -11    1    4    4    0    0 -0.19888404303E-02  0.23218955096E-01  0.93046768790E-02  0.25098077513E-01  0.51100000000E-03 0.  1.
         11    1    4    4    0    0  0.33440183874E-01  0.91116907010E-01  0.37163396926E-01  0.10393226560E+00  0.51100000000E-03 0. -1.
</event>
<event>
 8    1  0.1150307E+005  0.1043930E+01  0.7957747E-01            NaN
         13   -1    0    0    0    0  0.00000000000E+00  0.00000000000E+00  0.74505805969E-08  0.10566000000E+00  0.10566000000E+00 0. -1.
     999900   -1    0    0    0    0 -0.00000000000E+00 -0.00000000000E+00 -0.74505805969E-08  0.93827000000E+00  0.93827000000E+00 0. -1.
     999902    2    1    2    0    0  0.22613076763E-03 -0.10516899165E-01 -0.21382905629E-01  0.10200996631E+01  0.10198212773E+01 0.  0.
     999903    2    3    3    0    0 -0.21050528774E-01  0.30899273774E-01  0.12111954052E+00  0.12742114159E+00  0.12973601897E-01 0.  0.
         14    1    1    2    0    0 -0.22613076763E-03  0.10516899165E-01  0.21382905629E-01  0.23830336890E-01  0.00000000000E+00 0. -1.
     999901    1    3    3    0    0  0.21276659541E-01 -0.41416172939E-01 -0.14250244615E+00  0.89267852152E+00  0.88000000000E+00 0. -1.
        -11    1    4    4    0    0 -0.15961660074E-01  0.13515490580E-01  0.75186627297E-01  0.78043149111E-01  0.51100000000E-03 0. -1.
         11    1    4    4    0    0 -0.50888686998E-02  0.17383783194E-01  0.45932913227E-01  0.49377992480E-01  0.51100000000E-03 0.  1.
</event>
<event>
 8    1  0.1150307E+005  0.1043930E+01  0.7957747E-01            NaN
         13   -1    0    0    0    0  0.00000000000E+00  0.00000000000E+00  0.74505805969E-08  0.10566000000E+00  0.10566000000E+00 0.  1.
     999900   -1    0    0    0    0 -0.00000000000E+00 -0.00000000000E+00 -0.74505805969E-08  0.93827000000E+00  0.93827000000E+00 0. -1.
     999902    2    1    2    0    0  0.21277286750E-01 -0.43705873229E-02 -0.14295489196E-01  0.10179264238E+01  0.10175942306E+01 0.  0.
     999903    2    3    3    0    0  0.29858424912E-01 -0.10722438064E+00 -0.65165376540E-01  0.13043541866E+00  0.19449390727E-01 0.  0.
         14    1    1    2    0    0 -0.21277286750E-01  0.43705873229E-02  0.14295489196E-01  0.26003576222E-01  0.00000000000E+00 0.  1.
     999901    1    3    3    0    0 -0.85811381614E-02  0.10285379331E+00  0.50869887345E-01  0.88749100512E+00  0.88000000000E+00 0. -1.
        -11    1    4    4    0    0  0.13275725600E-01 -0.20720653251E-01 -0.18233645264E-01  0.30631965363E-01  0.51100000000E-03 0. -1.
         11    1    4    4    0    0  0.16582699312E-01 -0.86503727385E-01 -0.46931731276E-01  0.99803453295E-01  0.51100000000E-03 0.  1.
</event>
<event>
 8    1  0.1150307E+005  0.1043930E+01  0.7957747E-01            NaN
         13   -1    0    0    0    0  0.00000000000E+00  0.00000000000E+00  0.74505805969E-08  0.10566000000E+00  0.10566000000E+00 0.  1.
     999900   -1    0    0    0    0 -0.00000000000E+00 -0.00000000000E+00 -0.74505805969E-08  0.93827000000E+00  0.93827000000E+00 0. -1.
     999902    2    1    2    0    0  0.81579915533E-02  0.18467433995E-01 -0.59101576033E-02  0.10228936289E+01  0.10226772938E+01 0.  0.
     999903    2    3    3    0    0 -0.38686636774E-01 -0.10100027765E+00 -0.70982816105E-01  0.13120904109E+00  0.21898409283E-01 0.  0.
         14    1    1    2    0    0 -0.81579915533E-02 -0.18467433995E-01  0.59101576033E-02  0.21036371062E-01  0.00000000000E+00 0.  1.
     999901    1    3    3    0    0  0.46844628327E-01  0.11946771165E+00  0.65072658501E-01  0.89168458785E+00  0.88000000000E+00 0.  1.
        -11    1    4    4    0    0 -0.81343225559E-02 -0.51550914689E-01 -0.35126519402E-01  0.62911028405E-01  0.51100000000E-03 0. -1.
         11    1    4    4    0    0 -0.30552314218E-01 -0.49449362966E-01 -0.35856296702E-01  0.68298012680E-01  0.51100000000E-03 0.  1.
</event>
<event>
 8    1  0.1150307E+005  0.1043930E+01  0.7957747E-01            NaN
         13   -1    0    0    0    0  0.00000000000E+00  0.00000000000E+00  0.74505805969E-08  0.10566000000E+00  0.10566000000E+00 0. -1.
     999900   -1    0    0    0    0 -0.00000000000E+00 -0.00000000000E+00 -0.74505805969E-08  0.93827000000E+00  0.93827000000E+00 0.  1.
     999902    2    1    2    0    0 -0.59617291750E-02 -0.22981651312E-01  0.63572603108E-03  0.10201791546E+01  0.10199026447E+01 0.  0.
     999903    2    3    3    0    0 -0.33905490304E-01 -0.12137064708E+00 -0.38895642922E-01  0.13337366438E+00  0.19880821590E-01 0.  0.
         14    1    1    2    0    0  0.59617291750E-02  0.22981651312E-01 -0.63572603108E-03  0.23750845445E-01  0.00000000000E+00 0.  1.
     999901    1    3    3    0    0  0.27943761129E-01  0.98388995765E-01  0.39531368953E-01  0.88680549018E+00  0.88000000000E+00 0.  1.
        -11    1    4    4    0    0 -0.27593149930E-01 -0.78611900681E-01 -0.17460186599E-01  0.85125390388E-01  0.51100000000E-03 0. -1.
         11    1    4    4    0    0 -0.63123403739E-02 -0.42758746396E-01 -0.21435456322E-01  0.48248273991E-01  0.51100000000E-03 0.  1.
</event>
<event>
 8    1  0.1150307E+005  0.1043930E+01  0.7957747E-01            NaN
         13   -1    0    0    0    0  0.00000000000E+00  0.00000000000E+00  0.74505805969E-08  0.10566000000E+00  0.10566000000E+00 0. -1.
     999900   -1    0    0    0    0 -0.00000000000E+00 -0.00000000000E+00 -0.74505805969E-08  0.93827000000E+00  0.93827000000E+00 0.  1.
     999902    2    1    2    0    0 -0.14435095267E-01  0.18583025470E-01 -0.12631090824E-02  0.10203652752E+01  0.10200931323E+01 0.  0.
     999903    2    3    3    0    0  0.69348902925E-01 -0.59969170727E-01  0.87691509198E-01  0.12845545352E+00  0.20135316680E-01 0.  0.
         14    1    1    2    0    0  0.14435095267E-01 -0.18583025470E-01  0.12631090824E-02  0.23564724814E-01  0.00000000000E+00 0.  1.
     999901    1    3    3    0    0 -0.83783998192E-01  0.78552196196E-01 -0.88954618281E-01  0.89190982167E+00  0.88000000000E+00 0.  1.
        -11    1    4    4    0    0  0.16282184804E-01 -0.18613540167E-01  0.13049888534E-01  0.27966661068E-01  0.51100000000E-03 0. -1.
         11    1    4    4    0    0  0.53066718121E-01 -0.41355630560E-01  0.74641620665E-01  0.10048879245E+00  0.51100000000E-03 0.  1.
</event>
<event>
 8    1  0.1150307E+005  0.1043930E+01  0.7957747E-01            NaN
         13   -1    0    0    0    0  0.00000000000E+00  0.00000000000E+00  0.74505805969E-08  0.10566000000E+00  0.10566000000E+00 0.  1.
     999900   -1    0    0    0    0 -0.00000000000E+00 -0.00000000000E+00 -0.74505805969E-08  0.93827000000E+00  0.93827000000E+00 0. -1.
     999902    2    1    2    0    0  0.24381298738E-01 -0.12730107497E-01  0.57689657756E-02  0.10158268982E+01  0.10154380842E+01 0.  0.
     999903    2    3    3    0    0 -0.10270795616E+00 -0.65039766797E-01  0.21017519183E-01  0.12502922333E+00  0.20284847809E-01 0.  0.
         14    1    1    2    0    0 -0.24381298738E-01  0.12730107497E-01 -0.57689657756E-02  0.28103101807E-01  0.00000000000E+00 0. -1.
     999901    1    3    3    0    0  0.12708925489E+00  0.52309659299E-01 -0.15248553408E-01  0.89079767487E+00  0.88000000000E+00 0. -1.
        -11    1    4    4    0    0 -0.83855431860E-01 -0.48715285741E-01  0.24006791043E-01  0.99907455450E-01  0.51100000000E-03 0. -1.
         11    1    4    4    0    0 -0.18852524296E-01 -0.16324481056E-01 -0.29892718599E-02  0.25121767878E-01  0.51100000000E-03 0.  1.
</event>
<event>
 8    1  0.1150307E+005  0.1043930E+01  0.7957747E-01            NaN
         13   -1    0    0    0    0  0.00000000000E+00  0.00000000000E+00  0.74505805969E-08  0.10566000000E+00  0.10566000000E+00 0.  1.
     999900   -1    0    0    0    0 -0.00000000000E+00 -0.00000000000E+00 -0.74505805969E-08  0.93827000000E+00  0.93827000000E+00 0. -1.
     999902    2    1    2    0    0  0.14463536189E-01 -0.18120539498E-01  0.85504272393E-02  0.10192185120E+01  0.10189188965E+01 0.  0.
     999903    2    3    3    0    0  0.87114292776E-01 -0.94589660279E-01 -0.23564632316E-01  0.13233800380E+00  0.20541458452E-01 0.  0.
         14    1    1    2    0    0 -0.14463536189E-01  0.18120539498E-01 -0.85504272393E-02  0.24711487951E-01  0.00000000000E+00 0. -1.
     999901    1    3    3    0    0 -0.72650756588E-01  0.76469120781E-01  0.32115059556E-01  0.88688050825E+00  0.88000000000E+00 0. -1.
        -11    1    4    4    0    0  0.39170381377E-01 -0.49165451017E-01 -0.21297024833E-02  0.62899579526E-01  0.51100000000E-03 0.  1.
         11    1    4    4    0    0  0.47943911399E-01 -0.45424209262E-01 -0.21434929833E-01  0.69438424272E-01  0.51100000000E-03 0. -1.
</event>
<event>
 8    1  0.1150307E+005  0.1043930E+01  0.7957747E-01            NaN
         13   -1    0    0    0    0  0.00000000000E+00  0.00000000000E+00  0.74505805969E-08  0.10566000000E+00  0.10566000000E+00 0. -1.
     999900   -1    0    0    0    0 -0.00000000000E+00 -0.00000000000E+00 -0.74505805969E-08  0.93827000000E+00  0.93827000000E+00 0.  1.
     999902    2    1    2    0    0  0.99624520680E-02  0.17264140863E-01 -0.10981449396E-01  0.10211727321E+01  0.10209191229E+01 0.  0.
     999903    2    3    3    0    0  0.76741217502E-01 -0.92122609921E-01  0.46719102198E-01  0.13001942408E+00  0.18616831247E-01 0.  0.
         14    1    1    2    0    0 -0.99624520680E-02 -0.17264140863E-01  0.10981449396E-01  0.22757267889E-01  0.00000000000E+00 0. -1.
     999901    1    3    3    0    0 -0.66778765434E-01  0.10938675078E+00 -0.57700551593E-01  0.89115330803E+00  0.88000000000E+00 0.  1.
        -11    1    4    4    0    0  0.47121565701E-01 -0.50932692812E-01  0.35964783552E-01  0.78155664722E-01  0.51100000000E-03 0. -1.
         11    1    4    4    0    0  0.29619651801E-01 -0.41189917109E-01  0.10754318646E-01  0.51863759358E-01  0.51100000000E-03 0.  1.
</event>
<event>
 8    1  0.1150307E+005  0.1043930E+01  0.7957747E-01            NaN
         13   -1    0    0    0    0  0.00000000000E+00  0.00000000000E+00  0.74505805969E-08  0.10566000000E+00  0.10566000000E+00 0.  1.
     999900   -1    0    0    0    0 -0.00000000000E+00 -0.00000000000E+00 -0.74505805969E-08  0.93827000000E+00  0.93827000000E+00 0. -1.
     999902    2    1    2    0    0  0.18237870673E-01  0.12873641251E-03  0.59909044693E-02  0.10247329316E+01  0.10245530995E+01 0.  0.
     999903    2    3    3    0    0  0.69993421482E-01  0.11460265027E+00 -0.46979557801E-02  0.13574633678E+00  0.19291206822E-01 0.  0.
         14    1    1    2    0    0 -0.18237870673E-01 -0.12873641251E-03 -0.59909044693E-02  0.19197068425E-01  0.00000000000E+00 0.  1.
     999901    1    3    3    0    0 -0.51755550809E-01 -0.11447391386E+00  0.10688860249E-01  0.88898659480E+00  0.88000000000E+00 0. -1.
        -11    1    4    4    0    0  0.49647589790E-01  0.65587799771E-01 -0.74841585309E-02  0.82600946730E-01  0.51100000000E-03 0. -1.
         11    1    4    4    0    0  0.20345831692E-01  0.49014850499E-01  0.27862027508E-02  0.53145390049E-01  0.51100000000E-03 0.  1.
</event>
<event>
 8    1  0.1150307E+005  0.1043930E+01  0.7957747E-01            NaN
         13   -1    0    0    0    0  0.00000000000E+00  0.00000000000E+00  0.74505805969E-08  0.10566000000E+00  0.10566000000E+00 0. -1.
     999900   -1    0    0    0    0 -0.00000000000E+00 -0.00000000000E+00 -0.74505805969E-08  0.93827000000E+00  0.93827000000E+00 0. -1.
     999902    2    1    2    0    0 -0.78792100977E-02 -0.22005733932E-03  0.22169498356E-01  0.10204009321E+01  0.10201296218E+01 0.  0.
     999903    2    3    3    0    0 -0.12749298446E-01  0.51171181643E-01  0.12131222639E+00  0.13333044017E+00  0.16712736513E-01 0.  0.
         14    1    1    2    0    0  0.78792100977E-02  0.22005733932E-03 -0.22169498356E-01  0.23529067860E-01  0.00000000000E+00 0.  1.
     999901    1    3    3    0    0  0.48700883484E-02 -0.51391238982E-01 -0.99142728036E-01  0.88707049197E+00  0.88000000000E+00 0. -1.
        -11    1    4    4    0    0 -0.13175707496E-01  0.37329236785E-01  0.72688304102E-01  0.82770295767E-01  0.51100000000E-03 0.  1.
         11    1    4    4    0    0  0.42640905002E-03  0.13841944857E-01  0.48623922289E-01  0.50560144402E-01  0.51100000000E-03 0. -1.
</event>
<event>
 8    1  0.1150307E+005  0.1043930E+01  0.7957747E-01            NaN
         13   -1    0    0    0    0  0.00000000000E+00  0.00000000000E+00  0.74505805969E-08  0.10566000000E+00  0.10566000000E+00 0.  1.
     999900   -1    0    0    0    0 -0.00000000000E+00 -0.00000000000E+00 -0.74505805969E-08  0.93827000000E+00  0.93827000000E+00 0. -1.
     999902    2    1    2    0    0  0.15128987169E-01  0.70159821340E-03  0.17773853093E-01  0.10205785901E+01  0.10203114084E+01 0.  0.
     999903    2    3    3    0    0 -0.91894664998E-01 -0.55086594214E-01 -0.66312969988E-01  0.12836954596E+00  0.24539112147E-01 0.  0.
         14    1    1    2    0    0 -0.15128987169E-01 -0.70159821340E-03 -0.17773853093E-01  0.23351409948E-01  0.00000000000E+00 0. -1.
     999901    1    3    3    0    0  0.10702365217E+00  0.55788192427E-01  0.84086823081E-01  0.89220904409E+00  0.88000000000E+00 0.  1.
        -11    1    4    4    0    0 -0.43931197494E-01 -0.40491236667E-01 -0.34558299057E-01  0.69021935026E-01  0.51100000000E-03 0.  1.
         11    1    4    4    0    0 -0.47963467505E-01 -0.14595357546E-01 -0.31754670931E-01  0.59347610937E-01  0.51100000000E-03 0. -1.
</event>
<event>
 8    1  0.1150307E+005  0.1043930E+01  0.7957747E-01            NaN
         13   -1    0    0    0    0  0.00000000000E+00  0.00000000000E+00  0.74505805969E-08  0.10566000000E+00  0.10566000000E+00 0. -1.
     999900   -1    0    0    0    0 -0.00000000000E+00 -0.00000000000E+00 -0.74505805969E-08  0.93827000000E+00  0.93827000000E+00 0. -1.
     999902    2    1    2    0    0 -0.11522987280E-01 -0.15468462038E-01  0.13715848271E-01  0.10202619404E+01  0.10199873773E+01 0.  0.
     999903    2    3    3    0    0  0.84338725755E-01 -0.99129530548E-01 -0.57753576221E-02  0.13089781385E+00  0.12696394182E-01 0.  0.
         14    1    1    2    0    0  0.11522987280E-01  0.15468462038E-01 -0.13715848271E-01  0.23668059647E-01  0.00000000000E+00 0.  1.
     999901    1    3    3    0    0 -0.95861713035E-01  0.83661068510E-01  0.19491205893E-01  0.88936412651E+00  0.88000000000E+00 0.  1.
        -11    1    4    4    0    0  0.42257950888E-01 -0.46182999827E-01 -0.86883578600E-02  0.63200890576E-01  0.51100000000E-03 0.  1.
         11    1    4    4    0    0  0.42080774867E-01 -0.52946530721E-01  0.29130002379E-02  0.67696923270E-01  0.51100000000E-03 0. -1.
</event>
<event>
 8    1  0.1150307E+005  0.1043930E+01  0.7957747E-01            NaN
         13   -1    0    0    0    0  0.00000000000E+00  0.00000000000E+00  0.74505805969E-08  0.10566000000E+00  0.10566000000E+00 0. -1.
     999900   -1    0    0    0    0 -0.00000000000E+00 -0.00000000000E+00 -0.74505805969E-08  0.93827000000E+00  0.93827000000E+00 0. -1.
     999902    2    1    2    0    0 -0.16591362277E-01  0.14346945387E-01 -0.18464308669E-01  0.10152587803E+01  0.10148538575E+01 0.  0.
     999903    2    3    3    0    0 -0.14290560730E-01  0.86973707140E-01 -0.92285850169E-01  0.12918341094E+00  0.20075598633E-01 0.  0.
         14    1    1    2    0    0  0.16591362277E-01 -0.14346945387E-01  0.18464308669E-01  0.28671219695E-01  0.00000000000E+00 0. -1.
     999901    1    3    3    0    0 -0.23008015470E-02 -0.72626761753E-01  0.73821541499E-01  0.88607536937E+00  0.88000000000E+00 0.  1.
        -11    1    4    4    0    0 -0.18679180480E-01  0.54475564166E-01 -0.59668978181E-01  0.82928565361E-01  0.51100000000E-03 0.  1.
         11    1    4    4    0    0  0.43886197507E-02  0.32498142974E-01 -0.32616871988E-01  0.46254845577E-01  0.51100000000E-03 0. -1.
</event>
<event>
 8    1  0.1150307E+005  0.1043930E+01  0.7957747E-01            NaN
         13   -1    0    0    0    0  0.00000000000E+00  0.00000000000E+00  0.74505805969E-08  0.10566000000E+00  0.10566000000E+00 0. -1.
     999900   -1    0    0    0    0 -0.00000000000E+00 -0.00000000000E+00 -0.74505805969E-08  0.93827000000E+00  0.93827000000E+00 0. -1.
     999902    2    1    2    0    0 -0.12693128659E-01 -0.60072729802E-02 -0.20865943289E-01  0.10187786495E+01  0.10184681371E+01 0.  0.
     999903    2    3    3    0    0  0.91950546474E-01  0.85989153435E-01 -0.98183145300E-02  0.12774795903E+00  0.19341774233E-01 0.  0.
         14    1    1    2    0    0  0.12693128659E-01  0.60072729802E-02  0.20865943289E-01  0.25151350523E-01  0.00000000000E+00 0. -1.
     999901    1    3    3    0    0 -0.10464367513E+00 -0.91996426415E-01 -0.11047628759E-01  0.89103069045E+00  0.88000000000E+00 0. -1.
        -11    1    4    4    0    0  0.37454804277E-01  0.22760831146E-01 -0.14416976819E-02  0.43854958797E-01  0.51100000000E-03 0.  1.
         11    1    4    4    0    0  0.54495742198E-01  0.63228322289E-01 -0.83766168481E-02  0.83893000232E-01  0.51100000000E-03 0. -1.
</event>
<event>
 8    1  0.1150307E+005  0.1043930E+01  0.7957747E-01            NaN
         13   -1    0    0    0    0  0.00000000000E+00  0.00000000000E+00  0.74505805969E-08  0.10566000000E+00  0.10566000000E+00 0.  1.
     999900   -1    0    0    0    0 -0.00000000000E+00 -0.00000000000E+00 -0.74505805969E-08  0.93827000000E+00  0.93827000000E+00 0. -1.
     999902    2    1    2    0    0 -0.93511258380E-02  0.13754406646E-01 -0.16950969693E-01  0.10201821026E+01  0.10199056622E+01 0.  0.
     999903    2    3    3    0    0  0.10498052219E+00 -0.60262738339E-01  0.37088153941E-01  0.12806636440E+00  0.19312039161E-01 0.  0.
         14    1    1    2    0    0  0.93511258380E-02 -0.13754406646E-01  0.16950969693E-01  0.23747897384E-01  0.00000000000E+00 0.  1.
     999901    1    3    3    0    0 -0.11433164803E+00  0.74017144985E-01 -0.54039123633E-01  0.89211573822E+00  0.88000000000E+00 0. -1.
        -11    1    4    4    0    0  0.61477803596E-01 -0.34415419783E-01  0.11601153500E-01  0.71405807448E-01  0.51100000000E-03 0.  1.
         11    1    4    4    0    0  0.43502718592E-01 -0.25847318556E-01  0.25487000441E-01  0.56660556951E-01  0.51100000000E-03 0. -1.
</event>
<event>
 8    1  0.1150307E+005  0.1043930E+01  0.7957747E-01            NaN
         13   -1    0    0    0    0  0.00000000000E+00  0.00000000000E+00  0.74505805969E-08  0.10566000000E+00  0.10566000000E+00 0. -1.
     999900   -1    0    0    0    0 -0.00000000000E+00 -0.00000000000E+00 -0.74505805969E-08  0.93827000000E+00  0.93827000000E+00 0. -1.
     999902    2    1    2    0    0 -0.16163583353E-01 -0.88571559434E-02 -0.14921325963E-01  0.10202159407E+01  0.10199402968E+01 0.  0.
     999903    2    3    3    0    0 -0.76743119937E-01 -0.88971947722E-01  0.54612953799E-01  0.13177726746E+00  0.24024145297E-01 0.  0.
         14    1    1    2    0    0  0.16163583353E-01  0.88571559434E-02  0.14921325963E-01  0.23714059263E-01  0.00000000000E+00 0. -1.
     999901    1    3    3    0    0  0.60579536583E-01  0.80114791779E-01 -0.69534279762E-01  0.88843867328E+00  0.88000000000E+00 0. -1.
        -11    1    4    4    0    0 -0.60995094646E-01 -0.62631611098E-01  0.29987230720E-01  0.92426270112E-01  0.51100000000E-03 0. -1.
         11    1    4    4    0    0 -0.15748025291E-01 -0.26340336625E-01  0.24625723079E-01  0.39350997347E-01  0.51100000000E-03 0.  1.
</event>
<event>
 8    1  0.1150307E+005  0.1043930E+01  0.7957747E-01            NaN
         13   -1    0    0    0    0  0.00000000000E+00  0.00000000000E+00  0.74505805969E-08  0.10566000000E+00  0.10566000000E+00 0.  1.
     999900   -1    0    0    0    0 -0.00000000000E+00 -0.00000000000E+00 -0.74505805969E-08  0.93827000000E+00  0.93827000000E+00 0. -1.
     999902    2    1    2    0    0 -0.29117657916E-03 -0.19409359163E-01  0.12579268249E-01  0.10207989387E+01  0.10205368329E+01 0.  0.
     999903    2    3    3    0    0  0.28190446157E-01 -0.11720477080E+00  0.54530414590E-01  0.13393082898E+00  0.20790413237E-01 0.  0.
         14    1    1    2    0    0  0.29117657916E-03  0.19409359163E-01 -0.12579268249E-01  0.23131061294E-01  0.00000000000E+00 0. -1.
     999901    1    3    3    0    0 -0.28481622736E-01  0.97795411638E-01 -0.41951146341E-01  0.88686810973E+00  0.88000000000E+00 0.  1.
        -11    1    4    4    0    0  0.19252337397E-01 -0.56108376145E-01  0.17158311913E-01  0.61753308880E-01  0.51100000000E-03 0.  1.
         11    1    4    4    0    0  0.89381087603E-02 -0.61096394655E-01  0.37372102678E-01  0.72177520099E-01  0.51100000000E-03 0. -1.
</event>
<event>
 8    1  0.1150307E+005  0.1043930E+01  0.7957747E-01            NaN
         13   -1    0    0    0    0  0.00000000000E+00  0.00000000000E+00  0.74505805969E-08  0.10566000000E+00  0.10566000000E+00 0. -1.
     999900   -1    0    0    0    0 -0.00000000000E+00 -0.00000000000E+00 -0.74505805969E-08  0.93827000000E+00  0.93827000000E+00 0.  1.
     999902    2    1    2    0    0 -0.10850320938E-01 -0.54591051727E-02 -0.20345042914E-01  0.10202350203E+01  0.10199598249E+01 0.  0.
     999903    2    3    3    0    0 -0.97005703317E-01  0.71837126235E-01 -0.50056114497E-01  0.13215833152E+00  0.19736534918E-01 0.  0.
         14    1    1    2    0    0  0.10850320938E-01  0.54591051727E-02  0.20345042914E-01  0.23694979740E-01  0.00000000000E+00 0. -1.
     999901    1    3    3    0    0  0.86155382379E-01 -0.77296231408E-01  0.29711071584E-01  0.88807668874E+00  0.88000000000E+00 0. -1.
        -11    1    4    4    0    0 -0.69916612411E-01  0.44493780266E-01 -0.41672790077E-01  0.92762663433E-01  0.51100000000E-03 0.  1.
         11    1    4    4    0    0 -0.27089090906E-01  0.27343345970E-01 -0.83833244205E-02  0.39395668090E-01  0.51100000000E-03 0. -1.
</event>
<event>
 8    1  0.1150307E+005  0.1043930E+01  0.7957747E-01            NaN
         13   -1    0    0    0    0  0.00000000000E+00  0.00000000000E+00  0.74505805969E-08  0.10566000000E+00  0.10566000000E+00 0.  1.
     999900   -1    0    0    0    0 -0.00000000000E+00 -0.00000000000E+00 -0.74505805969E-08  0.93827000000E+00  0.93827000000E+00 0.  1.
     999902    2    1    2    0    0  0.88690960711E-02 -0.72496906034E-02 -0.46578122568E-02  0.10315641562E+01  0.10314900359E+01 0.  0.
     999903    2    3    3    0    0 -0.35098582541E-01  0.11810888935E+00 -0.62913152324E-01  0.13968882015E+00  0.19320494292E-01 0.  0.
         14    1    1    2    0    0 -0.88690960711E-02  0.72496906034E-02  0.46578122568E-02  0.12365843844E-01  0.00000000000E+00 0.  1.
     999901    1    3    3    0    0  0.43967678612E-01 -0.12535857995E+00  0.58255340067E-01  0.89187533601E+00  0.88000000000E+00 0. -1.
        -11    1    4    4    0    0 -0.13237656810E-01  0.75261241236E-01 -0.42399630086E-01  0.87392675567E-01  0.51100000000E-03 0. -1.
         11    1    4    4    0    0 -0.21860925731E-01  0.42847648113E-01 -0.20513522238E-01  0.52296144582E-01  0.51100000000E-03 0.  1.
</event>
<event>
 8    1  0.1150307E+005  0.1043930E+01  0.7957747E-01            NaN
         13   -1    0    0    0    0  0.00000000000E+00  0.00000000000E+00  0.74505805969E-08  0.10566000000E+00  0.10566000000E+00 0.  1.
     999900   -1    0    0    0    0 -0.00000000000E+00 -0.00000000000E+00 -0.74505805969E-08  0.93827000000E+00  0.93827000000E+00 0.  1.
     999902    2    1    2    0    0 -0.51536777762E-02 -0.14940213092E-01  0.17666870507E-01  0.10202258089E+01  0.10199503971E+01 0.  0.
     999903    2    3    3    0    0 -0.70578522492E-01 -0.89411982999E-01  0.66467923369E-01  0.13331657027E+00  0.19480568029E-01 0.  0.
         14    1    1    2    0    0  0.51536777762E-02  0.14940213092E-01 -0.17666870507E-01  0.23704191093E-01  0.00000000000E+00 0.  1.
     999901    1    3    3    0    0  0.65424844716E-01  0.74471769907E-01 -0.48801052862E-01  0.88690923864E+00  0.88000000000E+00 0.  1.
        -11    1    4    4    0    0 -0.10912351933E-01 -0.27336464950E-01  0.18126583657E-01  0.34571605353E-01  0.51100000000E-03 0. -1.
         11    1    4    4    0    0 -0.59666170559E-01 -0.62075518049E-01  0.48341339712E-01  0.98744964917E-01  0.51100000000E-03 0.  1.
</event>
<event>
 8    1  0.1150307E+005  0.1043930E+01  0.7957747E-01            NaN
         13   -1    0    0    0    0  0.00000000000E+00  0.00000000000E+00  0.74505805969E-08  0.10566000000E+00  0.10566000000E+00 0. -1.
     999900   -1    0    0    0    0 -0.00000000000E+00 -0.00000000000E+00 -0.74505805969E-08  0.93827000000E+00  0.93827000000E+00 0.  1.
     999902    2    1    2    0    0 -0.20842261343E-01 -0.85747930006E-02  0.43509342294E-02  0.10209766220E+01  0.10207185729E+01 0.  0.
     999903    2    3    3    0    0  0.99524517526E-01 -0.23175077631E-01  0.76886768935E-01  0.12970630550E+00  0.21678021967E-01 0.  0.
         14    1    1    2    0    0  0.20842261343E-01  0.85747930006E-02 -0.43509342294E-02  0.22953377999E-01  0.00000000000E+00 0. -1.
     999901    1    3    3    0    0 -0.12036677887E+00  0.14600284631E-01 -0.72535834705E-01  0.89127031650E+00  0.88000000000E+00 0.  1.
        -11    1    4    4    0    0  0.61190439957E-01 -0.93719538439E-02  0.34329208094E-01  0.70787421978E-01  0.51100000000E-03 0. -1.
         11    1    4    4    0    0  0.38334077569E-01 -0.13803123788E-01  0.42557560841E-01  0.58918883518E-01  0.51100000000E-03 0.  1.
</event>
<event>
 8    1  0.1150307E+005  0.1043930E+01  0.7957747E-01            NaN
         13   -1    0    0    0    0  0.00000000000E+00  0.00000000000E+00  0.74505805969E-08  0.10566000000E+00  0.10566000000E+00 0.  1.
     999900   -1    0    0    0    0 -0.00000000000E+00 -0.00000000000E+00 -0.74505805969E-08  0.93827000000E+00  0.93827000000E+00 0. -1.
     999902    2    1    2    0    0  0.13795241773E-01 -0.18692718473E-01 -0.74306876405E-02  0.10195385765E+01  0.10192467648E+01 0.  0.
     999903    2    3    3    0    0  0.33679335071E-01 -0.11842664091E+00  0.43824872747E-01  0.13220021666E+00  0.19927642268E-01 0.  0.
         14    1    1    2    0    0 -0.13795241773E-01  0.18692718473E-01  0.74306876405E-02  0.24391423458E-01  0.00000000000E+00 0. -1.
     999901    1    3    3    0    0 -0.19884093298E-01  0.99733922432E-01 -0.51255560388E-01  0.88733835988E+00  0.88000000000E+00 0. -1.
        -11    1    4    4    0    0 -0.25090622160E-02 -0.47264487233E-02  0.13293469598E-02  0.55374177265E-02  0.51100000000E-03 0. -1.
         11    1    4    4    0    0  0.36188397287E-01 -0.11370019218E+00  0.42495525788E-01  0.12666279893E+00  0.51100000000E-03 0.  1.
</event>
<event>
 8    1  0.1150307E+005  0.1043930E+01  0.7957747E-01            NaN
         13   -1    0    0    0    0  0.00000000000E+00  0.00000000000E+00  0.74505805969E-08  0.10566000000E+00  0.10566000000E+00 0.  1.
     999900   -1    0    0    0    0 -0.00000000000E+00 -0.00000000000E+00 -0.74505805969E-08  0.93827000000E+00  0.93827000000E+00 0.  1.
     999902    2    1    2    0    0 -0.19631989795E-01 -0.12722646436E-01 -0.41411158653E-02  0.10201722729E+01  0.10198956009E+01 0.  0.
     999903    2    3    3    0    0 -0.22018002914E-01  0.57447489182E-01  0.11247537075E+00  0.12970669472E+00  0.19700537189E-01 0.  0.
         14    1    1    2    0    0  0.19631989795E-01  0.12722646436E-01  0.41411158653E-02  0.23757727085E-01  0.00000000000E+00 0.  1.
     999901    1    3    3    0    0  0.23860131190E-02 -0.70170135618E-01 -0.11661648661E+00  0.89046557819E+00  0.88000000000E+00 0. -1.
        -11    1    4    4    0    0  0.23963906403E-02  0.15947290198E-01  0.22957503277E-01  0.28060057563E-01  0.51100000000E-03 0.  1.
         11    1    4    4    0    0 -0.24414393554E-01  0.41500198984E-01  0.89517867473E-01  0.10164663716E+00  0.51100000000E-03 0. -1.
</event>
<event>
 8    1  0.1150307E+005  0.1043930E+01  0.7957747E-01            NaN
         13   -1    0    0    0    0  0.00000000000E+00  0.00000000000E+00  0.74505805969E-08  0.10566000000E+00  0.10566000000E+00 0.  1.
     999900   -1    0    0    0    0 -0.00000000000E+00 -0.00000000000E+00 -0.74505805969E-08  0.93827000000E+00  0.93827000000E+00 0. -1.
     999902    2    1    2    0    0  0.20327802748E-01 -0.84455784324E-02 -0.93216647277E-02  0.10200251722E+01  0.10197450226E+01 0.  0.
     999903    2    3    3    0    0 -0.60659502099E-01 -0.11063677003E-01 -0.11297828483E+00  0.13024402332E+00  0.19935712240E-01 0.  0.
         14    1    1    2    0    0 -0.20327802748E-01  0.84455784324E-02  0.93216647277E-02  0.23904827816E-01  0.00000000000E+00 0.  1.
     999901    1    3    3    0    0  0.80987304847E-01  0.26180985702E-02  0.10365662010E+00  0.88978114887E+00  0.88000000000E+00 0.  1.
        -11    1    4    4    0    0 -0.41731158048E-01 -0.15250636791E-01 -0.88377712451E-01  0.98918919593E-01  0.51100000000E-03 0. -1.
         11    1    4    4    0    0 -0.18928344051E-01  0.41869597889E-02 -0.24600572382E-01  0.31325103724E-01  0.51100000000E-03 0.  1.
</event>
<event>
 8    1  0.1150307E+005  0.1043930E+01  0.7957747E-01            NaN
         13   -1    0    0    0    0  0.00000000000E+00  0.00000000000E+00  0.74505805969E-08  0.10566000000E+00  0.10566000000E+00 0. -1.
     999900   -1    0    0    0    0 -0.00000000000E+00 -0.00000000000E+00 -0.74505805969E-08  0.93827000000E+00  0.93827000000E+00 0.  1.
     999902    2    1    2    0    0  0.21270593552E-01 -0.15166358823E-02  0.76552767520E-02  0.10212729570E+01  0.10210216017E+01 0.  0.
     999903    2    3    3    0    0 -0.14678167689E-01 -0.22325808844E-01  0.12789371679E+00  0.13212582770E+00  0.19660651192E-01 0.  0.
         14    1    1    2    0    0 -0.21270593552E-01  0.15166358823E-02 -0.76552767520E-02  0.22657042980E-01  0.00000000000E+00 0.  1.
     999901    1    3    3    0    0  0.35948761240E-01  0.20809172962E-01 -0.12023844003E+00  0.88914712932E+00  0.88000000000E+00 0.  1.
        -11    1    4    4    0    0  0.67013679433E-03 -0.49835005114E-02  0.63348292082E-01  0.63549599459E-01  0.51100000000E-03 0. -1.
         11    1    4    4    0    0 -0.15348304483E-01 -0.17342308333E-01  0.64545424704E-01  0.68576228242E-01  0.51100000000E-03 0.  1.
</event>
<event>
 8    1  0.1150307E+005  0.1043930E+01  0.7957747E-01            NaN
         13   -1    0    0    0    0  0.00000000000E+00  0.00000000000E+00  0.74505805969E-08  0.10566000000E+00  0.10566000000E+00 0.  1.
     999900   -1    0    0    0    0 -0.00000000000E+00 -0.00000000000E+00 -0.74505805969E-08  0.93827000000E+00  0.93827000000E+00 0. -1.
     999902    2    1    2    0    0  0.35216723040E-02 -0.22474572231E-01 -0.68733815527E-02  0.10201654898E+01  0.10198886579E+01 0.  0.
     999903    2    3    3    0    0  0.12210748834E+00  0.24574067971E-01  0.32045528122E-01  0.13011445087E+00  0.19716260451E-01 0.  0.
         14    1    1    2    0    0 -0.35216723040E-02  0.22474572231E-01  0.68733815527E-02  0.23764510236E-01  0.00000000000E+00 0.  1.
     999901    1    3    3    0    0 -0.11858581604E+00 -0.47048640202E-01 -0.38918909674E-01  0.89005103890E+00  0.88000000000E+00 0. -1.
        -11    1    4    4    0    0  0.10817795482E+00  0.27959628066E-01  0.27516623889E-01  0.11507230953E+00  0.51100000000E-03 0. -1.
         11    1    4    4    0    0  0.13929533526E-01 -0.33855600956E-02  0.45289042326E-02  0.15042141335E-01  0.51100000000E-03 0.  1.
</event>
<event>
 8    1  0.1150307E+005  0.1043930E+01  0.7957747E-01            NaN
         13   -1    0    0    0    0  0.00000000000E+00  0.00000000000E+00  0.74505805969E-08  0.10566000000E+00  0.10566000000E+00 0. -1.
     999900   -1    0    0    0    0 -0.00000000000E+00 -0.00000000000E+00 -0.74505805969E-08  0.93827000000E+00  0.93827000000E+00 0.  1.
     999902    2    1    2    0    0  0.31228502533E-02 -0.21196723391E-01 -0.82422104952E-02  0.10209737958E+01  0.10207156825E+01 0.  0.
     999903    2    3    3    0    0 -0.11776701022E+00  0.44362204868E-01  0.23937956380E-01  0.12971182840E+00  0.20372990804E-01 0.  0.
         14    1    1    2    0    0 -0.31228502533E-02  0.21196723391E-01  0.82422104952E-02  0.22956204174E-01  0.00000000000E+00 0. -1.
     999901    1    3    3    0    0  0.12088986047E+00 -0.65558928259E-01 -0.32180166876E-01  0.89126196743E+00  0.88000000000E+00 0. -1.
        -11    1    4    4    0    0 -0.69079660549E-01  0.15335933861E-01  0.14801218681E-01  0.72294727086E-01  0.51100000000E-03 0.  1.
         11    1    4    4    0    0 -0.48687349671E-01  0.29026271007E-01  0.91367376992E-02  0.57417101314E-01  0.51100000000E-03 0. -1.
</event>
<event>
 8    1  0.1150307E+005  0.1043930E+01  0.7957747E-01            NaN
         13   -1    0    0    0    0  0.00000000000E+00  0.00000000000E+00  0.74505805969E-08  0.10566000000E+00  0.10566000000E+00 0.  1.
     999900   -1    0    0    0    0 -0.00000000000E+00 -0.00000000000E+00 -0.74505805969E-08  0.93827000000E+00  0.93827000000E+00 0.  1.
     999902    2    1    2    0    0 -0.21814656726E-01 -0.84986799239E-02  0.47625176140E-02  0.10200388221E+01  0.10197589961E+01 0.  0.
     999903    2    3    3    0    0  0.77268954907E-01 -0.28803003613E-01  0.97882080791E-01  0.12936431324E+00  0.18818060189E-01 0.  0.
         14    1    1    2    0    0  0.21814656726E-01  0.84986799239E-02 -0.47625176140E-02  0.23891177923E-01  0.00000000000E+00 0. -1.
     999901    1    3    3    0    0 -0.99083611633E-01  0.20304323689E-01 -0.93119563177E-01  0.89067450884E+00  0.88000000000E+00 0.  1.
        -11    1    4    4    0    0  0.29585704898E-01 -0.14879592362E-02  0.34328870607E-01  0.45346007930E-01  0.51100000000E-03 0.  1.
         11    1    4    4    0    0  0.47683250009E-01 -0.27315044377E-01  0.63553210184E-01  0.84018305306E-01  0.51100000000E-03 0. -1.
</event>
<event>
 8    1  0.1150307E+005  0.1043930E+01  0.7957747E-01            NaN
         13   -1    0    0    0    0  0.00000000000E+00  0.00000000000E+00  0.74505805969E-08  0.10566000000E+00  0.10566000000E+00 0. -1.
     999900   -1    0    0    0    0 -0.00000000000E+00 -0.00000000000E+00 -0.74505805969E-08  0.93827000000E+00  0.93827000000E+00 0.  1.
     999902    2    1    2    0    0  0.86749015028E-02  0.65188393771E-02 -0.18802860801E-01  0.10222206297E+01  0.10219900778E+01 0.  0.
     999903    2    3    3    0    0 -0.22451572709E-01 -0.19747450242E-01 -0.12944466354E+00  0.13435781157E+00  0.20051576089E-01 0.  0.
         14    1    1    2    0    0 -0.86749015028E-02 -0.65188393771E-02  0.18802860801E-01  0.21709370263E-01  0.00000000000E+00 0. -1.
     999901    1    3    3    0    0  0.31126474211E-01  0.26266289620E-01  0.11064180274E+00  0.88786281817E+00  0.88000000000E+00 0. -1.
        -11    1    4    4    0    0 -0.46869596581E-02 -0.14604914182E-01 -0.36594493743E-01  0.39682353791E-01  0.51100000000E-03 0. -1.
         11    1    4    4    0    0 -0.17764613050E-01 -0.51425360605E-02 -0.92850169796E-01  0.94675457781E-01  0.51100000000E-03 0.  1.
</event>
<event>
 8    1  0.1150307E+005  0.1043930E+01  0.7957747E-01            NaN
         13   -1    0    0    0    0  0.00000000000E+00  0.00000000000E+00  0.74505805969E-08  0.10566000000E+00  0.10566000000E+00 0.  1.
     999900   -1    0    0    0    0 -0.00000000000E+00 -0.00000000000E+00 -0.74505805969E-08  0.93827000000E+00  0.93827000000E+00 0.  1.
     999902    2    1    2    0    0  0.17917002031E-01 -0.12304685800E-01  0.89667030417E-02  0.10204177475E+01  0.10201468293E+01 0.  0.
     999903    2    3    3    0    0 -0.53787109153E-02  0.12739826542E+00  0.26723639558E-02  0.12907088823E+00  0.19821808569E-01 0.  0.
         14    1    1    2    0    0 -0.17917002031E-01  0.12304685800E-01 -0.89667030417E-02  0.23512252505E-01  0.00000000000E+00 0. -1.
     999901    1    3    3    0    0  0.23295712947E-01 -0.13970295122E+00  0.62943390859E-02  0.89134685927E+00  0.88000000000E+00 0. -1.
        -11    1    4    4    0    0 -0.11189852948E-02  0.65629902988E-01 -0.83827456681E-02  0.66174525614E-01  0.51100000000E-03 0.  1.
         11    1    4    4    0    0 -0.42597256205E-02  0.61768362434E-01  0.11055109624E-01  0.62896362613E-01  0.51100000000E-03 0. -1.
</event>
<event>
 8    1  0.1150307E+005  0.1043930E+01  0.7957747E-01            NaN
         13   -1    0    0    0    0  0.00000000000E+00  0.00000000000E+00  0.74505805969E-08  0.10566000000E+00  0.10566000000E+00 0. -1.
     999900   -1    0    0    0    0 -0.00000000000E+00 -0.00000000000E+00 -0.74505805969E-08  0.93827000000E+00  0.93827000000E+00 0. -1.
     999902    2    1    2    0    0  0.14069133950E-02 -0.18253352866E-01 -0.15902512739E-01  0.10196801710E+01  0.10193917779E+01 0.  0.
     999903    2    3    3    0    0  0.14253100626E-01  0.87386646645E-01 -0.92911134242E-01  0.12993011517E+00  0.20243000597E-01 0.  0.
         14    1    1    2    0    0 -0.14069133950E-02  0.18253352866E-01  0.15902512739E-01  0.24249829021E-01  0.00000000000E+00 0. -1.
     999901    1    3    3    0    0 -0.12846187231E-01 -0.10563999951E+00  0.77008621503E-01  0.88975005581E+00  0.88000000000E+00 0. -1.
        -11    1    4    4    0    0  0.13461617557E-01  0.24736182531E-01 -0.28429901367E-01  0.40020173490E-01  0.51100000000E-03 0.  1.
         11    1    4    4    0    0  0.79148306930E-03  0.62650464114E-01 -0.64481232875E-01  0.89909941681E-01  0.51100000000E-03 0. -1.
</event>
<event>
 8    1  0.1150307E+005  0.1043930E+01  0.7957747E-01            NaN
         13   -1    0    0    0    0  0.00000000000E+00  0.00000000000E+00  0.74505805969E-08  0.10566000000E+00  0.10566000000E+00 0. -1.
     999900   -1    0    0    0    0 -0.00000000000E+00 -0.00000000000E+00 -0.74505805969E-08  0.93827000000E+00  0.93827000000E+00 0.  1.
     999902    2    1    2    0    0  0.70136786452E-02 -0.22290692490E-01 -0.46751963555E-02  0.10200988414E+01  0.10198204362E+01 0.  0.
     999903    2    3    3    0    0 -0.95978065666E-01 -0.53834425183E-01 -0.68448111345E-01  0.13124042119E+00  0.20711585748E-01 0.  0.
         14    1    1    2    0    0 -0.70136786452E-02  0.22290692490E-01  0.46751963555E-02  0.23831158612E-01  0.00000000000E+00 0.  1.
     999901    1    3    3    0    0  0.10299174431E+00  0.31543732693E-01  0.63772914989E-01  0.88885842020E+00  0.88000000000E+00 0. -1.
        -11    1    4    4    0    0 -0.41886229762E-01 -0.14492408471E-01 -0.19880176051E-01  0.48579508723E-01  0.51100000000E-03 0. -1.
         11    1    4    4    0    0 -0.54091835904E-01 -0.39342016712E-01 -0.48567935294E-01  0.82660912468E-01  0.51100000000E-03 0.  1.
</event>
<event>
 8    1  0.1150307E+005  0.1043930E+01  0.7957747E-01            NaN
         13   -1    0    0    0    0  0.00000000000E+00  0.00000000000E+00  0.74505805969E-08  0.10566000000E+00  0.10566000000E+00 0.  1.
     999900   -1    0    0    0    0 -0.00000000000E+00 -0.00000000000E+00 -0.74505805969E-08  0.93827000000E+00  0.93827000000E+00 0. -1.
     999902    2    1    2    0    0  0.74553950140E-02  0.24222489615E-01  0.18618040264E-01  0.10124825304E+01  0.10119940371E+01 0.  0.
     999903    2    3    3    0    0 -0.77895687746E-01  0.74566976129E-01  0.59674168667E-01  0.12596971028E+00  0.26065099313E-01 0.  0.
         14    1    1    2    0    0 -0.74553950140E-02 -0.24222489615E-01 -0.18618040264E-01  0.31447469552E-01  0.00000000000E+00 0. -1.
     999901    1    3    3    0    0  0.85351082760E-01 -0.50344486514E-01 -0.41056128403E-01  0.88651282017E+00  0.88000000000E+00 0.  1.
        -11    1    4    4    0    0 -0.35716859616E-02  0.68609946420E-02 -0.20185428769E-02  0.80103573223E-02  0.51100000000E-03 0. -1.
         11    1    4    4    0    0 -0.74324001785E-01  0.67705981487E-01  0.61692711544E-01  0.11795935295E+00  0.51100000000E-03 0.  1.
</event>
<event>
 8    1  0.1150307E+005  0.1043930E+01  0.7957747E-01            NaN
         13   -1    0    0    0    0  0.00000000000E+00  0.00000000000E+00  0.74505805969E-08  0.10566000000E+00  0.10566000000E+00 0. -1.
     999900   -1    0    0    0    0 -0.00000000000E+00 -0.00000000000E+00 -0.74505805969E-08  0.93827000000E+00  0.93827000000E+00 0. -1.
     999902    2    1    2    0    0 -0.21336027437E-01 -0.13327554540E-01 -0.96013126456E-02  0.10170035264E+01  0.10166470074E+01 0.  0.
     999903    2    3    3    0    0 -0.10569111293E+00 -0.74312487188E-01 -0.54564563943E-02  0.13085899963E+00  0.20033665770E-01 0.  0.
         14    1    1    2    0    0  0.21336027437E-01  0.13327554540E-01  0.96013126456E-02  0.26926473615E-01  0.00000000000E+00 0.  1.
     999901    1    3    3    0    0  0.84355085492E-01  0.60984932648E-01 -0.41448562513E-02  0.88614452675E+00  0.88000000000E+00 0. -1.
        -11    1    4    4    0    0 -0.69789220070E-01 -0.47070818849E-01  0.58761993983E-02  0.84385947085E-01  0.51100000000E-03 0.  1.
         11    1    4    4    0    0 -0.35901892860E-01 -0.27241668340E-01 -0.11332655793E-01  0.46473052549E-01  0.51100000000E-03 0. -1.
</event>
<event>
 8    1  0.1150307E+005  0.1043930E+01  0.7957747E-01            NaN
         13   -1    0    0    0    0  0.00000000000E+00  0.00000000000E+00  0.74505805969E-08  0.10566000000E+00  0.10566000000E+00 0.  1.
     999900   -1    0    0    0    0 -0.00000000000E+00 -0.00000000000E+00 -0.74505805969E-08  0.93827000000E+00  0.93827000000E+00 0. -1.
     999902    2    1    2    0    0  0.11014024082E-01 -0.15572290212E-01  0.13579538047E-01  0.10205161408E+01  0.10202475116E+01 0.  0.
     999903    2    3    3    0    0 -0.37566095307E-01 -0.54928259442E-01 -0.10959645101E+00  0.12974049868E+00  0.19821446016E-01 0.  0.
         14    1    1    2    0    0 -0.11014024082E-01  0.15572290212E-01 -0.13579538047E-01  0.23413859197E-01  0.00000000000E+00 0. -1.
     999901    1    3    3    0    0  0.48580119390E-01  0.39355969230E-01  0.12317598906E+00  0.89077564212E+00  0.88000000000E+00 0.  1.
        -11    1    4    4    0    0 -0.23448823690E-02 -0.73462143430E-02 -0.27229598746E-01  0.28305079180E-01  0.51100000000E-03 0.  1.
         11    1    4    4    0    0 -0.35221212938E-01 -0.47582045099E-01 -0.82366852265E-01  0.10143541950E+00  0.51100000000E-03 0. -1.
</event>
<event>
 8    1  0.1150307E+005  0.1043930E+01  0.7957747E-01            NaN
         13   -1    0    0    0    0  0.00000000000E+00  0.00000000000E+00  0.74505805969E-08  0.10566000000E+00  0.10566000000E+00 0.  1.
     999900   -1    0    0    0    0 -0.00000000000E+00 -0.00000000000E+00 -0.74505805969E-08  0.93827000000E+00  0.93827000000E+00 0.  1.
     999902    2    1    2    0    0  0.44355542443E-03 -0.15657524180E-01  0.17813387796E-01  0.10202093004E+01  0.10199335003E+01 0.  0.
     999903    2    3    3    0    0 -0.71550991132E-01 -0.19511631387E-01 -0.10353204447E+00  0.12896142084E+00  0.20295707486E-01 0.  0.
         14    1    1    2    0    0 -0.44355542443E-03  0.15657524180E-01 -0.17813387796E-01  0.23720699602E-01  0.00000000000E+00 0. -1.
     999901    1    3    3    0    0  0.71994546556E-01  0.38541072075E-02  0.12134543227E+00  0.89124787955E+00  0.88000000000E+00 0. -1.
        -11    1    4    4    0    0 -0.40204557544E-01 -0.21247746443E-01 -0.62503329645E-01  0.77296833790E-01  0.51100000000E-03 0.  1.
         11    1    4    4    0    0 -0.31346433588E-01  0.17361150564E-02 -0.41028714827E-01  0.51664587054E-01  0.51100000000E-03 0. -1.
</event>
<event>
 8    1  0.1150307E+005  0.1043930E+01  0.7957747E-01            NaN
         13   -1    0    0    0    0  0.00000000000E+00  0.00000000000E+00  0.74505805969E-08  0.10566000000E+00  0.10566000000E+00 0.  1.
     999900   -1    0    0    0    0 -0.00000000000E+00 -0.00000000000E+00 -0.74505805969E-08  0.93827000000E+00  0.93827000000E+00 0.  1.
     999902    2    1    2    0    0  0.13444787436E-01 -0.36579977021E-03  0.19877614959E-01  0.10199296730E+01  0.10196472538E+01 0.  0.
     999903    2    3    3    0    0 -0.11644143457E+00 -0.67313043064E-03  0.53696542444E-01  0.12975314841E+00  0.19836835991E-01 0.  0.
         14    1    1    2    0    0 -0.13444787436E-01  0.36579977021E-03 -0.19877614959E-01  0.24000326979E-01  0.00000000000E+00 0. -1.
     999901    1    3    3    0    0  0.12988622200E+00  0.30733066043E-03 -0.33818927485E-01  0.89017652461E+00  0.88000000000E+00 0.  1.
        -11    1    4    4    0    0 -0.83259822387E-01 -0.34434171635E-02  0.47374118530E-01  0.95857307354E-01  0.51100000000E-03 0. -1.
         11    1    4    4    0    0 -0.33181612180E-01  0.27702867329E-02  0.63224239143E-02  0.33895841052E-01  0.51100000000E-03 0.  1.
</event>
<event>
 8    1  0.1150307E+005  0.1043930E+01  0.7957747E-01            NaN
         13   -1    0    0    0    0  0.00000000000E+00  0.00000000000E+00  0.74505805969E-08  0.10566000000E+00  0.10566000000E+00 0. -1.
     999900   -1    0    0    0    0 -0.00000000000E+00 -0.00000000000E+00 -0.74505805969E-08  0.93827000000E+00  0.93827000000E+00 0. -1.
     999902    2    1    2    0    0  0.94379653634E-02 -0.21339558662E-01  0.33493903187E-02  0.10203573385E+01  0.10200850101E+01 0.  0.
     999903    2    3    3    0    0  0.65214164784E-01  0.15893148632E-01  0.11104783505E+00  0.13125879847E+00  0.19793206982E-01 0.  0.
         14    1    1    2    0    0 -0.94379653634E-02  0.21339558662E-01 -0.33493903187E-02  0.23572661487E-01  0.00000000000E+00 0. -1.
     999901    1    3    3    0    0 -0.55776199421E-01 -0.37232707294E-01 -0.10769844474E+00  0.88909854005E+00  0.88000000000E+00 0. -1.
        -11    1    4    4    0    0  0.21858787214E-01 -0.40696122970E-02  0.34443650234E-01  0.40999932746E-01  0.51100000000E-03 0.  1.
         11    1    4    4    0    0  0.43355377570E-01  0.19962760929E-01  0.76604184820E-01  0.90258865720E-01  0.51100000000E-03 0. -1.
</event>
<event>
 8    1  0.1150307E+005  0.1043930E+01  0.7957747E-01            NaN
         13   -1    0    0    0    0  0.00000000000E+00  0.00000000000E+00  0.74505805969E-08  0.10566000000E+00  0.10566000000E+00 0. -1.
     999900   -1    0    0    0    0 -0.00000000000E+00 -0.00000000000E+00 -0.74505805969E-08  0.93827000000E+00  0.93827000000E+00 0.  1.
     999902    2    1    2    0    0 -0.94084218735E-03  0.65193875002E-02  0.22774940871E-01  0.10202216570E+01  0.10199461475E+01 0.  0.
     999903    2    3    3    0    0  0.79855838604E-01 -0.10862668790E-01  0.10344306018E+00  0.13267583563E+00  0.20185592088E-01 0.  0.
         14    1    1    2    0    0  0.94084218735E-03 -0.65193875002E-02 -0.22774940871E-01  0.23708343027E-01  0.00000000000E+00 0.  1.
     999901    1    3    3    0    0 -0.80796680792E-01  0.17382056290E-01 -0.80668119313E-01  0.88754582134E+00  0.88000000000E+00 0.  1.
        -11    1    4    4    0    0  0.63039247828E-01 -0.16691724017E-02  0.86780553002E-01  0.10727468669E+00  0.51100000000E-03 0.  1.
         11    1    4    4    0    0  0.16816590776E-01 -0.91934963886E-02  0.16662507182E-01  0.25401148946E-01  0.51100000000E-03 0. -1.
</event>
<event>
 8    1  0.1150307E+005  0.1043930E+01  0.7957747E-01            NaN
         13   -1    0    0    0    0  0.00000000000E+00  0.00000000000E+00  0.74505805969E-08  0.10566000000E+00  0.10566000000E+00 0.  1.
     999900   -1    0    0    0    0 -0.00000000000E+00 -0.00000000000E+00 -0.74505805969E-08  0.93827000000E+00  0.93827000000E+00 0.  1.
     999902    2    1    2    0    0  0.87561064547E-02 -0.20224936580E-01  0.95535601204E-02  0.10199094261E+01  0.10196265245E+01 0.  0.
     999903    2    3    3    0    0  0.35816032185E-02  0.72698629994E-01 -0.10337796451E+00  0.12782473619E+00  0.18821289821E-01 0.  0.
         14    1    1    2    0    0 -0.87561064547E-02  0.20224936580E-01 -0.95535601204E-02  0.24020573908E-01  0.00000000000E+00 0. -1.
     999901    1    3    3    0    0  0.51745032362E-02 -0.92923566574E-01  0.11293152463E+00  0.89208468991E+00  0.88000000000E+00 0. -1.
        -11    1    4    4    0    0  0.51625676937E-02  0.16653625817E-01 -0.37208254592E-01  0.41093925206E-01  0.51100000000E-03 0. -1.
         11    1    4    4    0    0 -0.15809644752E-02  0.56045004177E-01 -0.66169709917E-01  0.86730810980E-01  0.51100000000E-03 0.  1.
</event>
<event>
 8    1  0.1150307E+005  0.1043930E+01  0.7957747E-01            NaN
         13   -1    0    0    0    0  0.00000000000E+00  0.00000000000E+00  0.74505805969E-08  0.10566000000E+00  0.10566000000E+00 0. -1.
     999900   -1    0    0    0    0 -0.00000000000E+00 -0.00000000000E+00 -0.74505805969E-08  0.93827000000E+00  0.93827000000E+00 0.  1.
     999902    2    1    2    0    0  0.42046622527E-02  0.16987178627E-01  0.15624764179E-01  0.10204698918E+01  0.10202001879E+01 0.  0.
     999903    2    3    3    0    0 -0.10773265228E+00 -0.39527707293E-01  0.58876944936E-01  0.13052908146E+00  0.20064457443E-01 0.  0.
         14    1    1    2    0    0 -0.42046622527E-02 -0.16987178627E-01 -0.15624764179E-01  0.23460108227E-01  0.00000000000E+00 0.  1.
     999901    1    3    3    0    0  0.11193731453E+00  0.56514885919E-01 -0.43252180757E-01  0.88994081031E+00  0.88000000000E+00 0. -1.
        -11    1    4    4    0    0 -0.31981035727E-01 -0.43512125981E-02  0.10177558829E-01  0.33846174406E-01  0.51100000000E-03 0.  1.
         11    1    4    4    0    0 -0.75751616550E-01 -0.35176494695E-01  0.48699386107E-01  0.96682907057E-01  0.51100000000E-03 0. -1.
</event>
<event>
 8    1  0.1150307E+005  0.1043930E+01  0.7957747E-01            NaN
         13   -1    0    0    0    0  0.00000000000E+00  0.00000000000E+00  0.74505805969E-08  0.10566000000E+00  0.10566000000E+00 0. -1.
     999900   -1    0    0    0    0 -0.00000000000E+00 -0.00000000000E+00 -0.74505805969E-08  0.93827000000E+00  0.93827000000E+00 0. -1.
     999902    2    1    2    0    0 -0.96624603948E-02 -0.19559880076E-01 -0.68687451713E-02  0.10210579273E+01  0.10208017237E+01 0.  0.
     999903    2    3    3    0    0  0.24990924224E-01 -0.84942586722E-01 -0.97555612796E-01  0.13330803946E+00  0.20350588796E-01 0.  0.
         14    1    1    2    0    0  0.96624603948E-02  0.19559880076E-01  0.68687451713E-02  0.22872072702E-01  0.00000000000E+00 0. -1.
     999901    1    3    3    0    0 -0.34653384619E-01  0.65382706646E-01  0.90686867625E-01  0.88774988784E+00  0.88000000000E+00 0.  1.
        -11    1    4    4    0    0  0.21163893930E-01 -0.36286016249E-01 -0.43376136010E-01  0.60384896105E-01  0.51100000000E-03 0. -1.
         11    1    4    4    0    0  0.38270302945E-02 -0.48656570473E-01 -0.54179476787E-01  0.72923143356E-01  0.51100000000E-03 0.  1.
</event>
<event>
 8    1  0.1150307E+005  0.1043930E+01  0.7957747E-01            NaN
         13   -1    0    0    0    0  0.00000000000E+00  0.00000000000E+00  0.74505805969E-08  0.10566000000E+00  0.10566000000E+00 0.  1.
     999900   -1    0    0    0    0 -0.00000000000E+00 -0.00000000000E+00 -0.74505805969E-08  0.93827000000E+00  0.93827000000E+00 0. -1.
     999902    2    1    2    0    0  0.32609435243E-02  0.22913860652E-01  0.12851149231E-02  0.10207496143E+01  0.10204863766E+01 0.  0.
     999903    2    3    3    0    0  0.58962984035E-01  0.10910742922E+00 -0.45332727986E-01  0.13356007879E+00  0.20054271911E-01 0.  0.
         14    1    1    2    0    0 -0.32609435243E-02 -0.22913860652E-01 -0.12851149231E-02  0.23180385739E-01  0.00000000000E+00 0. -1.
     999901    1    3    3    0    0 -0.55702040511E-01 -0.86193568566E-01  0.46617842909E-01  0.88718953548E+00  0.88000000000E+00 0. -1.
        -11    1    4    4    0    0  0.37850305257E-01  0.86405846980E-01 -0.37992511571E-01  0.10169713888E+00  0.51100000000E-03 0.  1.
         11    1    4    4    0    0  0.21112678778E-01  0.22701582238E-01 -0.73402164144E-02  0.31862939904E-01  0.51100000000E-03 0. -1.
</event>
<event>
 8    1  0.1150307E+005  0.1043930E+01  0.7957747E-01            NaN
         13   -1    0    0    0    0  0.00000000000E+00  0.00000000000E+00  0.74505805969E-08  0.10566000000E+00  0.10566000000E+00 0.  1.
     999900   -1    0    0    0    0 -0.00000000000E+00 -0.00000000000E+00 -0.74505805969E-08  0.93827000000E+00  0.93827000000E+00 0. -1.
     999902    2    1    2    0    0 -0.22812259885E-01  0.83209809566E-02 -0.66776033091E-02  0.10187461101E+01  0.10184347836E+01 0.  0.
     999903    2    3    3    0    0 -0.62872318373E-01 -0.10983112404E+00  0.18874187150E-01  0.12957929661E+00  0.20463502735E-01 0.  0.
         14    1    1    2    0    0  0.22812259885E-01 -0.83209809566E-02  0.66776033091E-02  0.25183889912E-01  0.00000000000E+00 0.  1.
     999901    1    3    3    0    0  0.40060058489E-01  0.11815210499E+00 -0.25551790459E-01  0.88916681348E+00  0.88000000000E+00 0.  1.
        -11    1    4    4    0    0 -0.47651995967E-01 -0.84178740189E-01  0.23093287961E-01  0.99450158820E-01  0.51100000000E-03 0.  1.
         11    1    4    4    0    0 -0.15220322406E-01 -0.25652383846E-01 -0.42191008116E-02  0.30129137787E-01  0.51100000000E-03 0. -1.
</event>
<event>
 8    1  0.1150307E+005  0.1043930E+01  0.7957747E-01            NaN
         13   -1    0    0    0    0  0.00000000000E+00  0.00000000000E+00  0.74505805969E-08  0.10566000000E+00  0.10566000000E+00 0.  1.
     999900   -1    0    0    0    0 -0.00000000000E+00 -0.00000000000E+00 -0.74505805969E-08  0.93827000000E+00  0.93827000000E+00 0. -1.
     999902    2    1    2    0    0 -0.76778145514E-02 -0.14647960410E-01  0.89616624510E-02  0.10251198173E+01  0.10249472263E+01 0.  0.
     999903    2    3    3    0    0  0.83651245923E-01  0.96465109045E-01 -0.29349467273E-01  0.13262059926E+00  0.20586012504E-01 0.  0.
         14    1    1    2    0    0  0.76778145514E-02  0.14647960410E-01 -0.89616624510E-02  0.18810182730E-01  0.00000000000E+00 0.  1.
     999901    1    3    3    0    0 -0.91329060475E-01 -0.11111306945E+00  0.38311129724E-01  0.89249921801E+00  0.88000000000E+00 0.  1.
        -11    1    4    4    0    0  0.44652071890E-01  0.66456387173E-01 -0.20061461282E-01  0.82540791552E-01  0.51100000000E-03 0. -1.
         11    1    4    4    0    0  0.38999174033E-01  0.30008721872E-01 -0.92880059906E-02  0.50079807706E-01  0.51100000000E-03 0.  1.
</event>
<event>
 8    1  0.1150307E+005  0.1043930E+01  0.7957747E-01            NaN
         13   -1    0    0    0    0  0.00000000000E+00  0.00000000000E+00  0.74505805969E-08  0.10566000000E+00  0.10566000000E+00 0.  1.
     999900   -1    0    0    0    0 -0.00000000000E+00 -0.00000000000E+00 -0.74505805969E-08  0.93827000000E+00  0.93827000000E+00 0.  1.
     999902    2    1    2    0    0  0.80191282550E-02  0.26260075978E-02 -0.18208329489E-01  0.10238614775E+01  0.10236647788E+01 0.  0.
     999903    2    3    3    0    0 -0.10636002243E+00  0.54037713523E-01  0.52463210749E-01  0.13216633886E+00  0.21977802236E-01 0.  0.
         14    1    1    2    0    0 -0.80191282550E-02 -0.26260075978E-02  0.18208329489E-01  0.20068522533E-01  0.00000000000E+00 0.  1.
     999901    1    3    3    0    0  0.11437915069E+00 -0.51411705925E-01 -0.70671540237E-01  0.89169513861E+00  0.88000000000E+00 0.  1.
        -11    1    4    4    0    0 -0.23033376766E-01  0.21506726418E-01  0.18065238459E-01  0.36327533470E-01  0.51100000000E-03 0.  1.
         11    1    4    4    0    0 -0.83326645664E-01  0.32530987106E-01  0.34397972290E-01  0.95838805389E-01  0.51100000000E-03 0. -1.
</event>
<event>
 8    1  0.1150307E+005  0.1043930E+01  0.7957747E-01            NaN
         13   -1    0    0    0    0  0.00000000000E+00  0.00000000000E+00  0.74505805969E-08  0.10566000000E+00  0.10566000000E+00 0. -1.
     999900   -1    0    0    0    0 -0.00000000000E+00 -0.00000000000E+00 -0.74505805969E-08  0.93827000000E+00  0.93827000000E+00 0. -1.
     999902    2    1    2    0    0  0.22038695904E-01  0.59835338169E-02 -0.26323291190E-02  0.10209422652E+01  0.10206834342E+01 0.  0.
     999903    2    3    3    0    0 -0.10995585778E+00  0.64136847934E-01 -0.74305306446E-02  0.12918703373E+00  0.20742492016E-01 0.  0.
         14    1    1    2    0    0 -0.22038695904E-01 -0.59835338169E-02  0.26323291190E-02  0.22987734788E-01  0.00000000000E+00 0.  1.
     999901    1    3    3    0    0  0.13199455368E+00 -0.58153314117E-01  0.47982015255E-02  0.89175523149E+00  0.88000000000E+00 0. -1.
        -11    1    4    4    0    0 -0.60762251539E-01  0.23746962577E-01 -0.14711841626E-02  0.65256378597E-01  0.51100000000E-03 0. -1.
         11    1    4    4    0    0 -0.49193606238E-01  0.40389885357E-01 -0.59593464819E-02  0.63930655129E-01  0.51100000000E-03 0.  1.
</event>
<event>
 8    1  0.1150307E+005  0.1043930E+01  0.7957747E-01            NaN
         13   -1    0    0    0    0  0.00000000000E+00  0.00000000000E+00  0.74505805969E-08  0.10566000000E+00  0.10566000000E+00 0. -1.
     999900   -1    0    0    0    0 -0.00000000000E+00 -0.00000000000E+00 -0.74505805969E-08  0.93827000000E+00  0.93827000000E+00 0.  1.
     999902    2    1    2    0    0  0.75829429852E-02  0.21154073500E-01 -0.17053105203E-03  0.10214572402E+01  0.10212100023E+01 0.  0.
     999903    2    3    3    0    0  0.15843842284E-02 -0.11492382594E+00  0.55963102814E-01  0.12921054663E+00  0.18801607461E-01 0.  0.
         14    1    1    2    0    0 -0.75829429852E-02 -0.21154073500E-01  0.17053105203E-03  0.22472759750E-01  0.00000000000E+00 0. -1.
     999901    1    3    3    0    0  0.59985587568E-02  0.13607789944E+00 -0.56133633866E-01  0.89224669362E+00  0.88000000000E+00 0.  1.
        -11    1    4    4    0    0 -0.85618404284E-02 -0.59528252560E-01  0.28939163123E-01  0.66743196264E-01  0.51100000000E-03 0. -1.
         11    1    4    4    0    0  0.10146224657E-01 -0.55395573375E-01  0.27023939692E-01  0.62467350367E-01  0.51100000000E-03 0.  1.
</event>
<event>
 8    1  0.1150307E+005  0.1043930E+01  0.7957747E-01            NaN
         13   -1    0    0    0    0  0.00000000000E+00  0.00000000000E+00  0.74505805969E-08  0.10566000000E+00  0.10566000000E+00 0.  1.
     999900   -1    0    0    0    0 -0.00000000000E+00 -0.00000000000E+00 -0.74505805969E-08  0.93827000000E+00  0.93827000000E+00 0. -1.
     999902    2    1    2    0    0 -0.23726954066E-02 -0.57187979530E-02 -0.26619486667E-01  0.10165999542E+01  0.10162325204E+01 0.  0.
     999903    2    3    3    0    0 -0.32801975959E-01  0.95010396821E-01  0.71602501760E-01  0.12490501151E+00  0.19271702330E-01 0.  0.
         14    1    1    2    0    0  0.23726954066E-02  0.57187979530E-02  0.26619486667E-01  0.27330045809E-01  0.00000000000E+00 0.  1.
     999901    1    3    3    0    0  0.30429280553E-01 -0.10072919477E+00 -0.98221988427E-01  0.89169494268E+00  0.88000000000E+00 0. -1.
        -11    1    4    4    0    0 -0.22390507725E-01  0.68292576212E-01  0.61199293730E-01  0.94397168792E-01  0.51100000000E-03 0.  1.
         11    1    4    4    0    0 -0.10411468235E-01  0.26717820609E-01  0.10403208029E-01  0.30507842716E-01  0.51100000000E-03 0. -1.
</event>
<event>
 8    1  0.1150307E+005  0.1043930E+01  0.7957747E-01            NaN
         13   -1    0    0    0    0  0.00000000000E+00  0.00000000000E+00  0.74505805969E-08  0.10566000000E+00  0.10566000000E+00 0.  1.
     999900   -1    0    0    0    0 -0.00000000000E+00 -0.00000000000E+00 -0.74505805969E-08  0.93827000000E+00  0.93827000000E+00 0. -1.
     999902    2    1    2    0    0  0.20028828903E-01  0.11555561934E-01 -0.34028706107E-02  0.10205576974E+01  0.10202900319E+01 0.  0.
     999903    2    3    3    0    0  0.62706864622E-01 -0.10507472393E+00  0.42297534453E-01  0.13066300404E+00  0.17632093541E-01 0.  0.
         14    1    1    2    0    0 -0.20028828903E-01 -0.11555561934E-01  0.34028706107E-02  0.23372302566E-01  0.00000000000E+00 0.  1.
     999901    1    3    3    0    0 -0.42678035720E-01  0.11663028587E+00 -0.45700405064E-01  0.88989469340E+00  0.88000000000E+00 0.  1.
        -11    1    4    4    0    0  0.37847452669E-01 -0.47026098164E-01  0.23438912694E-01  0.64757450006E-01  0.51100000000E-03 0. -1.
         11    1    4    4    0    0  0.24859411954E-01 -0.58048625769E-01  0.18858621759E-01  0.65905554030E-01  0.51100000000E-03 0.  1.
</event>
<event>
 8    1  0.1150307E+005  0.1043930E+01  0.7957747E-01            NaN
         13   -1    0    0    0    0  0.00000000000E+00  0.00000000000E+00  0.74505805969E-08  0.10566000000E+00  0.10566000000E+00 0.  1.
     999900   -1    0    0    0    0 -0.00000000000E+00 -0.00000000000E+00 -0.74505805969E-08  0.93827000000E+00  0.93827000000E+00 0.  1.
     999902    2    1    2    0    0  0.33611276706E-02 -0.18949970240E-01 -0.13099557420E-01  0.10206491719E+01  0.10203836216E+01 0.  0.
     999903    2    3    3    0    0 -0.75973751532E-01 -0.73590623403E-01  0.70372577761E-01  0.13146571426E+00  0.33813363480E-01 0.  0.
         14    1    1    2    0    0 -0.33611276706E-02  0.18949970240E-01  0.13099557420E-01  0.23280828076E-01  0.00000000000E+00 0.  1.
     999901    1    3    3    0    0  0.79334879202E-01  0.54640653163E-01 -0.83472135181E-01  0.88918345767E+00  0.88000000000E+00 0. -1.
        -11    1    4    4    0    0 -0.62850225295E-01 -0.39126594703E-01  0.49910384136E-01  0.89288010384E-01  0.51100000000E-03 0.  1.
         11    1    4    4    0    0 -0.13123526237E-01 -0.34464028700E-01  0.20462193625E-01  0.42177703873E-01  0.51100000000E-03 0. -1.
</event>
<event>
 8    1  0.1150307E+005  0.1043930E+01  0.7957747E-01            NaN
         13   -1    0    0    0    0  0.00000000000E+00  0.00000000000E+00  0.74505805969E-08  0.10566000000E+00  0.10566000000E+00 0. -1.
     999900   -1    0    0    0    0 -0.00000000000E+00 -0.00000000000E+00 -0.74505805969E-08  0.93827000000E+00  0.93827000000E+00 0. -1.
     999902    2    1    2    0    0  0.10659850610E-01  0.21094354521E-01 -0.17280949441E-02  0.10202320988E+01  0.10199568349E+01 0.  0.
     999903    2    3    3    0    0 -0.34735301289E-01  0.35819261478E-01  0.11929234928E+00  0.13066844702E+00  0.18815360778E-01 0.  0.
         14    1    1    2    0    0 -0.10659850610E-01 -0.21094354521E-01  0.17280949441E-02  0.23697901170E-01  0.00000000000E+00 0.  1.
     999901    1    3    3    0    0  0.45395151899E-01 -0.14724906957E-01 -0.12102044423E+00  0.88956365181E+00  0.88000000000E+00 0. -1.
        -11    1    4    4    0    0 -0.27999458054E-01  0.18431633661E-01  0.88860895225E-01  0.94974810302E-01  0.51100000000E-03 0.  1.
         11    1    4    4    0    0 -0.67358432347E-02  0.17387627817E-01  0.30431454057E-01  0.35693636719E-01  0.51100000000E-03 0. -1.
</event>
<event>
 8    1  0.1150307E+005  0.1043930E+01  0.7957747E-01            NaN
         13   -1    0    0    0    0  0.00000000000E+00  0.00000000000E+00  0.74505805969E-08  0.10566000000E+00  0.10566000000E+00 0.  1.
     999900   -1    0    0    0    0 -0.00000000000E+00 -0.00000000000E+00 -0.74505805969E-08  0.93827000000E+00  0.93827000000E+00 0. -1.
     999902    2    1    2    0    0  0.55841355939E-02 -0.86150957676E-03  0.22951234497E-01  0.10202935042E+01  0.10200196816E+01 0.  0.
     999903    2    3    3    0    0 -0.57193925327E-01 -0.77307913845E-01 -0.82884432543E-01  0.12844916459E+00  0.19537146398E-01 0.  0.
         14    1    1    2    0    0 -0.55841355939E-02  0.86150957676E-03 -0.22951234497E-01  0.23636495807E-01  0.00000000000E+00 0. -1.
     999901    1    3    3    0    0  0.62778060920E-01  0.76446404268E-01  0.10583566704E+00  0.89184433960E+00  0.88000000000E+00 0.  1.
        -11    1    4    4    0    0 -0.25071587204E-01 -0.29661492549E-01 -0.21626653906E-01  0.44456292078E-01  0.51100000000E-03 0.  1.
         11    1    4    4    0    0 -0.32122338122E-01 -0.47646421296E-01 -0.61257778637E-01  0.83992872515E-01  0.51100000000E-03 0. -1.
</event>
<event>
 8    1  0.1150307E+005  0.1043930E+01  0.7957747E-01            NaN
         13   -1    0    0    0    0  0.00000000000E+00  0.00000000000E+00  0.74505805969E-08  0.10566000000E+00  0.10566000000E+00 0.  1.
     999900   -1    0    0    0    0 -0.00000000000E+00 -0.00000000000E+00 -0.74505805969E-08  0.93827000000E+00  0.93827000000E+00 0.  1.
     999902    2    1    2    0    0 -0.71715033520E-02  0.90581034592E-02  0.23434521437E-01  0.10178023041E+01  0.10174668907E+01 0.  0.
     999903    2    3    3    0    0  0.46173983095E-01 -0.83917371427E-01  0.84485668377E-01  0.12919810514E+00  0.19497699033E-01 0.  0.
         14    1    1    2    0    0  0.71715033520E-02 -0.90581034592E-02 -0.23434521437E-01  0.26127695911E-01  0.00000000000E+00 0. -1.
     999901    1    3    3    0    0 -0.53345486447E-01  0.92975474887E-01 -0.61051146939E-01  0.88860419895E+00  0.88000000000E+00 0. -1.
        -11    1    4    4    0    0  0.26608826356E-01 -0.38007651307E-01  0.29709781654E-01  0.55095766125E-01  0.51100000000E-03 0.  1.
         11    1    4    4    0    0  0.19565156739E-01 -0.45909720120E-01  0.54775886722E-01  0.74102339011E-01  0.51100000000E-03 0. -1.
</event>
<event>
 8    1  0.1150307E+005  0.1043930E+01  0.7957747E-01            NaN
         13   -1    0    0    0    0  0.00000000000E+00  0.00000000000E+00  0.74505805969E-08  0.10566000000E+00  0.10566000000E+00 0.  1.
     999900   -1    0    0    0    0 -0.00000000000E+00 -0.00000000000E+00 -0.74505805969E-08  0.93827000000E+00  0.93827000000E+00 0.  1.
     999902    2    1    2    0    0  0.23972365087E-01  0.21043861549E-02  0.69189289118E-02  0.10188905450E+01  0.10185828235E+01 0.  0.
     999903    2    3    3    0    0 -0.58724284394E-01 -0.11112827050E+00 -0.18969957457E-01  0.12741390213E+00  0.87412291365E-02 0.  0.
         14    1    1    2    0    0 -0.23972365087E-01 -0.21043861549E-02 -0.69189289118E-02  0.25039454990E-01  0.00000000000E+00 0. -1.
     999901    1    3    3    0    0  0.82696649480E-01  0.11323265666E+00  0.25888886369E-01  0.89147664288E+00  0.88000000000E+00 0.  1.
        -11    1    4    4    0    0 -0.33673823152E-01 -0.72604068433E-01 -0.12526312833E-01  0.81008930081E-01  0.51100000000E-03 0.  1.
         11    1    4    4    0    0 -0.25050461242E-01 -0.38524202069E-01 -0.64436446241E-02  0.46404972045E-01  0.51100000000E-03 0. -1.
</event>
<event>
 8    1  0.1150307E+005  0.1043930E+01  0.7957747E-01            NaN
         13   -1    0    0    0    0  0.00000000000E+00  0.00000000000E+00  0.74505805969E-08  0.10566000000E+00  0.10566000000E+00 0. -1.
     999900   -1    0    0    0    0 -0.00000000000E+00 -0.00000000000E+00 -0.74505805969E-08  0.93827000000E+00  0.93827000000E+00 0. -1.
     999902    2    1    2    0    0  0.10444579065E-01  0.14906927436E-01  0.14573537555E-01  0.10206127593E+01  0.10203463680E+01 0.  0.
     999903    2    3    3    0    0  0.30493772080E-01 -0.12353085651E+00  0.67812381107E-02  0.12953043420E+00  0.23289601700E-01 0.  0.
         14    1    1    2    0    0 -0.10444579065E-01 -0.14906927436E-01 -0.14573537555E-01  0.23317240708E-01  0.00000000000E+00 0.  1.
     999901    1    3    3    0    0 -0.20049193016E-01  0.13843778395E+00  0.77922994439E-02  0.89108232509E+00  0.88000000000E+00 0.  1.
        -11    1    4    4    0    0  0.20443929744E-01 -0.11086773017E+00  0.94653755781E-02  0.11313470870E+00  0.51100000000E-03 0. -1.
         11    1    4    4    0    0  0.10049842336E-01 -0.12663126337E-01 -0.26841374674E-02  0.16395725497E-01  0.51100000000E-03 0.  1.
</event>
<event>
 8    1  0.1150307E+005  0.1043930E+01  0.7957747E-01            NaN
         13   -1    0    0    0    0  0.00000000000E+00  0.00000000000E+00  0.74505805969E-08  0.10566000000E+00  0.10566000000E+00 0.  1.
     999900   -1    0    0    0    0 -0.00000000000E+00 -0.00000000000E+00 -0.74505805969E-08  0.93827000000E+00  0.93827000000E+00 0.  1.
     999902    2    1    2    0    0  0.50316189613E-02 -0.85448748586E-02 -0.23118595815E-01  0.10187744529E+01  0.10184638356E+01 0.  0.
     999903    2    3    3    0    0  0.83091070402E-01 -0.87796048860E-01  0.41557412905E-01  0.12941681248E+00  0.20234144606E-01 0.  0.
         14    1    1    2    0    0 -0.50316189613E-02  0.85448748586E-02  0.23118595815E-01  0.25155547065E-01  0.00000000000E+00 0.  1.
     999901    1    3    3    0    0 -0.78059451440E-01  0.79251174001E-01 -0.64676008720E-01  0.88935764046E+00  0.88000000000E+00 0.  1.
        -11    1    4    4    0    0  0.24320440079E-01 -0.38772975033E-01  0.11524025890E-01  0.47200547585E-01  0.51100000000E-03 0. -1.
         11    1    4    4    0    0  0.58770630323E-01 -0.49023073826E-01  0.30033387015E-01  0.82216264891E-01  0.51100000000E-03 0.  1.
</event>
<event>
 8    1  0.1150307E+005  0.1043930E+01  0.7957747E-01            NaN
         13   -1    0    0    0    0  0.00000000000E+00  0.00000000000E+00  0.74505805969E-08  0.10566000000E+00  0.10566000000E+00 0. -1.
     999900   -1    0    0    0    0 -0.00000000000E+00 -0.00000000000E+00 -0.74505805969E-08  0.93827000000E+00  0.93827000000E+00 0.  1.
     999902    2    1    2    0    0 -0.20706891234E-01 -0.67942702302E-02 -0.97104532816E-02  0.10200714511E+01  0.10197923980E+01 0.  0.
     999903    2    3    3    0    0 -0.48215842915E-01  0.44285022598E-01  0.11068625076E+00  0.12998089227E+00  0.18911782419E-01 0.  0.
         14    1    1    2    0    0  0.20706891234E-01  0.67942702302E-02  0.97104532816E-02  0.23858548897E-01  0.00000000000E+00 0. -1.
     999901    1    3    3    0    0  0.27508951681E-01 -0.51079292828E-01 -0.12039670404E+00  0.89009055883E+00  0.88000000000E+00 0.  1.
        -11    1    4    4    0    0 -0.15844053302E-01  0.17920501058E-01  0.58109248948E-01  0.62842058508E-01  0.51100000000E-03 0.  1.
         11    1    4    4    0    0 -0.32371789614E-01  0.26364521539E-01  0.52577001810E-01  0.67138833763E-01  0.51100000000E-03 0. -1.
</event>
<event>
 8    1  0.1150307E+005  0.1043930E+01  0.7957747E-01            NaN
         13   -1    0    0    0    0  0.00000000000E+00  0.00000000000E+00  0.74505805969E-08  0.10566000000E+00  0.10566000000E+00 0. -1.
     999900   -1    0    0    0    0 -0.00000000000E+00 -0.00000000000E+00 -0.74505805969E-08  0.93827000000E+00  0.93827000000E+00 0.  1.
     999902    2    1    2    0    0 -0.16620978354E-01  0.84380283498E-02 -0.14109616074E-01  0.10205518369E+01  0.10202840356E+01 0.  0.
     999903    2    3    3    0    0 -0.37432704993E-01  0.12529470906E+00 -0.10460273741E-01  0.13257552557E+00  0.19154141389E-01 0.  0.
         14    1    1    2    0    0  0.16620978354E-01 -0.84380283498E-02  0.14109616074E-01  0.23378163093E-01  0.00000000000E+00 0.  1.
     999901    1    3    3    0    0  0.20811726640E-01 -0.11685668071E+00 -0.36493423331E-02  0.88797631133E+00  0.88000000000E+00 0.  1.
        -11    1    4    4    0    0 -0.17542323717E-01  0.86483191845E-01 -0.27777335626E-02  0.88289594618E-01  0.51100000000E-03 0. -1.
         11    1    4    4    0    0 -0.19890381276E-01  0.38811517216E-01 -0.76825401782E-02  0.44285930954E-01  0.51100000000E-03 0.  1.
</event>
<event>
 8    1  0.1150307E+005  0.1043930E+01  0.7957747E-01            NaN
         13   -1    0    0    0    0  0.00000000000E+00  0.00000000000E+00  0.74505805969E-08  0.10566000000E+00  0.10566000000E+00 0.  1.
     999900   -1    0    0    0    0 -0.00000000000E+00 -0.00000000000E+00 -0.74505805969E-08  0.93827000000E+00  0.93827000000E+00 0. -1.
     999902    2    1    2    0    0  0.12082684952E-01  0.18454611640E-01 -0.84543957615E-02  0.10203071133E+01  0.10200336096E+01 0.  0.
     999903    2    3    3    0    0  0.10437783117E+00  0.80294899657E-01  0.41192955476E-02  0.13323287014E+00  0.19799660095E-01 0.  0.
         14    1    1    2    0    0 -0.12082684952E-01 -0.18454611640E-01  0.84543957615E-02  0.23622886659E-01  0.00000000000E+00 0.  1.
     999901    1    3    3    0    0 -0.92295146215E-01 -0.61840288018E-01 -0.12573691309E-01  0.88707424320E+00  0.88000000000E+00 0.  1.
        -11    1    4    4    0    0  0.70580001170E-01  0.44042486253E-01  0.76159736582E-02  0.83543649287E-01  0.51100000000E-03 0.  1.
         11    1    4    4    0    0  0.33797829997E-01  0.36252413404E-01 -0.34966781107E-02  0.49689220853E-01  0.51100000000E-03 0. -1.
</event>
<event>
 8    1  0.1150307E+005  0.1043930E+01  0.7957747E-01            NaN
         13   -1    0    0    0    0  0.00000000000E+00  0.00000000000E+00  0.74505805969E-08  0.10566000000E+00  0.10566000000E+00 0. -1.
     999900   -1    0    0    0    0 -0.00000000000E+00 -0.00000000000E+00 -0.74505805969E-08  0.93827000000E+00  0.93827000000E+00 0.  1.
     999902    2    1    2    0    0 -0.73077581390E-02 -0.80891941853E-02  0.29106596591E-01  0.10128489389E+01  0.10123719380E+01 0.  0.
     999903    2    3    3    0    0  0.12114890500E-01 -0.49078661185E-01 -0.10819567101E+00  0.12104779049E+00  0.19768125906E-01 0.  0.
         14    1    1    2    0    0  0.73077581390E-02  0.80891941853E-02 -0.29106596591E-01  0.31081061061E-01  0.00000000000E+00 0.  1.
     999901    1    3    3    0    0 -0.19422648639E-01  0.40989466999E-01  0.13730226760E+00  0.89180114845E+00  0.88000000000E+00 0. -1.
        -11    1    4    4    0    0  0.47447629894E-02 -0.31538286506E-02 -0.25823516283E-01  0.26449471170E-01  0.51100000000E-03 0.  1.
         11    1    4    4    0    0  0.73701275102E-02 -0.45924832534E-01 -0.82372154728E-01  0.94598319321E-01  0.51100000000E-03 0. -1.
</event>
<event>
 8    1  0.1150307E+005  0.1043930E+01  0.7957747E-01            NaN
         13   -1    0    0    0    0  0.00000000000E+00  0.00000000000E+00  0.74505805969E-08  0.10566000000E+00  0.10566000000E+00 0. -1.
     999900   -1    0    0    0    0 -0.00000000000E+00 -0.00000000000E+00 -0.74505805969E-08  0.93827000000E+00  0.93827000000E+00 0.  1.
     999902    2    1    2    0    0 -0.32637165136E-01 -0.10420961290E-01  0.15130704328E-01  0.10064771070E+01  0.10057800195E+01 0.  0.
     999903    2    3    3    0    0 -0.94867527321E-01  0.18198199095E-01  0.71811863078E-01  0.12199735702E+00  0.19884397200E-01 0.  0.
         14    1    1    2    0    0  0.32637165136E-01  0.10420961290E-01 -0.15130704328E-01  0.37452893023E-01  0.00000000000E+00 0. -1.
     999901    1    3    3    0    0  0.62230362185E-01 -0.28619160385E-01 -0.56681158750E-01  0.88447974995E+00  0.88000000000E+00 0.  1.
        -11    1    4    4    0    0 -0.62349046899E-01  0.17472975304E-01  0.38010903751E-01  0.75085274456E-01  0.51100000000E-03 0.  1.
         11    1    4    4    0    0 -0.32518480422E-01  0.72522379071E-03  0.33800959327E-01  0.46912082569E-01  0.51100000000E-03 0. -1.
</event>
<event>
 8    1  0.1150307E+005  0.1043930E+01  0.7957747E-01            NaN
         13   -1    0    0    0    0  0.00000000000E+00  0.00000000000E+00  0.74505805969E-08  0.10566000000E+00  0.10566000000E+00 0. -1.
     999900   -1    0    0    0    0 -0.00000000000E+00 -0.00000000000E+00 -0.74505805969E-08  0.93827000000E+00  0.93827000000E+00 0.  1.
     999902    2    1    2    0    0 -0.21511262756E-01  0.86130381698E-02  0.69708837161E-02  0.10197326433E+01  0.10194455119E+01 0.  0.
     999903    2    3    3    0    0  0.12302760440E+00 -0.21157300138E-01 -0.14105197596E-01  0.12719583264E+00  0.19909807848E-01 0.  0.
         14    1    1    2    0    0  0.21511262756E-01 -0.86130381698E-02 -0.69708837161E-02  0.24197356708E-01  0.00000000000E+00 0.  1.
     999901    1    3    3    0    0 -0.14453886716E+00  0.29770338308E-01  0.21076081312E-01  0.89253681065E+00  0.88000000000E+00 0.  1.
        -11    1    4    4    0    0  0.50523679162E-01 -0.76803108870E-04 -0.10473904882E-01  0.51600502510E-01  0.51100000000E-03 0.  1.
         11    1    4    4    0    0  0.72503925239E-01 -0.21080497029E-01 -0.36312927132E-02  0.75595330132E-01  0.51100000000E-03 0. -1.
</event>
<event>
 8    1  0.1572894E+005  0.1043930E+01  0.7957747E-01            NaN
         13   -1    0    0    0    0  0.00000000000E+00  0.00000000000E+00  0.74505805969E-08  0.10566000000E+00  0.10566000000E+00 0. -1.
     999900   -1    0    0    0    0 -0.00000000000E+00 -0.00000000000E+00 -0.74505805969E-08  0.93827000000E+00  0.93827000000E+00 0. -1.
     999902    2    1    2    0    0 -0.11894043160E-01 -0.19665022596E-01  0.72946508409E-02  0.10198179012E+01  0.10195328138E+01 0.  0.
     999903    2    3    3    0    0  0.56855509984E-01 -0.36609129039E-01 -0.10854656549E+00  0.12940631595E+00  0.19770189225E-01 0.  0.
         14    1    1    2    0    0  0.11894043160E-01  0.19665022596E-01 -0.72946508409E-02  0.24112098774E-01  0.00000000000E+00 0. -1.
     999901    1    3    3    0    0 -0.68749553145E-01  0.16944106443E-01  0.11584121633E+00  0.89041158528E+00  0.88000000000E+00 0.  1.
        -11    1    4    4    0    0  0.24735978148E-01 -0.72728226856E-02 -0.52176621837E-01  0.58201576886E-01  0.51100000000E-03 0.  1.
         11    1    4    4    0    0  0.32119531837E-01 -0.29336306353E-01 -0.56369943655E-01  0.71204739059E-01  0.51100000000E-03 0. -1.
</event>
<event>
 8    1  0.1150307E+005  0.1043930E+01  0.7957747E-01            NaN
         13   -1    0    0    0    0  0.00000000000E+00  0.00000000000E+00  0.74505805969E-08  0.10566000000E+00  0.10566000000E+00 0.  1.
     999900   -1    0    0    0    0 -0.00000000000E+00 -0.00000000000E+00 -0.74505805969E-08  0.93827000000E+00  0.93827000000E+00 0. -1.
     999902    2    1    2    0    0 -0.16316901842E-02 -0.19005398317E-01  0.14579651755E-01  0.10199209637E+01  0.10196383371E+01 0.  0.
     999903    2    3    3    0    0 -0.85015160744E-01 -0.43307152425E-01  0.88805888205E-01  0.13253552739E+00  0.24001942306E-01 0.  0.
         14    1    1    2    0    0  0.16316901842E-02  0.19005398317E-01 -0.14579651755E-01  0.24009036286E-01  0.00000000000E+00 0. -1.
     999901    1    3    3    0    0  0.83383470559E-01  0.24301754108E-01 -0.74226236449E-01  0.88738543632E+00  0.88000000000E+00 0. -1.
        -11    1    4    4    0    0 -0.39510313711E-01 -0.11247806022E-01  0.49821563870E-01  0.64575749142E-01  0.51100000000E-03 0.  1.
         11    1    4    4    0    0 -0.45504847033E-01 -0.32059346403E-01  0.38984324335E-01  0.67959778252E-01  0.51100000000E-03 0. -1.
</event>
<event>
 8    1  0.1150307E+005  0.1043930E+01  0.7957747E-01            NaN
         13   -1    0    0    0    0  0.00000000000E+00  0.00000000000E+00  0.74505805969E-08  0.10566000000E+00  0.10566000000E+00 0. -1.
     999900   -1    0    0    0    0 -0.00000000000E+00 -0.00000000000E+00 -0.74505805969E-08  0.93827000000E+00  0.93827000000E+00 0.  1.
     999902    2    1    2    0    0 -0.21005218369E-01 -0.21433346531E-02 -0.63315300760E-02  0.10218868297E+01  0.10216490549E+01 0.  0.
     999903    2    3    3    0    0  0.78924779140E-01  0.94307251391E-01 -0.38737564208E-01  0.13040555063E+00  0.19545596104E-01 0.  0.
         14    1    1    2    0    0  0.21005218369E-01  0.21433346531E-02  0.63315300760E-02  0.22043170263E-01  0.00000000000E+00 0. -1.
     999901    1    3    3    0    0 -0.99929997509E-01 -0.96450586044E-01  0.32406034132E-01  0.89148127911E+00  0.88000000000E+00 0. -1.
        -11    1    4    4    0    0  0.25779840776E-01  0.27041156739E-01 -0.21000256873E-01  0.42861360897E-01  0.51100000000E-03 0. -1.
         11    1    4    4    0    0  0.53144938364E-01  0.67266094651E-01 -0.17737307335E-01  0.87544189732E-01  0.51100000000E-03 0.  1.
</event>
<event>
 8    1  0.1150307E+005  0.1043930E+01  0.7957747E-01            NaN
         13   -1    0    0    0    0  0.00000000000E+00  0.00000000000E+00  0.74505805969E-08  0.10566000000E+00  0.10566000000E+00 0. -1.
     999900   -1    0    0    0    0 -0.00000000000E+00 -0.00000000000E+00 -0.74505805969E-08  0.93827000000E+00  0.93827000000E+00 0.  1.
     999902    2    1    2    0    0  0.13816691281E-01  0.18363370233E-01 -0.97404360455E-02  0.10189702240E+01  0.10186644820E+01 0.  0.
     999903    2    3    3    0    0  0.60673876308E-01  0.11577866323E+00 -0.59724980493E-02  0.13234768172E+00  0.19854974164E-01 0.  0.
         14    1    1    2    0    0 -0.13816691281E-01 -0.18363370233E-01  0.97404360455E-02  0.24959776013E-01  0.00000000000E+00 0. -1.
     999901    1    3    3    0    0 -0.46857185027E-01 -0.97415292995E-01 -0.37679379962E-02  0.88662254227E+00  0.88000000000E+00 0. -1.
        -11    1    4    4    0    0  0.59160065533E-01  0.99290314125E-01 -0.66200428043E-02  0.11576945159E+00  0.51100000000E-03 0.  1.
         11    1    4    4    0    0  0.15138107748E-02  0.16488349102E-01  0.64754475504E-03  0.16578230134E-01  0.51100000000E-03 0. -1.
</event>
<event>
 8    1  0.1150307E+005  0.1043930E+01  0.7957747E-01            NaN
         13   -1    0    0    0    0  0.00000000000E+00  0.00000000000E+00  0.74505805969E-08  0.10566000000E+00  0.10566000000E+00 0. -1.
     999900   -1    0    0    0    0 -0.00000000000E+00 -0.00000000000E+00 -0.74505805969E-08  0.93827000000E+00  0.93827000000E+00 0.  1.
     999902    2    1    2    0    0  0.22776115425E-02 -0.23111608420E-01  0.60637672336E-02  0.10199278494E+01  0.10196453868E+01 0.  0.
     999903    2    3    3    0    0  0.67659566763E-01  0.10649876480E+00  0.79872196015E-02  0.12803248082E+00  0.20216740333E-01 0.  0.
         14    1    1    2    0    0 -0.22776115425E-02  0.23111608420E-01 -0.60637672336E-02  0.24002150553E-01  0.00000000000E+00 0. -1.
     999901    1    3    3    0    0 -0.65381955220E-01 -0.12961037322E+00 -0.19234523679E-02  0.89189536863E+00  0.88000000000E+00 0. -1.
        -11    1    4    4    0    0  0.37794306497E-01  0.76617882237E-01  0.77144888440E-02  0.85781606078E-01  0.51100000000E-03 0. -1.
         11    1    4    4    0    0  0.29865260265E-01  0.29880882559E-01  0.27273075759E-03  0.42250874740E-01  0.51100000000E-03 0.  1.
</event>
<event>
 8    1  0.1150307E+005  0.1043930E+01  0.7957747E-01            NaN
         13   -1    0    0    0    0  0.00000000000E+00  0.00000000000E+00  0.74505805969E-08  0.10566000000E+00  0.10566000000E+00 0.  1.
     999900   -1    0    0    0    0 -0.00000000000E+00 -0.00000000000E+00 -0.74505805969E-08  0.93827000000E+00  0.93827000000E+00 0.  1.
     999902    2    1    2    0    0  0.15932125603E-01 -0.10717409533E-01  0.13756323301E-01  0.10203094174E+01  0.10200359676E+01 0.  0.
     999903    2    3    3    0    0  0.84422665611E-01  0.47595204826E-01  0.88101462410E-01  0.13260534800E+00  0.20732116316E-01 0.  0.
         14    1    1    2    0    0 -0.15932125603E-01  0.10717409533E-01 -0.13756323301E-01  0.23620582636E-01  0.00000000000E+00 0. -1.
     999901    1    3    3    0    0 -0.68490540009E-01 -0.58312614359E-01 -0.74345139108E-01  0.88770406937E+00  0.88000000000E+00 0.  1.
        -11    1    4    4    0    0  0.31562146294E-01  0.11186005839E-01  0.19933396581E-01  0.38973032030E-01  0.51100000000E-03 0.  1.
         11    1    4    4    0    0  0.52860519317E-01  0.36409198987E-01  0.68168065828E-01  0.93632315966E-01  0.51100000000E-03 0. -1.
</event>
<event>
 8    1  0.1150307E+005  0.1043930E+01  0.7957747E-01            NaN
         13   -1    0    0    0    0  0.00000000000E+00  0.00000000000E+00  0.74505805969E-08  0.10566000000E+00  0.10566000000E+00 0.  1.
     999900   -1    0    0    0    0 -0.00000000000E+00 -0.00000000000E+00 -0.74505805969E-08  0.93827000000E+00  0.93827000000E+00 0.  1.
     999902    2    1    2    0    0 -0.12590973440E-01 -0.76896279045E-02 -0.17889014888E-01  0.10207420755E+01  0.10204786646E+01 0.  0.
     999903    2    3    3    0    0 -0.12882475096E+00  0.57355963646E-02  0.21677773565E-01  0.13211613707E+00  0.18868870693E-01 0.  0.
         14    1    1    2    0    0  0.12590973440E-01  0.76896279045E-02  0.17889014888E-01  0.23187924511E-01  0.00000000000E+00 0.  1.
     999901    1    3    3    0    0  0.11623377752E+00 -0.13425224269E-01 -0.39566788453E-01  0.88862593842E+00  0.88000000000E+00 0. -1.
        -11    1    4    4    0    0 -0.73191468408E-01  0.21886937007E-02  0.28761476318E-02  0.73282431551E-01  0.51100000000E-03 0. -1.
         11    1    4    4    0    0 -0.55633282554E-01  0.35469026639E-02  0.18801625933E-01  0.58833705518E-01  0.51100000000E-03 0.  1.
</event>
<event>
 8    1  0.1150307E+005  0.1043930E+01  0.7957747E-01            NaN
         13   -1    0    0    0    0  0.00000000000E+00  0.00000000000E+00  0.74505805969E-08  0.10566000000E+00  0.10566000000E+00 0.  1.
     999900   -1    0    0    0    0 -0.00000000000E+00 -0.00000000000E+00 -0.74505805969E-08  0.93827000000E+00  0.93827000000E+00 0. -1.
     999902    2    1    2    0    0  0.22840907721E-02  0.16812076539E-01 -0.14352826419E-01  0.10217068901E+01  0.10214651745E+01 0.  0.
     999903    2    3    3    0    0  0.96405490398E-01 -0.83688656496E-01 -0.20467201106E-01  0.13097874930E+00  0.20945563763E-01 0.  0.
         14    1    1    2    0    0 -0.22840907721E-02 -0.16812076539E-01  0.14352826419E-01  0.22223109918E-01  0.00000000000E+00 0.  1.
     999901    1    3    3    0    0 -0.94121399626E-01  0.10050073304E+00  0.61143746876E-02  0.89072814078E+00  0.88000000000E+00 0. -1.
        -11    1    4    4    0    0  0.25973599271E-01 -0.29295813291E-01  0.19614952924E-02  0.39204350782E-01  0.51100000000E-03 0. -1.
         11    1    4    4    0    0  0.70431891127E-01 -0.54392843205E-01 -0.22428696399E-01  0.91774398515E-01  0.51100000000E-03 0.  1.
</event>
<event>
 8    1  0.1150307E+005  0.1043930E+01  0.7957747E-01            NaN
         13   -1    0    0    0    0  0.00000000000E+00  0.00000000000E+00  0.74505805969E-08  0.10566000000E+00  0.10566000000E+00 0.  1.
     999900   -1    0    0    0    0 -0.00000000000E+00 -0.00000000000E+00 -0.74505805969E-08  0.93827000000E+00  0.93827000000E+00 0. -1.
     999902    2    1    2    0    0 -0.23989714197E-01 -0.74438099054E-02  0.48732894355E-02  0.10183435653E+01  0.10180220780E+01 0.  0.
     999903    2    3    3    0    0  0.10588454444E+00 -0.36533844096E-02  0.66528411415E-01  0.12666927245E+00  0.19854246118E-01 0.  0.
         14    1    1    2    0    0  0.23989714197E-01  0.74438099054E-02 -0.48732894355E-02  0.25586434747E-01  0.00000000000E+00 0. -1.
     999901    1    3    3    0    0 -0.12987425863E+00 -0.37904254957E-02 -0.61655121980E-01  0.89167429280E+00  0.88000000000E+00 0.  1.
        -11    1    4    4    0    0  0.15267319487E-02 -0.92200135273E-03 -0.12177250268E-02  0.22192278339E-02  0.51100000000E-03 0.  1.
         11    1    4    4    0    0  0.10435781249E+00 -0.27313830569E-02  0.67746136442E-01  0.12445004461E+00  0.51100000000E-03 0. -1.
</event>
<event>
 8    1  0.1150307E+005  0.1043930E+01  0.7957747E-01            NaN
         13   -1    0    0    0    0  0.00000000000E+00  0.00000000000E+00  0.74505805969E-08  0.10566000000E+00  0.10566000000E+00 0. -1.
     999900   -1    0    0    0    0 -0.00000000000E+00 -0.00000000000E+00 -0.74505805969E-08  0.93827000000E+00  0.93827000000E+00 0.  1.
     999902    2    1    2    0    0 -0.20859756887E-01 -0.95356451009E-02 -0.92174359554E-02  0.10192111993E+01  0.10189114042E+01 0.  0.
     999903    2    3    3    0    0  0.50079869032E-01 -0.10569110288E+00 -0.53117848388E-01  0.13005117496E+00  0.20327316107E-01 0.  0.
         14    1    1    2    0    0  0.20859756887E-01  0.95356451009E-02  0.92174359554E-02  0.24718800749E-01  0.00000000000E+00 0.  1.
     999901    1    3    3    0    0 -0.70939625919E-01  0.96155457782E-01  0.43900412432E-01  0.88916002429E+00  0.88000000000E+00 0. -1.
        -11    1    4    4    0    0  0.42742541944E-01 -0.83175770113E-01 -0.33634888300E-01  0.99381590135E-01  0.51100000000E-03 0.  1.
         11    1    4    4    0    0  0.73373270880E-02 -0.22515332769E-01 -0.19482960088E-01  0.30669584825E-01  0.51100000000E-03 0. -1.
</event>
<event>
 8    1  0.1150307E+005  0.1043930E+01  0.7957747E-01            NaN
         13   -1    0    0    0    0  0.00000000000E+00  0.00000000000E+00  0.74505805969E-08  0.10566000000E+00  0.10566000000E+00 0. -1.
     999900   -1    0    0    0    0 -0.00000000000E+00 -0.00000000000E+00 -0.74505805969E-08  0.93827000000E+00  0.93827000000E+00 0.  1.
     999902    2    1    2    0    0  0.10604187216E-01  0.18171251957E-01 -0.10760942737E-01  0.10202986422E+01  0.10200249400E+01 0.  0.
     999903    2    3    3    0    0 -0.69117713359E-01 -0.33713829276E-01  0.10058539005E+00  0.12819682684E+00  0.20077976422E-01 0.  0.
         14    1    1    2    0    0 -0.10604187216E-01 -0.18171251957E-01  0.10760942737E-01  0.23631357828E-01  0.00000000000E+00 0. -1.
     999901    1    3    3    0    0  0.79721900575E-01  0.51885081233E-01 -0.11134633279E+00  0.89210181533E+00  0.88000000000E+00 0.  1.
        -11    1    4    4    0    0 -0.18586365965E-01 -0.19115388623E-01  0.38355141893E-01  0.46714335194E-01  0.51100000000E-03 0.  1.
         11    1    4    4    0    0 -0.50531347394E-01 -0.14598440653E-01  0.62230248157E-01  0.81482491651E-01  0.51100000000E-03 0. -1.
</event>
<event>
 8    1  0.1150307E+005  0.1043930E+01  0.7957747E-01            NaN
         13   -1    0    0    0    0  0.00000000000E+00  0.00000000000E+00  0.74505805969E-08  0.10566000000E+00  0.10566000000E+00 0. -1.
     999900   -1    0    0    0    0 -0.00000000000E+00 -0.00000000000E+00 -0.74505805969E-08  0.93827000000E+00  0.93827000000E+00 0.  1.
     999902    2    1    2    0    0 -0.59952863675E-02 -0.15667416387E-01  0.16672820264E-01  0.10202784814E+01  0.10200043065E+01 0.  0.
     999903    2    3    3    0    0 -0.95303374280E-01  0.63316865189E-01  0.61282695632E-01  0.13111905125E+00  0.18570897957E-01 0.  0.
         14    1    1    2    0    0  0.59952863675E-02  0.15667416387E-01 -0.16672820264E-01  0.23651518565E-01  0.00000000000E+00 0.  1.
     999901    1    3    3    0    0  0.89308087913E-01 -0.78984281575E-01 -0.44609875368E-01  0.88915943018E+00  0.88000000000E+00 0.  1.
        -11    1    4    4    0    0 -0.61998522152E-01  0.35794906495E-01  0.46874629600E-01  0.85572098847E-01  0.51100000000E-03 0. -1.
         11    1    4    4    0    0 -0.33304852128E-01  0.27521958693E-01  0.14408066032E-01  0.45546952405E-01  0.51100000000E-03 0.  1.
</event>
<event>
 8    1  0.1150307E+005  0.1043930E+01  0.7957747E-01            NaN
         13   -1    0    0    0    0  0.00000000000E+00  0.00000000000E+00  0.74505805969E-08  0.10566000000E+00  0.10566000000E+00 0. -1.
     999900   -1    0    0    0    0 -0.00000000000E+00 -0.00000000000E+00 -0.74505805969E-08  0.93827000000E+00  0.93827000000E+00 0.  1.
     999902    2    1    2    0    0 -0.10893736618E-01  0.30278550398E-02 -0.22290895500E-01  0.10189354921E+01  0.10186288881E+01 0.  0.
     999903    2    3    3    0    0 -0.11975195490E+00 -0.14165025383E-01 -0.49122431920E-01  0.13165558238E+00  0.19467932761E-01 0.  0.
         14    1    1    2    0    0  0.10893736618E-01 -0.30278550398E-02  0.22290895500E-01  0.24994507914E-01  0.00000000000E+00 0. -1.
     999901    1    3    3    0    0  0.10885821829E+00  0.17192880423E-01  0.26831536420E-01  0.88727990971E+00  0.88000000000E+00 0. -1.
        -11    1    4    4    0    0 -0.72091024070E-01 -0.61880329874E-03 -0.23219439089E-01  0.75742340482E-01  0.51100000000E-03 0. -1.
         11    1    4    4    0    0 -0.47660930834E-01 -0.13546222085E-01 -0.25902992831E-01  0.55913241896E-01  0.51100000000E-03 0.  1.
</event>
<event>
 8    1  0.1150307E+005  0.1043930E+01  0.7957747E-01            NaN
         13   -1    0    0    0    0  0.00000000000E+00  0.00000000000E+00  0.74505805969E-08  0.10566000000E+00  0.10566000000E+00 0. -1.
     999900   -1    0    0    0    0 -0.00000000000E+00 -0.00000000000E+00 -0.74505805969E-08  0.93827000000E+00  0.93827000000E+00 0. -1.
     999902    2    1    2    0    0  0.41524946022E-02  0.24087417662E-01  0.76700716590E-03  0.10194752418E+01  0.10191818941E+01 0.  0.
     999903    2    3    3    0    0 -0.68727297865E-01 -0.38283434124E-01  0.99849015768E-01  0.12873463319E+00  0.20340035244E-01 0.  0.
         14    1    1    2    0    0 -0.41524946022E-02 -0.24087417662E-01 -0.76700716590E-03  0.24454758249E-01  0.00000000000E+00 0.  1.
     999901    1    3    3    0    0  0.72879792467E-01  0.62370851786E-01 -0.99082008602E-01  0.89074060856E+00  0.88000000000E+00 0. -1.
        -11    1    4    4    0    0 -0.40874163652E-01 -0.18853281991E-01  0.41532447116E-01  0.61248255327E-01  0.51100000000E-03 0.  1.
         11    1    4    4    0    0 -0.27853134213E-01 -0.19430152133E-01  0.58316568652E-01  0.67486377868E-01  0.51100000000E-03 0. -1.
</event>
<event>
 8    1  0.1150307E+005  0.1043930E+01  0.7957747E-01            NaN
         13   -1    0    0    0    0  0.00000000000E+00  0.00000000000E+00  0.74505805969E-08  0.10566000000E+00  0.10566000000E+00 0.  1.
     999900   -1    0    0    0    0 -0.00000000000E+00 -0.00000000000E+00 -0.74505805969E-08  0.93827000000E+00  0.93827000000E+00 0.  1.
     999902    2    1    2    0    0 -0.11179685595E-01 -0.20581053708E-01  0.44059437686E-02  0.10200977218E+01  0.10198192902E+01 0.  0.
     999903    2    3    3    0    0 -0.11453626913E+00  0.11336078806E-01 -0.59577795377E-01  0.13116847517E+00  0.20213647598E-01 0.  0.
         14    1    1    2    0    0  0.11179685595E-01  0.20581053708E-01 -0.44059437686E-02  0.23832278159E-01  0.00000000000E+00 0.  1.
     999901    1    3    3    0    0  0.10335658353E+00 -0.31917132515E-01  0.63983739146E-01  0.88892924667E+00  0.88000000000E+00 0. -1.
        -11    1    4    4    0    0 -0.19275225379E-01  0.83738874569E-02 -0.61342047298E-02  0.21898536326E-01  0.51100000000E-03 0.  1.
         11    1    4    4    0    0 -0.95261043747E-01  0.29621913495E-02 -0.53443590647E-01  0.10926993885E+00  0.51100000000E-03 0. -1.
</event>
<event>
 8    1  0.1150307E+005  0.1043930E+01  0.7957747E-01            NaN
         13   -1    0    0    0    0  0.00000000000E+00  0.00000000000E+00  0.74505805969E-08  0.10566000000E+00  0.10566000000E+00 0. -1.
     999900   -1    0    0    0    0 -0.00000000000E+00 -0.00000000000E+00 -0.74505805969E-08  0.93827000000E+00  0.93827000000E+00 0.  1.
     999902    2    1    2    0    0 -0.17170629630E-01  0.16098354964E-01 -0.67368393576E-03  0.10203834205E+01  0.10201117015E+01 0.  0.
     999903    2    3    3    0    0  0.19223741146E-01 -0.11153235699E+00 -0.57880316849E-01  0.12859490990E+00  0.19429382219E-01 0.  0.
         14    1    1    2    0    0  0.17170629630E-01 -0.16098354964E-01  0.67368393576E-03  0.23546579465E-01  0.00000000000E+00 0.  1.
     999901    1    3    3    0    0 -0.36394370776E-01  0.12763071195E+00  0.57206632913E-01  0.89178851064E+00  0.88000000000E+00 0.  1.
        -11    1    4    4    0    0  0.72877000770E-02 -0.35332037974E-01 -0.28797370662E-01  0.46162898066E-01  0.51100000000E-03 0. -1.
         11    1    4    4    0    0  0.11936041069E-01 -0.76200319015E-01 -0.29082946187E-01  0.82432011830E-01  0.51100000000E-03 0.  1.
</event>
<event>
 8    1  0.1150307E+005  0.1043930E+01  0.7957747E-01            NaN
         13   -1    0    0    0    0  0.00000000000E+00  0.00000000000E+00  0.74505805969E-08  0.10566000000E+00  0.10566000000E+00 0. -1.
     999900   -1    0    0    0    0 -0.00000000000E+00 -0.00000000000E+00 -0.74505805969E-08  0.93827000000E+00  0.93827000000E+00 0.  1.
     999902    2    1    2    0    0 -0.55458805763E-02  0.11689832978E-01 -0.20419037544E-01  0.10197567487E+01  0.10194701959E+01 0.  0.
     999903    2    3    3    0    0  0.94701798568E-01  0.61303640716E-01 -0.64056054462E-01  0.13160399358E+00  0.22132916598E-01 0.  0.
         14    1    1    2    0    0  0.55458805763E-02 -0.11689832978E-01  0.20419037544E-01  0.24173251346E-01  0.00000000000E+00 0. -1.
     999901    1    3    3    0    0 -0.10024767914E+00 -0.49613807738E-01  0.43637016918E-01  0.88815275507E+00  0.88000000000E+00 0.  1.
        -11    1    4    4    0    0  0.31524393523E-01  0.26140635083E-01 -0.34274918691E-01  0.53405536809E-01  0.51100000000E-03 0. -1.
         11    1    4    4    0    0  0.63177405045E-01  0.35163005633E-01 -0.29781135771E-01  0.78198456776E-01  0.51100000000E-03 0.  1.
</event>
<event>
 8    1  0.1150307E+005  0.1043930E+01  0.7957747E-01            NaN
         13   -1    0    0    0    0  0.00000000000E+00  0.00000000000E+00  0.74505805969E-08  0.10566000000E+00  0.10566000000E+00 0.  1.
     999900   -1    0    0    0    0 -0.00000000000E+00 -0.00000000000E+00 -0.74505805969E-08  0.93827000000E+00  0.93827000000E+00 0. -1.
     999902    2    1    2    0    0  0.35663073185E-03 -0.20132595632E-01  0.12333079352E-01  0.10203174305E+01  0.10200441684E+01 0.  0.
     999903    2    3    3    0    0  0.12719208327E+00  0.17012764654E-01 -0.94051193345E-02  0.13018285691E+00  0.19795447841E-01 0.  0.
         14    1    1    2    0    0 -0.35663073185E-03  0.20132595632E-01 -0.12333079352E-01  0.23612569506E-01  0.00000000000E+00 0. -1.
     999901    1    3    3    0    0 -0.12683545254E+00 -0.37145360286E-01  0.21738198687E-01  0.89013457359E+00  0.88000000000E+00 0.  1.
        -11    1    4    4    0    0  0.37525370977E-01  0.54548242778E-02 -0.11875524020E-01  0.39739121362E-01  0.51100000000E-03 0.  1.
         11    1    4    4    0    0  0.89666712293E-01  0.11557940376E-01  0.24704046858E-02  0.90443735545E-01  0.51100000000E-03 0. -1.
</event>
<event>
 8    1  0.1150307E+005  0.1043930E+01  0.7957747E-01            NaN
         13   -1    0    0    0    0  0.00000000000E+00  0.00000000000E+00  0.74505805969E-08  0.10566000000E+00  0.10566000000E+00 0.  1.
     999900   -1    0    0    0    0 -0.00000000000E+00 -0.00000000000E+00 -0.74505805969E-08  0.93827000000E+00  0.93827000000E+00 0. -1.
     999902    2    1    2    0    0  0.18164530139E-01  0.77259194140E-02 -0.13400578542E-01  0.10200717626E+01  0.10197927169E+01 0.  0.
     999903    2    3    3    0    0  0.19378353890E-01 -0.90848894114E-01 -0.90712204814E-01  0.13119856874E+00  0.18849885302E-01 0.  0.
         14    1    1    2    0    0 -0.18164530139E-01 -0.77259194140E-02  0.13400578542E-01  0.23858237387E-01  0.00000000000E+00 0.  1.
     999901    1    3    3    0    0 -0.12138237516E-02  0.98574813528E-01  0.77311626272E-01  0.88887319387E+00  0.88000000000E+00 0.  1.
        -11    1    4    4    0    0  0.90972775707E-02 -0.11034822514E-01 -0.13581092375E-01  0.19729038452E-01  0.51100000000E-03 0. -1.
         11    1    4    4    0    0  0.10281076319E-01 -0.79814071600E-01 -0.77131112439E-01  0.11146953029E+00  0.51100000000E-03 0.  1.
</event>
<event>
 8    1  0.1150307E+005  0.1043930E+01  0.7957747E-01            NaN
         13   -1    0    0    0    0  0.00000000000E+00  0.00000000000E+00  0.74505805969E-08  0.10566000000E+00  0.10566000000E+00 0. -1.
     999900   -1    0    0    0    0 -0.00000000000E+00 -0.00000000000E+00 -0.74505805969E-08  0.93827000000E+00  0.93827000000E+00 0.  1.
     999902    2    1    2    0    0 -0.10603858179E-01  0.89581049538E-02 -0.21593108561E-01  0.10182599437E+01  0.10179363247E+01 0.  0.
     999903    2    3    3    0    0  0.12282500014E-01  0.12570525072E+00 -0.24303292429E-01  0.13025035675E+00  0.20538635448E-01 0.  0.
         14    1    1    2    0    0  0.10603858179E-01 -0.89581049538E-02  0.21593108561E-01  0.25670056290E-01  0.00000000000E+00 0. -1.
     999901    1    3    3    0    0 -0.22886358193E-01 -0.11674714576E+00  0.27101838688E-02  0.88800958696E+00  0.88000000000E+00 0. -1.
        -11    1    4    4    0    0  0.12631266285E-01  0.61104315971E-01 -0.19907882450E-01  0.65497108507E-01  0.51100000000E-03 0.  1.
         11    1    4    4    0    0 -0.34876627053E-03  0.64600934747E-01 -0.43954099796E-02  0.64753248243E-01  0.51100000000E-03 0. -1.
</event>
<event>
 8    1  0.1150307E+005  0.1043930E+01  0.7957747E-01            NaN
         13   -1    0    0    0    0  0.00000000000E+00  0.00000000000E+00  0.74505805969E-08  0.10566000000E+00  0.10566000000E+00 0.  1.
     999900   -1    0    0    0    0 -0.00000000000E+00 -0.00000000000E+00 -0.74505805969E-08  0.93827000000E+00  0.93827000000E+00 0. -1.
     999902    2    1    2    0    0  0.22253476755E-01  0.95125340981E-03  0.58807326019E-02  0.10208929619E+01  0.10206330067E+01 0.  0.
     999903    2    3    3    0    0  0.46219249385E-01  0.65472883512E-01  0.10395566071E+00  0.13277354954E+00  0.19977952174E-01 0.  0.
         14    1    1    2    0    0 -0.22253476755E-01 -0.95125340981E-03 -0.58807326019E-02  0.23037038149E-01  0.00000000000E+00 0.  1.
     999901    1    3    3    0    0 -0.23965772630E-01 -0.64521630102E-01 -0.98074928110E-01  0.88811941232E+00  0.88000000000E+00 0. -1.
        -11    1    4    4    0    0  0.20869653200E-01  0.22815343266E-01  0.26195383764E-01  0.40528281046E-01  0.51100000000E-03 0.  1.
         11    1    4    4    0    0  0.25349596185E-01  0.42657540246E-01  0.77760276948E-01  0.92245268489E-01  0.51100000000E-03 0. -1.
</event>
<event>
 8    1  0.1150307E+005  0.1043930E+01  0.7957747E-01            NaN
         13   -1    0    0    0    0  0.00000000000E+00  0.00000000000E+00  0.74505805969E-08  0.10566000000E+00  0.10566000000E+00 0. -1.
     999900   -1    0    0    0    0 -0.00000000000E+00 -0.00000000000E+00 -0.74505805969E-08  0.93827000000E+00  0.93827000000E+00 0. -1.
     999902    2    1    2    0    0  0.10313519056E-01 -0.21679900130E-01 -0.19937800269E-01  0.10127225870E+01  0.10122416390E+01 0.  0.
     999903    2    3    3    0    0 -0.11252028794E+00 -0.45333996122E-01  0.10657683873E-01  0.12334991820E+00  0.19637456372E-01 0.  0.
         14    1    1    2    0    0 -0.10313519056E-01  0.21679900130E-01  0.19937800269E-01  0.31207412974E-01  0.00000000000E+00 0. -1.
     999901    1    3    3    0    0  0.12283380700E+00  0.23654095991E-01 -0.30595484142E-01  0.88937266882E+00  0.88000000000E+00 0. -1.
        -11    1    4    4    0    0 -0.10526479271E+00 -0.36842136215E-01  0.11603142128E-01  0.11212900434E+00  0.51100000000E-03 0.  1.
         11    1    4    4    0    0 -0.72554952300E-02 -0.84918599065E-02 -0.94545825471E-03  0.11220913867E-01  0.51100000000E-03 0. -1.
</event>
<event>
 8    1  0.1150307E+005  0.1043930E+01  0.7957747E-01            NaN
         13   -1    0    0    0    0  0.00000000000E+00  0.00000000000E+00  0.74505805969E-08  0.10566000000E+00  0.10566000000E+00 0.  1.
     999900   -1    0    0    0    0 -0.00000000000E+00 -0.00000000000E+00 -0.74505805969E-08  0.93827000000E+00  0.93827000000E+00 0.  1.
     999902    2    1    2    0    0  0.27185704644E-02  0.22989564020E-01  0.28223684682E-02  0.10206088413E+01  0.10203423595E+01 0.  0.
     999903    2    3    3    0    0 -0.33239032108E-01  0.47234168882E-01  0.11713066397E+00  0.13215673991E+00  0.20246271196E-01 0.  0.
         14    1    1    2    0    0 -0.27185704644E-02 -0.22989564020E-01 -0.28223684682E-02  0.23321158697E-01  0.00000000000E+00 0.  1.
     999901    1    3    3    0    0  0.35957602572E-01 -0.24244604862E-01 -0.11430829550E+00  0.88845210139E+00  0.88000000000E+00 0.  1.
        -11    1    4    4    0    0 -0.86045212401E-02  0.28010336267E-01  0.47163361959E-01  0.55527115501E-01  0.51100000000E-03 0.  1.
         11    1    4    4    0    0 -0.24634510868E-01  0.19223832615E-01  0.69967302007E-01  0.76629624410E-01  0.51100000000E-03 0. -1.
</event>
<event>
 8    1  0.1150307E+005  0.1043930E+01  0.7957747E-01            NaN
         13   -1    0    0    0    0  0.00000000000E+00  0.00000000000E+00  0.74505805969E-08  0.10566000000E+00  0.10566000000E+00 0. -1.
     999900   -1    0    0    0    0 -0.00000000000E+00 -0.00000000000E+00 -0.74505805969E-08  0.93827000000E+00  0.93827000000E+00 0. -1.
     999902    2    1    2    0    0 -0.16197028056E-03  0.11852049847E-01  0.20078797561E-01  0.10206135802E+01  0.10203472079E+01 0.  0.
     999903    2    3    3    0    0  0.10008494369E+00 -0.77767606842E-02  0.83937302512E-01  0.13240603543E+00  0.20209243092E-01 0.  0.
         14    1    1    2    0    0  0.16197028056E-03 -0.11852049847E-01 -0.20078797561E-01  0.23316419782E-01  0.00000000000E+00 0.  1.
     999901    1    3    3    0    0 -0.10024691397E+00  0.19628810531E-01 -0.63858504951E-01  0.88820754479E+00  0.88000000000E+00 0.  1.
        -11    1    4    4    0    0  0.26004671259E-01  0.46660229522E-02  0.29692595317E-01  0.39748283424E-01  0.51100000000E-03 0. -1.
         11    1    4    4    0    0  0.74080272426E-01 -0.12442783636E-01  0.54244707195E-01  0.92657752007E-01  0.51100000000E-03 0.  1.
</event>
<event>
 8    1  0.1150307E+005  0.1043930E+01  0.7957747E-01            NaN
         13   -1    0    0    0    0  0.00000000000E+00  0.00000000000E+00  0.74505805969E-08  0.10566000000E+00  0.10566000000E+00 0. -1.
     999900   -1    0    0    0    0 -0.00000000000E+00 -0.00000000000E+00 -0.74505805969E-08  0.93827000000E+00  0.93827000000E+00 0. -1.
     999902    2    1    2    0    0  0.15687272399E-01 -0.16125188884E-01  0.82681262564E-02  0.10199618098E+01  0.10196801553E+01 0.  0.
     999903    2    3    3    0    0 -0.70481294212E-01 -0.79533204753E-01  0.73978270946E-01  0.13105044102E+00  0.20206187855E-01 0.  0.
         14    1    1    2    0    0 -0.15687272399E-01  0.16125188884E-01 -0.82681262564E-02  0.23968190245E-01  0.00000000000E+00 0. -1.
     999901    1    3    3    0    0  0.86168566611E-01  0.63408015869E-01 -0.65710144690E-01  0.88891136873E+00  0.88000000000E+00 0. -1.
        -11    1    4    4    0    0 -0.41835890683E-01 -0.36008091215E-01  0.46302893342E-01  0.72048896140E-01  0.51100000000E-03 0.  1.
         11    1    4    4    0    0 -0.28645403529E-01 -0.43525113538E-01  0.27675377605E-01  0.59001544881E-01  0.51100000000E-03 0. -1.
</event>
<event>
 8    1  0.1150307E+005  0.1043930E+01  0.7957747E-01            NaN
         13   -1    0    0    0    0  0.00000000000E+00  0.00000000000E+00  0.74505805969E-08  0.10566000000E+00  0.10566000000E+00 0.  1.
     999900   -1    0    0    0    0 -0.00000000000E+00 -0.00000000000E+00 -0.74505805969E-08  0.93827000000E+00  0.93827000000E+00 0. -1.
     999902    2    1    2    0    0 -0.75854216988E-02  0.11706101464E-01  0.17968111525E-01  0.10211830339E+01  0.10209296569E+01 0.  0.
     999903    2    3    3    0    0 -0.43415209877E-01 -0.49096394084E-01  0.11393515714E+00  0.13315691323E+00  0.21312136207E-01 0.  0.
         14    1    1    2    0    0  0.75854216988E-02 -0.11706101464E-01 -0.17968111525E-01  0.22746966075E-01  0.00000000000E+00 0. -1.
     999901    1    3    3    0    0  0.35829788178E-01  0.60802495549E-01 -0.95967045611E-01  0.88802612069E+00  0.88000000000E+00 0. -1.
        -11    1    4    4    0    0 -0.33455543459E-01 -0.22233443280E-01  0.63129299373E-01  0.74827594833E-01  0.51100000000E-03 0.  1.
         11    1    4    4    0    0 -0.99596664183E-02 -0.26862950804E-01  0.50805857763E-01  0.58329318401E-01  0.51100000000E-03 0. -1.
</event>
<event>
 8    1  0.1150307E+005  0.1043930E+01  0.7957747E-01            NaN
         13   -1    0    0    0    0  0.00000000000E+00  0.00000000000E+00  0.74505805969E-08  0.10566000000E+00  0.10566000000E+00 0. -1.
     999900   -1    0    0    0    0 -0.00000000000E+00 -0.00000000000E+00 -0.74505805969E-08  0.93827000000E+00  0.93827000000E+00 0. -1.
     999902    2    1    2    0    0  0.16155794030E-01  0.17441604977E-01  0.43837962963E-02  0.10197548695E+01  0.10194682717E+01 0.  0.
     999903    2    3    3    0    0  0.86932785232E-01  0.90219879974E-01  0.41684537698E-01  0.13313352692E+00  0.17029369256E-01 0.  0.
         14    1    1    2    0    0 -0.16155794030E-01 -0.17441604977E-01 -0.43837962963E-02  0.24175130504E-01  0.00000000000E+00 0.  1.
     999901    1    3    3    0    0 -0.70776991202E-01 -0.72778274998E-01 -0.37300741402E-01  0.88662134257E+00  0.88000000000E+00 0. -1.
        -11    1    4    4    0    0  0.79356844257E-01  0.73962269356E-01  0.35054584160E-01  0.11400443417E+00  0.51100000000E-03 0.  1.
         11    1    4    4    0    0  0.75759409751E-02  0.16257610618E-01  0.66299535387E-02  0.19129092754E-01  0.51100000000E-03 0. -1.
</event>
<event>
 7    1  0.1150307E+005  0.1043930E+01  0.7957747E-01            NaN
         13   -1    0    0    0    0  0.00000000000E+00  0.00000000000E+00  0.74505805969E-08  0.10566000000E+00  0.10566000000E+00 0. -1.
     999900   -1    0    0    0    0 -0.00000000000E+00 -0.00000000000E+00 -0.74505805969E-08  0.93827000000E+00  0.93827000000E+00 0. -1.
     999903    2    1    2    0    0 -0.15917028099E-01  0.99654267525E-02 -0.82730009510E-01  0.87278998388E-01  0.20511157262E-01 0.  0.
         14    1    1    2    0    0 -0.33612406130E-01  0.68359601948E-02 -0.54585394952E-01  0.64467740302E-01  0.00000000000E+00 0. -1.
     999901    1    1    2    0    0  0.49529434229E-01 -0.16801386947E-01  0.13731540446E+00  0.89218326131E+00  0.88000000000E+00 0.  1.
        -11    1    3    3    0    0  0.41625920694E-02  0.55834747531E-02 -0.16093129183E-01  0.17542870089E-01  0.51100000000E-03 0. -1.
         11    1    3    3    0    0 -0.20079620169E-01  0.43819519994E-02 -0.66636880327E-01  0.69736128299E-01  0.51100000000E-03 0.  1.
</event>
<event>
 8    1  0.1150307E+005  0.1043930E+01  0.7957747E-01            NaN
         13   -1    0    0    0    0  0.00000000000E+00  0.00000000000E+00  0.74505805969E-08  0.10566000000E+00  0.10566000000E+00 0.  1.
     999900   -1    0    0    0    0 -0.00000000000E+00 -0.00000000000E+00 -0.74505805969E-08  0.93827000000E+00  0.93827000000E+00 0.  1.
     999902    2    1    2    0    0  0.12979687308E-01  0.20513988657E-01 -0.38685525130E-02  0.10193482647E+01  0.10190518255E+01 0.  0.
     999903    2    3    3    0    0  0.68625211509E-01 -0.10651641203E+00 -0.79616694200E-02  0.12847795948E+00  0.19698533114E-01 0.  0.
         14    1    1    2    0    0 -0.12979687308E-01 -0.20513988657E-01  0.38685525130E-02  0.24581735329E-01  0.00000000000E+00 0.  1.
     999901    1    3    3    0    0 -0.55645524201E-01  0.12703040068E+00  0.40931169070E-02  0.89087030519E+00  0.88000000000E+00 0. -1.
        -11    1    4    4    0    0  0.44643222646E-01 -0.84689557556E-01 -0.76863262472E-02  0.96045193630E-01  0.51100000000E-03 0. -1.
         11    1    4    4    0    0  0.23981988863E-01 -0.21826854471E-01 -0.27534317283E-03  0.32432765852E-01  0.51100000000E-03 0.  1.
</event>
<event>
 8    1  0.1150307E+005  0.1043930E+01  0.7957747E-01            NaN
         13   -1    0    0    0    0  0.00000000000E+00  0.00000000000E+00  0.74505805969E-08  0.10566000000E+00  0.10566000000E+00 0. -1.
     999900   -1    0    0    0    0 -0.00000000000E+00 -0.00000000000E+00 -0.74505805969E-08  0.93827000000E+00  0.93827000000E+00 0.  1.
     999902    2    1    2    0    0 -0.19195826615E-01  0.97338745351E-03  0.18713117206E-01  0.10171044898E+01  0.10167506750E+01 0.  0.
     999903    2    3    3    0    0  0.11815848268E+00 -0.36269949352E-01 -0.48503617556E-02  0.12535984587E+00  0.20362433371E-01 0.  0.
         14    1    1    2    0    0  0.19195826615E-01 -0.97338745351E-03 -0.18713117206E-01  0.26825510212E-01  0.00000000000E+00 0.  1.
     999901    1    3    3    0    0 -0.13735430929E+00  0.37243336805E-01  0.23563478962E-01  0.89174464392E+00  0.88000000000E+00 0. -1.
        -11    1    4    4    0    0  0.34814463549E-01 -0.18402132656E-01  0.43676868744E-02  0.39623517867E-01  0.51100000000E-03 0. -1.
         11    1    4    4    0    0  0.83344019128E-01 -0.17867816696E-01 -0.92180486301E-02  0.85736328003E-01  0.51100000000E-03 0.  1.
</event>
<event>
 8    1  0.1150307E+005  0.1043930E+01  0.7957747E-01            NaN
         13   -1    0    0    0    0  0.00000000000E+00  0.00000000000E+00  0.74505805969E-08  0.10566000000E+00  0.10566000000E+00 0.  1.
     999900   -1    0    0    0    0 -0.00000000000E+00 -0.00000000000E+00 -0.74505805969E-08  0.93827000000E+00  0.93827000000E+00 0.  1.
     999902    2    1    2    0    0  0.22768525334E-01  0.16021891651E-02  0.58474951052E-02  0.10203680401E+01  0.10200959618E+01 0.  0.
     999903    2    3    3    0    0  0.54657557396E-01 -0.65612542289E-01  0.99154962493E-01  0.13231341679E+00  0.19562192847E-01 0.  0.
         14    1    1    2    0    0 -0.22768525334E-01 -0.16021891651E-02 -0.58474951052E-02  0.23561959914E-01  0.00000000000E+00 0. -1.
     999901    1    3    3    0    0 -0.31889032062E-01  0.67214731455E-01 -0.93307467388E-01  0.88805462330E+00  0.88000000000E+00 0.  1.
        -11    1    4    4    0    0  0.22709618517E-02 -0.13149024314E-01  0.12809226993E-01  0.18503824613E-01  0.51100000000E-03 0. -1.
         11    1    4    4    0    0  0.52386595544E-01 -0.52463517976E-01  0.86345735500E-01  0.11380959218E+00  0.51100000000E-03 0.  1.
</event>
<event>
 8    1  0.1150307E+005  0.1043930E+01  0.7957747E-01            NaN
         13   -1    0    0    0    0  0.00000000000E+00  0.00000000000E+00  0.74505805969E-08  0.10566000000E+00  0.10566000000E+00 0.  1.
     999900   -1    0    0    0    0 -0.00000000000E+00 -0.00000000000E+00 -0.74505805969E-08  0.93827000000E+00  0.93827000000E+00 0. -1.
     999902    2    1    2    0    0  0.86496068839E-02  0.19257311133E-01 -0.10674089335E-01  0.10202742203E+01  0.10199999454E+01 0.  0.
     999903    2    3    3    0    0  0.11513248769E+00 -0.22004680946E-01 -0.56835309720E-01  0.13169557200E+00  0.19333275702E-01 0.  0.
         14    1    1    2    0    0 -0.86496068839E-02 -0.19257311133E-01  0.10674089335E-01  0.23655779726E-01  0.00000000000E+00 0.  1.
     999901    1    3    3    0    0 -0.10648288080E+00  0.41261992079E-01  0.46161220384E-01  0.88857864827E+00  0.88000000000E+00 0.  1.
        -11    1    4    4    0    0  0.10437612387E+00 -0.14229889034E-01 -0.52667248385E-01  0.11777506166E+00  0.51100000000E-03 0.  1.
         11    1    4    4    0    0  0.10756363819E-01 -0.77747919114E-02 -0.41680613349E-02  0.13920510341E-01  0.51100000000E-03 0. -1.
</event>
<event>
 8    1  0.1150307E+005  0.1043930E+01  0.7957747E-01            NaN
         13   -1    0    0    0    0  0.00000000000E+00  0.00000000000E+00  0.74505805969E-08  0.10566000000E+00  0.10566000000E+00 0. -1.
     999900   -1    0    0    0    0 -0.00000000000E+00 -0.00000000000E+00 -0.74505805969E-08  0.93827000000E+00  0.93827000000E+00 0. -1.
     999902    2    1    2    0    0  0.34073146653E-02 -0.12549512910E-01  0.16450426197E-01  0.10229605797E+01  0.10227456335E+01 0.  0.
     999903    2    3    3    0    0  0.55492870633E-02  0.85584024292E-01 -0.96067225819E-01  0.13038285128E+00  0.20380290272E-01 0.  0.
         14    1    1    2    0    0 -0.34073146653E-02  0.12549512910E-01 -0.16450426197E-01  0.20969420344E-01  0.00000000000E+00 0.  1.
     999901    1    3    3    0    0 -0.21419723980E-02 -0.98133537202E-01  0.11251765202E+00  0.89257772837E+00  0.88000000000E+00 0.  1.
        -11    1    4    4    0    0  0.22087652614E-02  0.51186082012E-01 -0.71565322817E-01  0.88015624673E-01  0.51100000000E-03 0.  1.
         11    1    4    4    0    0  0.33405218019E-02  0.34397942280E-01 -0.24501903002E-01  0.42367226611E-01  0.51100000000E-03 0. -1.
</event>
<event>
 8    1  0.1150307E+005  0.1043930E+01  0.7957747E-01            NaN
         13   -1    0    0    0    0  0.00000000000E+00  0.00000000000E+00  0.74505805969E-08  0.10566000000E+00  0.10566000000E+00 0.  1.
     999900   -1    0    0    0    0 -0.00000000000E+00 -0.00000000000E+00 -0.74505805969E-08  0.93827000000E+00  0.93827000000E+00 0.  1.
     999902    2    1    2    0    0  0.11483498054E-01 -0.17153276670E-01 -0.63948126272E-02  0.10223198344E+01  0.10220914072E+01 0.  0.
     999903    2    3    3    0    0 -0.43898975214E-01  0.99557649391E-01 -0.69555356331E-01  0.13064841910E+00  0.19804450057E-01 0.  0.
         14    1    1    2    0    0 -0.11483498054E-01  0.17153276670E-01  0.63948126272E-02  0.21610165585E-01  0.00000000000E+00 0. -1.
     999901    1    3    3    0    0  0.55382473268E-01 -0.11671092606E+00  0.63160543704E-01  0.89167141531E+00  0.88000000000E+00 0. -1.
        -11    1    4    4    0    0 -0.22425404042E-01  0.44379304110E-01 -0.43061339201E-01  0.65779643010E-01  0.51100000000E-03 0. -1.
         11    1    4    4    0    0 -0.21473571172E-01  0.55178345281E-01 -0.26494017130E-01  0.64868776091E-01  0.51100000000E-03 0.  1.
</event>
<event>
 8    1  0.1150307E+005  0.1043930E+01  0.7957747E-01            NaN
         13   -1    0    0    0    0  0.00000000000E+00  0.00000000000E+00  0.74505805969E-08  0.10566000000E+00  0.10566000000E+00 0. -1.
     999900   -1    0    0    0    0 -0.00000000000E+00 -0.00000000000E+00 -0.74505805969E-08  0.93827000000E+00  0.93827000000E+00 0.  1.
     999902    2    1    2    0    0  0.14735827614E-02  0.17025283019E-01 -0.16774403546E-01  0.10199839706E+01  0.10197028430E+01 0.  0.
     999903    2    3    3    0    0 -0.55106788417E-01 -0.22001727328E-01 -0.11597749210E+00  0.13174655940E+00  0.19635251574E-01 0.  0.
         14    1    1    2    0    0 -0.14735827614E-02 -0.17025283019E-01  0.16774403546E-01  0.23946029365E-01  0.00000000000E+00 0. -1.
     999901    1    3    3    0    0  0.56580371178E-01  0.39027010347E-01  0.99203088556E-01  0.88823741124E+00  0.88000000000E+00 0. -1.
        -11    1    4    4    0    0  0.13037421936E-02  0.81123947670E-03 -0.37300364439E-02  0.40659741845E-02  0.51100000000E-03 0.  1.
         11    1    4    4    0    0 -0.56410530610E-01 -0.22812966805E-01 -0.11224745566E+00  0.12768058522E+00  0.51100000000E-03 0. -1.
</event>
<event>
 8    1  0.1150307E+005  0.1043930E+01  0.7957747E-01            NaN
         13   -1    0    0    0    0  0.00000000000E+00  0.00000000000E+00  0.74505805969E-08  0.10566000000E+00  0.10566000000E+00 0.  1.
     999900   -1    0    0    0    0 -0.00000000000E+00 -0.00000000000E+00 -0.74505805969E-08  0.93827000000E+00  0.93827000000E+00 0.  1.
     999902    2    1    2    0    0 -0.22550187557E-01 -0.36918624117E-02  0.43544982351E-02  0.10206683908E+01  0.10204032838E+01 0.  0.
     999903    2    3    3    0    0  0.19410931212E-01  0.12497113213E+00  0.23737408514E-01  0.13011204849E+00  0.19264279958E-01 0.  0.
         14    1    1    2    0    0  0.22550187557E-01  0.36918624117E-02 -0.43544982351E-02  0.23261609184E-01  0.00000000000E+00 0. -1.
     999901    1    3    3    0    0 -0.41961118769E-01 -0.12866299454E+00 -0.19382910279E-01  0.89055634233E+00  0.88000000000E+00 0. -1.
        -11    1    4    4    0    0  0.23153972599E-03  0.40194392358E-01  0.14363334767E-01  0.42687343491E-01  0.51100000000E-03 0.  1.
         11    1    4    4    0    0  0.19179391486E-01  0.84776739771E-01  0.93740737470E-02  0.87424704996E-01  0.51100000000E-03 0. -1.
</event>
<event>
 8    1  0.1150307E+005  0.1043930E+01  0.7957747E-01            NaN
         13   -1    0    0    0    0  0.00000000000E+00  0.00000000000E+00  0.74505805969E-08  0.10566000000E+00  0.10566000000E+00 0.  1.
     999900   -1    0    0    0    0 -0.00000000000E+00 -0.00000000000E+00 -0.74505805969E-08  0.93827000000E+00  0.93827000000E+00 0.  1.
     999902    2    1    2    0    0 -0.48693941768E-02  0.10906799379E-02 -0.23849963416E-01  0.10195636023E+01  0.10192723963E+01 0.  0.
     999903    2    3    3    0    0 -0.56256514614E-02  0.16424231436E-01  0.12423052092E+00  0.12705952971E+00  0.20236067531E-01 0.  0.
         14    1    1    2    0    0  0.48693941768E-02 -0.10906799379E-02  0.23849963416E-01  0.24366397709E-01  0.00000000000E+00 0.  1.
     999901    1    3    3    0    0  0.75625728455E-03 -0.15333551498E-01 -0.14808048434E+00  0.89250407258E+00  0.88000000000E+00 0.  1.
        -11    1    4    4    0    0 -0.27096918224E-02  0.21017730561E-01  0.98897760728E-01  0.10114403406E+00  0.51100000000E-03 0. -1.
         11    1    4    4    0    0 -0.29159596390E-02 -0.45934991250E-02  0.25332760196E-01  0.25915495654E-01  0.51100000000E-03 0.  1.
</event>
<event>
 8    1  0.1150307E+005  0.1043930E+01  0.7957747E-01            NaN
         13   -1    0    0    0    0  0.00000000000E+00  0.00000000000E+00  0.74505805969E-08  0.10566000000E+00  0.10566000000E+00 0.  1.
     999900   -1    0    0    0    0 -0.00000000000E+00 -0.00000000000E+00 -0.74505805969E-08  0.93827000000E+00  0.93827000000E+00 0.  1.
     999902    2    1    2    0    0  0.22556540700E-01  0.49437164557E-02  0.58230616342E-02  0.10201151746E+01  0.10198371554E+01 0.  0.
     999903    2    3    3    0    0 -0.22876765681E-01  0.29277291439E-01  0.12340156805E+00  0.13080026225E+00  0.22366390075E-01 0.  0.
         14    1    1    2    0    0 -0.22556540700E-01 -0.49437164557E-02 -0.58230616342E-02  0.23814825373E-01  0.00000000000E+00 0.  1.
     999901    1    3    3    0    0  0.45433306381E-01 -0.24333574984E-01 -0.11757850642E+00  0.88931491237E+00  0.88000000000E+00 0.  1.
        -11    1    4    4    0    0 -0.75877938617E-02  0.89282557840E-03  0.84108961219E-02  0.11374359225E-01  0.51100000000E-03 0. -1.
         11    1    4    4    0    0 -0.15288971819E-01  0.28384465861E-01  0.11499067193E+00  0.11942590303E+00  0.51100000000E-03 0.  1.
</event>
<event>
 8    1  0.1150307E+005  0.1043930E+01  0.7957747E-01            NaN
         13   -1    0    0    0    0  0.00000000000E+00  0.00000000000E+00  0.74505805969E-08  0.10566000000E+00  0.10566000000E+00 0.  1.
     999900   -1    0    0    0    0 -0.00000000000E+00 -0.00000000000E+00 -0.74505805969E-08  0.93827000000E+00  0.93827000000E+00 0. -1.
     999902    2    1    2    0    0  0.15019450019E-01 -0.18711493671E-01  0.17494974498E-02  0.10198724728E+01  0.10195886897E+01 0.  0.
     999903    2    3    3    0    0  0.44841439967E-01  0.10644137158E+00  0.53847879999E-01  0.12899266483E+00  0.19974811089E-01 0.  0.
         14    1    1    2    0    0 -0.15019450019E-01  0.18711493671E-01 -0.17494974498E-02  0.24057527213E-01  0.00000000000E+00 0.  1.
     999901    1    3    3    0    0 -0.29821989948E-01 -0.12515286525E+00 -0.52098382549E-01  0.89087980796E+00  0.88000000000E+00 0. -1.
        -11    1    4    4    0    0  0.37514449904E-01  0.10155084056E+00  0.51358024588E-01  0.11982410017E+00  0.51100000000E-03 0.  1.
         11    1    4    4    0    0  0.73269900633E-02  0.48905310142E-02  0.24898554118E-02  0.91685646620E-02  0.51100000000E-03 0. -1.
</event>
<event>
 8    1  0.1150307E+005  0.1043930E+01  0.7957747E-01            NaN
         13   -1    0    0    0    0  0.00000000000E+00  0.00000000000E+00  0.74505805969E-08  0.10566000000E+00  0.10566000000E+00 0. -1.
     999900   -1    0    0    0    0 -0.00000000000E+00 -0.00000000000E+00 -0.74505805969E-08  0.93827000000E+00  0.93827000000E+00 0. -1.
     999902    2    1    2    0    0 -0.17797126453E-01  0.10043362705E-01  0.12891942345E-01  0.10197678597E+01  0.10194815735E+01 0.  0.
     999903    2    3    3    0    0 -0.57689463106E-01  0.63880133649E-01  0.99933196327E-01  0.13293868999E+00  0.16652505504E-01 0.  0.
         14    1    1    2    0    0  0.17797126453E-01 -0.10043362705E-01 -0.12891942345E-01  0.24162140258E-01  0.00000000000E+00 0. -1.
     999901    1    3    3    0    0  0.39892336653E-01 -0.53836770944E-01 -0.87041253982E-01  0.88682916975E+00  0.88000000000E+00 0. -1.
        -11    1    4    4    0    0 -0.26427363372E-01  0.17544762798E-01  0.34097967867E-01  0.46574207133E-01  0.51100000000E-03 0. -1.
         11    1    4    4    0    0 -0.31262099734E-01  0.46335370851E-01  0.65835228460E-01  0.86364482856E-01  0.51100000000E-03 0.  1.
</event>
<event>
 8    1  0.1150307E+005  0.1043930E+01  0.7957747E-01            NaN
         13   -1    0    0    0    0  0.00000000000E+00  0.00000000000E+00  0.74505805969E-08  0.10566000000E+00  0.10566000000E+00 0. -1.
     999900   -1    0    0    0    0 -0.00000000000E+00 -0.00000000000E+00 -0.74505805969E-08  0.93827000000E+00  0.93827000000E+00 0.  1.
     999902    2    1    2    0    0  0.10969419604E-01  0.15248781790E-01 -0.13895143277E-01  0.10205648867E+01  0.10202973878E+01 0.  0.
     999903    2    3    3    0    0  0.12116285762E-01  0.61727623641E-02 -0.13041273106E+00  0.13283742983E+00  0.21293073142E-01 0.  0.
         14    1    1    2    0    0 -0.10969419604E-01 -0.15248781790E-01  0.13895143277E-01  0.23365113294E-01  0.00000000000E+00 0. -1.
     999901    1    3    3    0    0 -0.11468661571E-02  0.90760194258E-02  0.11651758779E+00  0.88772745688E+00  0.88000000000E+00 0. -1.
        -11    1    4    4    0    0  0.10677648230E-02 -0.21938226086E-02 -0.91383403822E-01  0.91417397658E-01  0.51100000000E-03 0. -1.
         11    1    4    4    0    0  0.11048520938E-01  0.83665849727E-02 -0.39029327243E-01  0.41420032171E-01  0.51100000000E-03 0.  1.
</event>
<event>
 8    1  0.1150307E+005  0.1043930E+01  0.7957747E-01            NaN
         13   -1    0    0    0    0  0.00000000000E+00  0.00000000000E+00  0.74505805969E-08  0.10566000000E+00  0.10566000000E+00 0. -1.
     999900   -1    0    0    0    0 -0.00000000000E+00 -0.00000000000E+00 -0.74505805969E-08  0.93827000000E+00  0.93827000000E+00 0. -1.
     999902    2    1    2    0    0 -0.83379492640E-02  0.16294120816E-01  0.65705358354E-02  0.10244828482E+01  0.10242982547E+01 0.  0.
     999903    2    3    3    0    0 -0.70632853765E-02  0.13422963689E+00  0.13891966072E-01  0.13658419744E+00  0.19868841154E-01 0.  0.
         14    1    1    2    0    0  0.83379492640E-02 -0.16294120816E-01 -0.65705358354E-02  0.19447151777E-01  0.00000000000E+00 0.  1.
     999901    1    3    3    0    0 -0.12746638875E-02 -0.11793551608E+00 -0.73214302366E-02  0.88789865078E+00  0.88000000000E+00 0. -1.
        -11    1    4    4    0    0 -0.12736346706E-01  0.61579312834E-01  0.35992634221E-02  0.62987634618E-01  0.51100000000E-03 0. -1.
         11    1    4    4    0    0  0.56730613300E-02  0.72650324058E-01  0.10292702650E-01  0.73596562823E-01  0.51100000000E-03 0.  1.
</event>
<event>
 8    1  0.1155100E+005  0.1043930E+01  0.7957747E-01            NaN
         13   -1    0    0    0    0  0.00000000000E+00  0.00000000000E+00  0.74505805969E-08  0.10566000000E+00  0.10566000000E+00 0.  1.
     999900   -1    0    0    0    0 -0.00000000000E+00 -0.00000000000E+00 -0.74505805969E-08  0.93827000000E+00  0.93827000000E+00 0.  1.
     999902    2    1    2    0    0 -0.10644218623E-01  0.86953776067E-03 -0.21261398496E-01  0.10201370903E+01  0.10198595886E+01 0.  0.
     999903    2    3    3    0    0 -0.39683668417E-01  0.10736405030E+00  0.58031612399E-01  0.12970362708E+00  0.18802393567E-01 0.  0.
         14    1    1    2    0    0  0.10644218623E-01 -0.86953776067E-03  0.21261398496E-01  0.23792909701E-01  0.00000000000E+00 0.  1.
     999901    1    3    3    0    0  0.29039449794E-01 -0.10649451254E+00 -0.79293010895E-01  0.89043346322E+00  0.88000000000E+00 0.  1.
        -11    1    4    4    0    0 -0.23937761804E-01  0.65853215223E-01  0.45579410766E-01  0.83590706434E-01  0.51100000000E-03 0. -1.
         11    1    4    4    0    0 -0.15745906612E-01  0.41510835078E-01  0.12452201634E-01  0.46112920645E-01  0.51100000000E-03 0.  1.
</event>
<event>
 8    1  0.1150307E+005  0.1043930E+01  0.7957747E-01            NaN
         13   -1    0    0    0    0  0.00000000000E+00  0.00000000000E+00  0.74505805969E-08  0.10566000000E+00  0.10566000000E+00 0.  1.
     999900   -1    0    0    0    0 -0.00000000000E+00 -0.00000000000E+00 -0.74505805969E-08  0.93827000000E+00  0.93827000000E+00 0.  1.
     999902    2    1    2    0    0  0.16106843975E-01 -0.16952792552E-01  0.31585097927E-02  0.10203333099E+01  0.10200604196E+01 0.  0.
     999903    2    3    3    0    0  0.51153634997E-01 -0.12168347115E+00 -0.71620585073E-04  0.13342450608E+00  0.19455903189E-01 0.  0.
         14    1    1    2    0    0 -0.16106843975E-01  0.16952792552E-01 -0.31585097927E-02  0.23596690071E-01  0.00000000000E+00 0. -1.
     999901    1    3    3    0    0 -0.35046791022E-01  0.10473067860E+00  0.32301303778E-02  0.88690880385E+00  0.88000000000E+00 0. -1.
        -11    1    4    4    0    0  0.24440029198E-01 -0.72850816455E-01  0.76694430091E-02  0.77224594284E-01  0.51100000000E-03 0. -1.
         11    1    4    4    0    0  0.26713605799E-01 -0.48832654696E-01 -0.77410635941E-02  0.56199911797E-01  0.51100000000E-03 0.  1.
</event>
<event>
 8    1  0.1150307E+005  0.1043930E+01  0.7957747E-01            NaN
         13   -1    0    0    0    0  0.00000000000E+00  0.00000000000E+00  0.74505805969E-08  0.10566000000E+00  0.10566000000E+00 0. -1.
     999900   -1    0    0    0    0 -0.00000000000E+00 -0.00000000000E+00 -0.74505805969E-08  0.93827000000E+00  0.93827000000E+00 0. -1.
     999902    2    1    2    0    0  0.31289390900E-02 -0.20803070343E-01 -0.12033999250E-01  0.10196941766E+01  0.10194061206E+01 0.  0.
     999903    2    3    3    0    0 -0.10594034335E+00 -0.46631216091E-01 -0.58768690605E-01  0.13135452716E+00  0.20060561974E-01 0.  0.
         14    1    1    2    0    0 -0.31289390900E-02  0.20803070343E-01  0.12033999250E-01  0.24235823351E-01  0.00000000000E+00 0. -1.
     999901    1    3    3    0    0  0.10906928244E+00  0.25828145747E-01  0.46734691355E-01  0.88833964949E+00  0.88000000000E+00 0.  1.
        -11    1    4    4    0    0 -0.83357780469E-01 -0.40870913870E-01 -0.54503985205E-01  0.10765638248E+00  0.51100000000E-03 0.  1.
         11    1    4    4    0    0 -0.22582562878E-01 -0.57603022212E-02 -0.42647053999E-02  0.23698144673E-01  0.51100000000E-03 0. -1.
</event>
<event>
 8    1  0.1150307E+005  0.1043930E+01  0.7957747E-01            NaN
         13   -1    0    0    0    0  0.00000000000E+00  0.00000000000E+00  0.74505805969E-08  0.10566000000E+00  0.10566000000E+00 0. -1.
     999900   -1    0    0    0    0 -0.00000000000E+00 -0.00000000000E+00 -0.74505805969E-08  0.93827000000E+00  0.93827000000E+00 0.  1.
     999902    2    1    2    0    0  0.13121137871E-01  0.80300792699E-02  0.17195535240E-01  0.10208576602E+01  0.10205968986E+01 0.  0.
     999903    2    3    3    0    0 -0.55975586678E-01  0.86248892028E-01  0.80913084734E-01  0.13240255940E+00  0.20282326638E-01 0.  0.
         14    1    1    2    0    0 -0.13121137871E-01 -0.80300792699E-02 -0.17195535240E-01  0.23072339810E-01  0.00000000000E+00 0. -1.
     999901    1    3    3    0    0  0.69096724548E-01 -0.78218812758E-01 -0.63717549494E-01  0.88845510079E+00  0.88000000000E+00 0.  1.
        -11    1    4    4    0    0 -0.95566103001E-02  0.27484319199E-01  0.15524658272E-01  0.32984734919E-01  0.51100000000E-03 0.  1.
         11    1    4    4    0    0 -0.46418976377E-01  0.58764572829E-01  0.65388426462E-01  0.99417824478E-01  0.51100000000E-03 0. -1.
</event>
<event>
 8    1  0.1150307E+005  0.1043930E+01  0.7957747E-01            NaN
         13   -1    0    0    0    0  0.00000000000E+00  0.00000000000E+00  0.74505805969E-08  0.10566000000E+00  0.10566000000E+00 0.  1.
     999900   -1    0    0    0    0 -0.00000000000E+00 -0.00000000000E+00 -0.74505805969E-08  0.93827000000E+00  0.93827000000E+00 0.  1.
     999902    2    1    2    0    0 -0.15427868073E-01  0.15938238193E-01 -0.68229754719E-02  0.10207222525E+01  0.10204583858E+01 0.  0.
     999903    2    3    3    0    0  0.83889056360E-01 -0.75028161453E-01  0.57915061074E-01  0.12812505850E+00  0.19881587700E-01 0.  0.
         14    1    1    2    0    0  0.15427868073E-01 -0.15938238193E-01  0.68229754719E-02  0.23207747505E-01  0.00000000000E+00 0. -1.
     999901    1    3    3    0    0 -0.99316924434E-01  0.90966399646E-01 -0.64738036546E-01  0.89259719399E+00  0.88000000000E+00 0.  1.
        -11    1    4    4    0    0  0.17709124594E-01 -0.27828379348E-01  0.17508392500E-01  0.37347512902E-01  0.51100000000E-03 0. -1.
         11    1    4    4    0    0  0.66179931767E-01 -0.47199782105E-01  0.40406668574E-01  0.90777545603E-01  0.51100000000E-03 0.  1.
</event>
<event>
 8    1  0.1150307E+005  0.1043930E+01  0.7957747E-01            NaN
         13   -1    0    0    0    0  0.00000000000E+00  0.00000000000E+00  0.74505805969E-08  0.10566000000E+00  0.10566000000E+00 0. -1.
     999900   -1    0    0    0    0 -0.00000000000E+00 -0.00000000000E+00 -0.74505805969E-08  0.93827000000E+00  0.93827000000E+00 0.  1.
     999902    2    1    2    0    0 -0.25607415169E-02 -0.12794828916E-01  0.19441814869E-01  0.10205152779E+01  0.10202466287E+01 0.  0.
     999903    2    3    3    0    0  0.11671514030E+00  0.17022563998E-01  0.53686011788E-01  0.13130862145E+00  0.21155957672E-01 0.  0.
         14    1    1    2    0    0  0.25607415169E-02  0.12794828916E-01 -0.19441814869E-01  0.23414722068E-01  0.00000000000E+00 0.  1.
     999901    1    3    3    0    0 -0.11927588182E+00 -0.29817392914E-01 -0.34244196919E-01  0.88920665648E+00  0.88000000000E+00 0.  1.
        -11    1    4    4    0    0  0.69536085728E-01  0.16953941852E-01  0.23665472968E-01  0.75385801677E-01  0.51100000000E-03 0.  1.
         11    1    4    4    0    0  0.47179054576E-01  0.68622145977E-04  0.30020538820E-01  0.55922819776E-01  0.51100000000E-03 0. -1.
</event>
<event>
 8    1  0.1150307E+005  0.1043930E+01  0.7957747E-01            NaN
         13   -1    0    0    0    0  0.00000000000E+00  0.00000000000E+00  0.74505805969E-08  0.10566000000E+00  0.10566000000E+00 0.  1.
     999900   -1    0    0    0    0 -0.00000000000E+00 -0.00000000000E+00 -0.74505805969E-08  0.93827000000E+00  0.93827000000E+00 0. -1.
     999902    2    1    2    0    0 -0.10338288683E-01  0.25425686758E-02  0.21056487502E-01  0.10203350740E+01  0.10200622249E+01 0.  0.
     999903    2    3    3    0    0  0.10913705405E+00 -0.35820184330E-01  0.58694560168E-01  0.13063698875E+00  0.20663718540E-01 0.  0.
         14    1    1    2    0    0  0.10338288683E-01 -0.25425686758E-02 -0.21056487502E-01  0.23594926029E-01  0.00000000000E+00 0. -1.
     999901    1    3    3    0    0 -0.11947534273E+00  0.38362753006E-01 -0.37638072666E-01  0.88969808522E+00  0.88000000000E+00 0. -1.
        -11    1    4    4    0    0  0.80165577104E-01 -0.16463011346E-01  0.40005225446E-01  0.91094619375E-01  0.51100000000E-03 0. -1.
         11    1    4    4    0    0  0.28971476942E-01 -0.19357172984E-01  0.18689334723E-01  0.39542369372E-01  0.51100000000E-03 0.  1.
</event>
<event>
 8    1  0.1150307E+005  0.1043930E+01  0.7957747E-01            NaN
         13   -1    0    0    0    0  0.00000000000E+00  0.00000000000E+00  0.74505805969E-08  0.10566000000E+00  0.10566000000E+00 0.  1.
     999900   -1    0    0    0    0 -0.00000000000E+00 -0.00000000000E+00 -0.74505805969E-08  0.93827000000E+00  0.93827000000E+00 0. -1.
     999902    2    1    2    0    0  0.98632547333E-02  0.20166890041E-01  0.61913905905E-02  0.10206422228E+01  0.10203765121E+01 0.  0.
     999903    2    3    3    0    0 -0.11168682352E+00  0.12304422323E-01  0.63021420343E-01  0.13043668915E+00  0.20412865968E-01 0.  0.
         14    1    1    2    0    0 -0.98632547333E-02 -0.20166890041E-01 -0.61913905905E-02  0.23287777166E-01  0.00000000000E+00 0.  1.
     999901    1    3    3    0    0  0.12155007825E+00  0.78624677180E-02 -0.56830029752E-01  0.89020553369E+00  0.88000000000E+00 0.  1.
        -11    1    4    4    0    0 -0.11503365816E-01  0.35725448632E-02  0.59341273100E-03  0.12070781315E-01  0.51100000000E-03 0.  1.
         11    1    4    4    0    0 -0.10018345771E+00  0.87318774603E-02  0.62428007612E-01  0.11836590783E+00  0.51100000000E-03 0. -1.
</event>
<event>
 8    1  0.1150307E+005  0.1043930E+01  0.7957747E-01            NaN
         13   -1    0    0    0    0  0.00000000000E+00  0.00000000000E+00  0.74505805969E-08  0.10566000000E+00  0.10566000000E+00 0.  1.
     999900   -1    0    0    0    0 -0.00000000000E+00 -0.00000000000E+00 -0.74505805969E-08  0.93827000000E+00  0.93827000000E+00 0. -1.
     999902    2    1    2    0    0  0.27858624375E-02  0.49724299334E-02 -0.24142223263E-01  0.10191240928E+01  0.10188221550E+01 0.  0.
     999903    2    3    3    0    0 -0.10744108924E+00  0.36323698152E-01 -0.62599906797E-01  0.13086068797E+00  0.18514119504E-01 0.  0.
         14    1    1    2    0    0 -0.27858624375E-02 -0.49724299334E-02  0.24142223263E-01  0.24805907221E-01  0.00000000000E+00 0.  1.
     999901    1    3    3    0    0  0.11022695168E+00 -0.31351268219E-01  0.38457683534E-01  0.88826340481E+00  0.88000000000E+00 0.  1.
        -11    1    4    4    0    0 -0.31299928821E-01  0.67410952442E-02 -0.26443950237E-01  0.41529164866E-01  0.51100000000E-03 0.  1.
         11    1    4    4    0    0 -0.76141160420E-01  0.29582602908E-01 -0.36155956560E-01  0.89331523108E-01  0.51100000000E-03 0. -1.
</event>
<event>
 8    1  0.1150307E+005  0.1043930E+01  0.7957747E-01            NaN
         13   -1    0    0    0    0  0.00000000000E+00  0.00000000000E+00  0.74505805969E-08  0.10566000000E+00  0.10566000000E+00 0.  1.
     999900   -1    0    0    0    0 -0.00000000000E+00 -0.00000000000E+00 -0.74505805969E-08  0.93827000000E+00  0.93827000000E+00 0.  1.
     999902    2    1    2    0    0 -0.21517856831E-01  0.11768240357E-01  0.22802484588E-03  0.10194032465E+01  0.10191081480E+01 0.  0.
     999903    2    3    3    0    0  0.28914291159E-01 -0.48827806191E-01  0.11364753403E+00  0.12862871412E+00  0.20233467669E-01 0.  0.
         14    1    1    2    0    0  0.21517856831E-01 -0.11768240357E-01 -0.22802484588E-03  0.24526753536E-01  0.00000000000E+00 0.  1.
     999901    1    3    3    0    0 -0.50432147990E-01  0.60596046548E-01 -0.11341950919E+00  0.89077453234E+00  0.88000000000E+00 0.  1.
        -11    1    4    4    0    0  0.22248885189E-01 -0.18757257893E-01  0.48446971245E-01  0.56517411120E-01  0.51100000000E-03 0. -1.
         11    1    4    4    0    0  0.66654059702E-02 -0.30070548298E-01  0.65200562787E-01  0.72111303000E-01  0.51100000000E-03 0.  1.
</event>
<event>
 8    1  0.1150307E+005  0.1043930E+01  0.7957747E-01            NaN
         13   -1    0    0    0    0  0.00000000000E+00  0.00000000000E+00  0.74505805969E-08  0.10566000000E+00  0.10566000000E+00 0. -1.
     999900   -1    0    0    0    0 -0.00000000000E+00 -0.00000000000E+00 -0.74505805969E-08  0.93827000000E+00  0.93827000000E+00 0. -1.
     999902    2    1    2    0    0  0.19647484359E-01  0.85783634334E-02 -0.69625944891E-02  0.10213891552E+01  0.10211404001E+01 0.  0.
     999903    2    3    3    0    0  0.71401031209E-01  0.10125337817E+00 -0.47561054399E-01  0.13408124762E+00  0.19114738228E-01 0.  0.
         14    1    1    2    0    0 -0.19647484359E-01 -0.85783634334E-02  0.69625944891E-02  0.22540844768E-01  0.00000000000E+00 0. -1.
     999901    1    3    3    0    0 -0.51753546850E-01 -0.92675014741E-01  0.40598459910E-01  0.88730790761E+00  0.88000000000E+00 0. -1.
        -11    1    4    4    0    0  0.31420111671E-01  0.53136015070E-01 -0.14893919752E-01  0.63503932804E-01  0.51100000000E-03 0. -1.
         11    1    4    4    0    0  0.39980919538E-01  0.48117363104E-01 -0.32667134647E-01  0.70577314813E-01  0.51100000000E-03 0.  1.
</event>
<event>
 8    1  0.1150307E+005  0.1043930E+01  0.7957747E-01            NaN
         13   -1    0    0    0    0  0.00000000000E+00  0.00000000000E+00  0.74505805969E-08  0.10566000000E+00  0.10566000000E+00 0.  1.
     999900   -1    0    0    0    0 -0.00000000000E+00 -0.00000000000E+00 -0.74505805969E-08  0.93827000000E+00  0.93827000000E+00 0. -1.
     999902    2    1    2    0    0  0.14903172162E-01 -0.12436050796E-01 -0.15003456536E-01  0.10193970913E+01  0.10191018429E+01 0.  0.
     999903    2    3    3    0    0  0.10990108927E+00 -0.44227986545E-01 -0.56469719773E-01  0.13274339206E+00  0.19940277511E-01 0.  0.
         14    1    1    2    0    0 -0.14903172162E-01  0.12436050796E-01  0.15003456536E-01  0.24532908673E-01  0.00000000000E+00 0.  1.
     999901    1    3    3    0    0 -0.94997917113E-01  0.31791935749E-01  0.41466263236E-01  0.88665369927E+00  0.88000000000E+00 0.  1.
        -11    1    4    4    0    0  0.78602386371E-01 -0.38029855539E-01 -0.48363355995E-01  0.99819238524E-01  0.51100000000E-03 0. -1.
         11    1    4    4    0    0  0.31298702904E-01 -0.61981310058E-02 -0.81063637779E-02  0.32924153537E-01  0.51100000000E-03 0.  1.
</event>
<event>
 8    1  0.1150307E+005  0.1043930E+01  0.7957747E-01            NaN
         13   -1    0    0    0    0  0.00000000000E+00  0.00000000000E+00  0.74505805969E-08  0.10566000000E+00  0.10566000000E+00 0. -1.
     999900   -1    0    0    0    0 -0.00000000000E+00 -0.00000000000E+00 -0.74505805969E-08  0.93827000000E+00  0.93827000000E+00 0.  1.
     999902    2    1    2    0    0 -0.17043992936E-01  0.19638614504E-01  0.89733347097E-03  0.10179111975E+01  0.10175786102E+01 0.  0.
     999903    2    3    3    0    0 -0.11164466157E+00  0.66344621516E-01  0.45311894771E-02  0.13160202883E+00  0.20794784311E-01 0.  0.
         14    1    1    2    0    0  0.17043992936E-01 -0.19638614504E-01 -0.89733347097E-03  0.26018802475E-01  0.00000000000E+00 0. -1.
     999901    1    3    3    0    0  0.94600668631E-01 -0.46706007012E-01 -0.36338560061E-02  0.88630916869E+00  0.88000000000E+00 0.  1.
        -11    1    4    4    0    0 -0.37771395924E-01  0.32172263806E-01 -0.38958543870E-02  0.49771193585E-01  0.51100000000E-03 0. -1.
         11    1    4    4    0    0 -0.73873265643E-01  0.34172357710E-01  0.84270438641E-02  0.81830835249E-01  0.51100000000E-03 0.  1.
</event>
<event>
 8    1  0.1150307E+005  0.1043930E+01  0.7957747E-01            NaN
         13   -1    0    0    0    0  0.00000000000E+00  0.00000000000E+00  0.74505805969E-08  0.10566000000E+00  0.10566000000E+00 0.  1.
     999900   -1    0    0    0    0 -0.00000000000E+00 -0.00000000000E+00 -0.74505805969E-08  0.93827000000E+00  0.93827000000E+00 0.  1.
     999902    2    1    2    0    0  0.14770761601E-01 -0.89998861391E-02 -0.16227779079E-01  0.10202126190E+01  0.10199368969E+01 0.  0.
     999903    2    3    3    0    0  0.30914958464E-01  0.12461650919E+00 -0.10747231960E-01  0.12996320865E+00  0.17027142670E-01 0.  0.
         14    1    1    2    0    0 -0.14770761601E-01  0.89998861391E-02  0.16227779079E-01  0.23717381024E-01  0.00000000000E+00 0.  1.
     999901    1    3    3    0    0 -0.16144196862E-01 -0.13361639533E+00 -0.54805471189E-02  0.89024941033E+00  0.88000000000E+00 0.  1.
        -11    1    4    4    0    0  0.61667659096E-02  0.54675113415E-01 -0.19856562496E-03  0.55024517972E-01  0.51100000000E-03 0. -1.
         11    1    4    4    0    0  0.24748192554E-01  0.69941395775E-01 -0.10548666335E-01  0.74938690675E-01  0.51100000000E-03 0.  1.
</event>
<event>
 8    1  0.1150307E+005  0.1043930E+01  0.7957747E-01            NaN
         13   -1    0    0    0    0  0.00000000000E+00  0.00000000000E+00  0.74505805969E-08  0.10566000000E+00  0.10566000000E+00 0. -1.
     999900   -1    0    0    0    0 -0.00000000000E+00 -0.00000000000E+00 -0.74505805969E-08  0.93827000000E+00  0.93827000000E+00 0. -1.
     999902    2    1    2    0    0  0.14338108510E-01  0.87121587167E-03 -0.19001894992E-01  0.10201095805E+01  0.10198314291E+01 0.  0.
     999903    2    3    3    0    0  0.12971583541E+00 -0.74855093099E-02  0.11151731161E-01  0.13202676008E+00  0.20602753794E-01 0.  0.
         14    1    1    2    0    0 -0.14338108510E-01 -0.87121587167E-03  0.19001894992E-01  0.23820419518E-01  0.00000000000E+00 0.  1.
     999901    1    3    3    0    0 -0.11537772690E+00  0.83567251816E-02 -0.30153626153E-01  0.88808282040E+00  0.88000000000E+00 0.  1.
        -11    1    4    4    0    0  0.47923380326E-01 -0.77051241952E-02 -0.44953238098E-02  0.48749239767E-01  0.51100000000E-03 0.  1.
         11    1    4    4    0    0  0.81792455085E-01  0.21961488530E-03  0.15647054971E-01  0.83277520314E-01  0.51100000000E-03 0. -1.
</event>
<event>
 8    1  0.1150307E+005  0.1043930E+01  0.7957747E-01            NaN
         13   -1    0    0    0    0  0.00000000000E+00  0.00000000000E+00  0.74505805969E-08  0.10566000000E+00  0.10566000000E+00 0. -1.
     999900   -1    0    0    0    0 -0.00000000000E+00 -0.00000000000E+00 -0.74505805969E-08  0.93827000000E+00  0.93827000000E+00 0.  1.
     999902    2    1    2    0    0 -0.10515204735E-01  0.17094523018E-02  0.21415013477E-01  0.10200115017E+01  0.10197310278E+01 0.  0.
     999903    2    3    3    0    0 -0.46120065234E-01  0.10441317147E+00  0.63867689889E-01  0.13230772807E+00  0.19926924016E-01 0.  0.
         14    1    1    2    0    0  0.10515204735E-01 -0.17094523018E-02 -0.21415013477E-01  0.23918498281E-01  0.00000000000E+00 0.  1.
     999901    1    3    3    0    0  0.35604860499E-01 -0.10270371917E+00 -0.42452676412E-01  0.88770377365E+00  0.88000000000E+00 0. -1.
        -11    1    4    4    0    0 -0.28012588214E-01  0.82923338426E-01  0.51907709095E-01  0.10176274632E+00  0.51100000000E-03 0.  1.
         11    1    4    4    0    0 -0.18107477020E-01  0.21489833045E-01  0.11959980794E-01  0.30544981746E-01  0.51100000000E-03 0. -1.
</event>
<event>
 8    1  0.1150307E+005  0.1043930E+01  0.7957747E-01            NaN
         13   -1    0    0    0    0  0.00000000000E+00  0.00000000000E+00  0.74505805969E-08  0.10566000000E+00  0.10566000000E+00 0.  1.
     999900   -1    0    0    0    0 -0.00000000000E+00 -0.00000000000E+00 -0.74505805969E-08  0.93827000000E+00  0.93827000000E+00 0. -1.
     999902    2    1    2    0    0 -0.14664403878E-01 -0.41951153597E-02  0.19565855724E-01  0.10191214038E+01  0.10188193997E+01 0.  0.
     999903    2    3    3    0    0 -0.50784940706E-01  0.30817536861E-01 -0.11169909120E+00  0.12796425422E+00  0.19218028049E-01 0.  0.
         14    1    1    2    0    0  0.14664403878E-01  0.41951153597E-02 -0.19565855724E-01  0.24808596175E-01  0.00000000000E+00 0. -1.
     999901    1    3    3    0    0  0.36120536829E-01 -0.35012652220E-01  0.13126494693E+00  0.89115714960E+00  0.88000000000E+00 0.  1.
        -11    1    4    4    0    0 -0.33190878245E-01  0.20843070060E-01 -0.53303415861E-01  0.66163307291E-01  0.51100000000E-03 0.  1.
         11    1    4    4    0    0 -0.17594062461E-01  0.99744668005E-02 -0.58395675342E-01  0.61800946931E-01  0.51100000000E-03 0. -1.
</event>
<event>
 8    1  0.1150307E+005  0.1043930E+01  0.7957747E-01            NaN
         13   -1    0    0    0    0  0.00000000000E+00  0.00000000000E+00  0.74505805969E-08  0.10566000000E+00  0.10566000000E+00 0.  1.
     999900   -1    0    0    0    0 -0.00000000000E+00 -0.00000000000E+00 -0.74505805969E-08  0.93827000000E+00  0.93827000000E+00 0.  1.
     999902    2    1    2    0    0 -0.12189964731E-01 -0.13896267898E-01 -0.15946973777E-01  0.10195167357E+01  0.10192243948E+01 0.  0.
     999903    2    3    3    0    0 -0.44960420144E-01 -0.15676823695E-01 -0.12205096467E+00  0.13253582834E+00  0.20052571792E-01 0.  0.
         14    1    1    2    0    0  0.12189964731E-01  0.13896267898E-01  0.15946973777E-01  0.24413264310E-01  0.00000000000E+00 0.  1.
     999901    1    3    3    0    0  0.32770455413E-01  0.17805557970E-02  0.10610399089E+00  0.88698090735E+00  0.88000000000E+00 0. -1.
        -11    1    4    4    0    0 -0.20602778935E-01 -0.57889696414E-03 -0.71626251971E-01  0.74534493451E-01  0.51100000000E-03 0. -1.
         11    1    4    4    0    0 -0.24357641209E-01 -0.15097926731E-01 -0.50424712697E-01  0.58001334885E-01  0.51100000000E-03 0.  1.
</event>
<event>
 8    1  0.1150307E+005  0.1043930E+01  0.7957747E-01            NaN
         13   -1    0    0    0    0  0.00000000000E+00  0.00000000000E+00  0.74505805969E-08  0.10566000000E+00  0.10566000000E+00 0. -1.
     999900   -1    0    0    0    0 -0.00000000000E+00 -0.00000000000E+00 -0.74505805969E-08  0.93827000000E+00  0.93827000000E+00 0.  1.
     999902    2    1    2    0    0 -0.14390932917E-02  0.19129984523E-01  0.11961788990E-01  0.10213222205E+01  0.10210719693E+01 0.  0.
     999903    2    3    3    0    0 -0.75297722674E-01 -0.72720498872E-01  0.76328030526E-01  0.13113425077E+00  0.20302844249E-01 0.  0.
         14    1    1    2    0    0  0.14390932917E-02 -0.19129984523E-01 -0.11961788990E-01  0.22607779484E-01  0.00000000000E+00 0. -1.
     999901    1    3    3    0    0  0.73858629382E-01  0.91850483395E-01 -0.64366241536E-01  0.89018796975E+00  0.88000000000E+00 0. -1.
        -11    1    4    4    0    0 -0.44257586178E-01 -0.53163032483E-01  0.42244115739E-01  0.81054724678E-01  0.51100000000E-03 0. -1.
         11    1    4    4    0    0 -0.31040136496E-01 -0.19557466389E-01  0.34083914787E-01  0.50079526090E-01  0.51100000000E-03 0.  1.
</event>
<event>
 7    1  0.1150307E+005  0.1043930E+01  0.7957747E-01            NaN
         13   -1    0    0    0    0  0.00000000000E+00  0.00000000000E+00  0.74505805969E-08  0.10566000000E+00  0.10566000000E+00 0.  1.
     999900   -1    0    0    0    0 -0.00000000000E+00 -0.00000000000E+00 -0.74505805969E-08  0.93827000000E+00  0.93827000000E+00 0.  1.
     999903    2    1    2    0    0 -0.10469967027E-01 -0.45650624510E-01 -0.10528433382E+00  0.11706188438E+00  0.20617810205E-01 0.  0.
         14    1    1    2    0    0 -0.14364918862E-01  0.36639730573E-01  0.13916926936E-01  0.41743282162E-01  0.00000000000E+00 0.  1.
     999901    1    1    2    0    0  0.24834885889E-01  0.90108939368E-02  0.91367406888E-01  0.88512483346E+00  0.88000000000E+00 0. -1.
        -11    1    3    3    0    0 -0.20939381066E-02 -0.17916465563E-01 -0.19749452359E-01  0.26752314004E-01  0.51100000000E-03 0. -1.
         11    1    3    3    0    0 -0.83760289206E-02 -0.27734158947E-01 -0.85534881465E-01  0.90309570374E-01  0.51100000000E-03 0.  1.
</event>
<event>
 8    1  0.1150307E+005  0.1043930E+01  0.7957747E-01            NaN
         13   -1    0    0    0    0  0.00000000000E+00  0.00000000000E+00  0.74505805969E-08  0.10566000000E+00  0.10566000000E+00 0. -1.
     999900   -1    0    0    0    0 -0.00000000000E+00 -0.00000000000E+00 -0.74505805969E-08  0.93827000000E+00  0.93827000000E+00 0. -1.
     999902    2    1    2    0    0 -0.19716215420E-01  0.11387332488E-01 -0.10468239437E-01  0.10188703805E+01  0.10185621570E+01 0.  0.
     999903    2    3    3    0    0 -0.12762021631E+00  0.51633780951E-02 -0.27830434218E-01  0.13208773701E+00  0.18948802450E-01 0.  0.
         14    1    1    2    0    0  0.19716215420E-01 -0.11387332488E-01  0.10468239437E-01  0.25059619482E-01  0.00000000000E+00 0.  1.
     999901    1    3    3    0    0  0.10790400089E+00  0.62239543930E-02  0.17362194781E-01  0.88678264351E+00  0.88000000000E+00 0.  1.
        -11    1    4    4    0    0 -0.78337195347E-01  0.83105324970E-02 -0.92396250893E-02  0.79318427354E-01  0.51100000000E-03 0.  1.
         11    1    4    4    0    0 -0.49283020968E-01 -0.31471544019E-02 -0.18590809129E-01  0.52769309657E-01  0.51100000000E-03 0. -1.
</event>
<event>
 8    1  0.1150307E+005  0.1043930E+01  0.7957747E-01            NaN
         13   -1    0    0    0    0  0.00000000000E+00  0.00000000000E+00  0.74505805969E-08  0.10566000000E+00  0.10566000000E+00 0.  1.
     999900   -1    0    0    0    0 -0.00000000000E+00 -0.00000000000E+00 -0.74505805969E-08  0.93827000000E+00  0.93827000000E+00 0. -1.
     999902    2    1    2    0    0 -0.23226111983E-02 -0.96283733716E-02  0.21558412949E-01  0.10202052183E+01  0.10199293222E+01 0.  0.
     999903    2    3    3    0    0 -0.43968121020E-01  0.97859218429E-01 -0.67398567393E-01  0.12824037864E+00  0.19834453114E-01 0.  0.
         14    1    1    2    0    0  0.23226111983E-02  0.96283733716E-02 -0.21558412949E-01  0.23724781673E-01  0.00000000000E+00 0. -1.
     999901    1    3    3    0    0  0.41645509822E-01 -0.10748759180E+00  0.88956980343E-01  0.89196483968E+00  0.88000000000E+00 0.  1.
        -11    1    4    4    0    0 -0.41536652318E-01  0.96838230636E-01 -0.62125196315E-01  0.12232226918E+00  0.51100000000E-03 0.  1.
         11    1    4    4    0    0 -0.24314687019E-02  0.10209877929E-02 -0.52733710782E-02  0.59181094658E-02  0.51100000000E-03 0. -1.
</event>
<event>
 8    1  0.1150307E+005  0.1043930E+01  0.7957747E-01            NaN
         13   -1    0    0    0    0  0.00000000000E+00  0.00000000000E+00  0.74505805969E-08  0.10566000000E+00  0.10566000000E+00 0. -1.
     999900   -1    0    0    0    0 -0.00000000000E+00 -0.00000000000E+00 -0.74505805969E-08  0.93827000000E+00  0.93827000000E+00 0. -1.
     999902    2    1    2    0    0  0.13621608704E-01  0.19541018839E-02  0.19903210926E-01  0.10197327989E+01  0.10194456712E+01 0.  0.
     999903    2    3    3    0    0  0.50069418430E-01 -0.26916212085E-01 -0.11351070298E+00  0.12846336132E+00  0.19665359847E-01 0.  0.
         14    1    1    2    0    0 -0.13621608704E-01 -0.19541018839E-02 -0.19903210926E-01  0.24197201140E-01  0.00000000000E+00 0.  1.
     999901    1    3    3    0    0 -0.36447809726E-01  0.28870313969E-01  0.13341391390E+00  0.89126943754E+00  0.88000000000E+00 0.  1.
        -11    1    4    4    0    0  0.29270268964E-01 -0.25876602333E-01 -0.79446181041E-01  0.88534196763E-01  0.51100000000E-03 0. -1.
         11    1    4    4    0    0  0.20799149466E-01 -0.10396097521E-02 -0.34064521934E-01  0.39929164561E-01  0.51100000000E-03 0.  1.
</event>
<event>
 8    1  0.1150307E+005  0.1043930E+01  0.7957747E-01            NaN
         13   -1    0    0    0    0  0.00000000000E+00  0.00000000000E+00  0.74505805969E-08  0.10566000000E+00  0.10566000000E+00 0. -1.
     999900   -1    0    0    0    0 -0.00000000000E+00 -0.00000000000E+00 -0.74505805969E-08  0.93827000000E+00  0.93827000000E+00 0. -1.
     999902    2    1    2    0    0  0.76551307767E-02  0.21065976127E-01  0.14542284154E-01  0.10172119461E+01  0.10168609978E+01 0.  0.
     999903    2    3    3    0    0 -0.83545610234E-01  0.53264017326E-01 -0.77220518599E-01  0.12716998021E+00  0.19805828525E-01 0.  0.
         14    1    1    2    0    0 -0.76551307767E-02 -0.21065976127E-01 -0.14542284154E-01  0.26718053930E-01  0.00000000000E+00 0.  1.
     999901    1    3    3    0    0  0.91200741010E-01 -0.32198041199E-01  0.91762802753E-01  0.89004196586E+00  0.88000000000E+00 0. -1.
        -11    1    4    4    0    0 -0.59635548709E-01  0.46647808438E-01 -0.52438056249E-01  0.92100095364E-01  0.51100000000E-03 0.  1.
         11    1    4    4    0    0 -0.23910061525E-01  0.66162088880E-02 -0.24782462350E-01  0.35069884849E-01  0.51100000000E-03 0. -1.
</event>
<event>
 8    1  0.1150307E+005  0.1043930E+01  0.7957747E-01            NaN
         13   -1    0    0    0    0  0.00000000000E+00  0.00000000000E+00  0.74505805969E-08  0.10566000000E+00  0.10566000000E+00 0. -1.
     999900   -1    0    0    0    0 -0.00000000000E+00 -0.00000000000E+00 -0.74505805969E-08  0.93827000000E+00  0.93827000000E+00 0. -1.
     999902    2    1    2    0    0  0.32395379110E-02  0.23359229070E-01 -0.51795624452E-03  0.10203415183E+01  0.10200688200E+01 0.  0.
     999903    2    3    3    0    0 -0.90489560524E-01 -0.53186349015E-01  0.72559900425E-01  0.12905887935E+00  0.19341843353E-01 0.  0.
         14    1    1    2    0    0 -0.32395379110E-02 -0.23359229070E-01  0.51795624452E-03  0.23588481666E-01  0.00000000000E+00 0.  1.
     999901    1    3    3    0    0  0.93729098435E-01  0.76545578085E-01 -0.73077856670E-01  0.89128263898E+00  0.88000000000E+00 0. -1.
        -11    1    4    4    0    0 -0.14834050711E-01 -0.11549769557E-02  0.11001060016E-01  0.18511279663E-01  0.51100000000E-03 0. -1.
         11    1    4    4    0    0 -0.75655509813E-01 -0.52031372059E-01  0.61558840409E-01  0.11054759969E+00  0.51100000000E-03 0.  1.
</event>
<event>
 8    1  0.1150307E+005  0.1043930E+01  0.7957747E-01            NaN
         13   -1    0    0    0    0  0.00000000000E+00  0.00000000000E+00  0.74505805969E-08  0.10566000000E+00  0.10566000000E+00 0.  1.
     999900   -1    0    0    0    0 -0.00000000000E+00 -0.00000000000E+00 -0.74505805969E-08  0.93827000000E+00  0.93827000000E+00 0.  1.
     999902    2    1    2    0    0  0.34641785193E-02  0.11191200467E-01  0.20737562558E-01  0.10201121495E+01  0.10198340589E+01 0.  0.
     999903    2    3    3    0    0  0.89064528724E-01 -0.64653074422E-01  0.68861996779E-01  0.13140762317E+00  0.20334171163E-01 0.  0.
         14    1    1    2    0    0 -0.34641785193E-02 -0.11191200467E-01 -0.20737562558E-01  0.23817850482E-01  0.00000000000E+00 0. -1.
     999901    1    3    3    0    0 -0.85600350205E-01  0.75844274889E-01 -0.48124434221E-01  0.88870452635E+00  0.88000000000E+00 0. -1.
        -11    1    4    4    0    0  0.25039071894E-01 -0.21066472772E-01  0.10311276613E-01  0.34312314740E-01  0.51100000000E-03 0.  1.
         11    1    4    4    0    0  0.64025456830E-01 -0.43586601650E-01  0.58550720166E-01  0.97095308427E-01  0.51100000000E-03 0. -1.
</event>
<event>
 8    1  0.1150307E+005  0.1043930E+01  0.7957747E-01            NaN
         13   -1    0    0    0    0  0.00000000000E+00  0.00000000000E+00  0.74505805969E-08  0.10566000000E+00  0.10566000000E+00 0. -1.
     999900   -1    0    0    0    0 -0.00000000000E+00 -0.00000000000E+00 -0.74505805969E-08  0.93827000000E+00  0.93827000000E+00 0.  1.
     999902    2    1    2    0    0 -0.11442899925E-01 -0.12565735612E-02 -0.21475264896E-01  0.10195639183E+01  0.10192727199E+01 0.  0.
     999903    2    3    3    0    0  0.79460523852E-01 -0.81282690824E-01  0.55356961412E-01  0.12795256635E+00  0.19662537484E-01 0.  0.
         14    1    1    2    0    0  0.11442899925E-01  0.12565735612E-02  0.21475264896E-01  0.24366081716E-01  0.00000000000E+00 0. -1.
     999901    1    3    3    0    0 -0.90903423777E-01  0.80026117263E-01 -0.76832226308E-01  0.89161135193E+00  0.88000000000E+00 0. -1.
        -11    1    4    4    0    0  0.28334530976E-01 -0.37342444399E-01  0.14265108725E-01  0.49000594356E-01  0.51100000000E-03 0.  1.
         11    1    4    4    0    0  0.51125992876E-01 -0.43940246426E-01  0.41091852687E-01  0.78951971994E-01  0.51100000000E-03 0. -1.
</event>
<event>
 8    1  0.1150307E+005  0.1043930E+01  0.7957747E-01            NaN
         13   -1    0    0    0    0  0.00000000000E+00  0.00000000000E+00  0.74505805969E-08  0.10566000000E+00  0.10566000000E+00 0.  1.
     999900   -1    0    0    0    0 -0.00000000000E+00 -0.00000000000E+00 -0.74505805969E-08  0.93827000000E+00  0.93827000000E+00 0. -1.
     999902    2    1    2    0    0 -0.40715936585E-02 -0.17496615234E-01 -0.15264818933E-01  0.10203561985E+01  0.10200838435E+01 0.  0.
     999903    2    3    3    0    0 -0.11104629364E+00  0.94452382402E-02 -0.67825875605E-01  0.13191255112E+00  0.19495637600E-01 0.  0.
         14    1    1    2    0    0  0.40715936585E-02  0.17496615234E-01  0.15264818933E-01  0.23573801489E-01  0.00000000000E+00 0.  1.
     999901    1    3    3    0    0  0.10697469998E+00 -0.26941853474E-01  0.52561056672E-01  0.88844364739E+00  0.88000000000E+00 0. -1.
        -11    1    4    4    0    0 -0.77122515878E-01 -0.13320060369E-02 -0.41128150980E-01  0.87415345446E-01  0.51100000000E-03 0.  1.
         11    1    4    4    0    0 -0.33923777764E-01  0.10777244277E-01 -0.26697724625E-01  0.44497205678E-01  0.51100000000E-03 0. -1.
</event>
<event>
 8    1  0.1150307E+005  0.1043930E+01  0.7957747E-01            NaN
         13   -1    0    0    0    0  0.00000000000E+00  0.00000000000E+00  0.74505805969E-08  0.10566000000E+00  0.10566000000E+00 0.  1.
     999900   -1    0    0    0    0 -0.00000000000E+00 -0.00000000000E+00 -0.74505805969E-08  0.93827000000E+00  0.93827000000E+00 0.  1.
     999902    2    1    2    0    0 -0.12171970105E-01 -0.16011024362E-01 -0.11394505858E-01  0.10208141067E+01  0.10205523485E+01 0.  0.
     999903    2    3    3    0    0  0.90049905753E-01  0.58667708652E-01 -0.69988743270E-01  0.12982616646E+00  0.20137620242E-01 0.  0.
         14    1    1    2    0    0  0.12171970105E-01  0.16011024362E-01  0.11394505858E-01  0.23115893258E-01  0.00000000000E+00 0.  1.
     999901    1    3    3    0    0 -0.10222187586E+00 -0.74678733014E-01  0.58594237412E-01  0.89098794028E+00  0.88000000000E+00 0. -1.
        -11    1    4    4    0    0  0.27695418580E-02  0.26820326593E-02 -0.83090992467E-02  0.91741981982E-02  0.51100000000E-03 0. -1.
         11    1    4    4    0    0  0.87280363895E-01  0.55985675992E-01 -0.61679644023E-01  0.12065196826E+00  0.51100000000E-03 0.  1.
</event>
<event>
 8    1  0.1150307E+005  0.1043930E+01  0.7957747E-01            NaN
         13   -1    0    0    0    0  0.00000000000E+00  0.00000000000E+00  0.74505805969E-08  0.10566000000E+00  0.10566000000E+00 0. -1.
     999900   -1    0    0    0    0 -0.00000000000E+00 -0.00000000000E+00 -0.74505805969E-08  0.93827000000E+00  0.93827000000E+00 0. -1.
     999902    2    1    2    0    0 -0.19744160443E-01  0.10352601738E-01  0.33674554290E-02  0.10213834262E+01  0.10211345432E+01 0.  0.
     999903    2    3    3    0    0 -0.44750606903E-01 -0.89062869584E-01 -0.82915529742E-01  0.13124101521E+00  0.20356999879E-01 0.  0.
         14    1    1    2    0    0  0.19744160443E-01 -0.10352601738E-01 -0.33674554290E-02  0.22546573806E-01  0.00000000000E+00 0.  1.
     999901    1    3    3    0    0  0.25006446460E-01  0.99415471322E-01  0.86282985171E-01  0.89014241098E+00  0.88000000000E+00 0.  1.
        -11    1    4    4    0    0 -0.32667806072E-01 -0.46358868739E-01 -0.53705234564E-01  0.78107897199E-01  0.51100000000E-03 0.  1.
         11    1    4    4    0    0 -0.12082800832E-01 -0.42704000845E-01 -0.29210295178E-01  0.53133118010E-01  0.51100000000E-03 0. -1.
</event>
<event>
 8    1  0.1150307E+005  0.1043930E+01  0.7957747E-01            NaN
         13   -1    0    0    0    0  0.00000000000E+00  0.00000000000E+00  0.74505805969E-08  0.10566000000E+00  0.10566000000E+00 0.  1.
     999900   -1    0    0    0    0 -0.00000000000E+00 -0.00000000000E+00 -0.74505805969E-08  0.93827000000E+00  0.93827000000E+00 0.  1.
     999902    2    1    2    0    0  0.20677841542E-02  0.22586458519E-01  0.76380318557E-02  0.10199975248E+01  0.10197167191E+01 0.  0.
     999903    2    3    3    0    0  0.22589402045E-01 -0.12338019574E+00 -0.77279769731E-02  0.12760550600E+00  0.22147003108E-01 0.  0.
         14    1    1    2    0    0 -0.20677841542E-02 -0.22586458519E-01 -0.76380318557E-02  0.23932475224E-01  0.00000000000E+00 0. -1.
     999901    1    3    3    0    0 -0.20521617890E-01  0.14596665426E+00  0.15366008829E-01  0.89239201878E+00  0.88000000000E+00 0. -1.
        -11    1    4    4    0    0  0.11856390865E-01 -0.54567432094E-01 -0.14313481959E-01  0.57648204972E-01  0.51100000000E-03 0. -1.
         11    1    4    4    0    0  0.10733011179E-01 -0.68812763645E-01  0.65855049859E-02  0.69957301023E-01  0.51100000000E-03 0.  1.
</event>
<event>
 8    1  0.1150307E+005  0.1043930E+01  0.7957747E-01            NaN
         13   -1    0    0    0    0  0.00000000000E+00  0.00000000000E+00  0.74505805969E-08  0.10566000000E+00  0.10566000000E+00 0. -1.
     999900   -1    0    0    0    0 -0.00000000000E+00 -0.00000000000E+00 -0.74505805969E-08  0.93827000000E+00  0.93827000000E+00 0.  1.
     999902    2    1    2    0    0 -0.53641747764E-02 -0.19476663351E-02  0.23074607800E-01  0.10201601599E+01  0.10198832024E+01 0.  0.
     999903    2    3    3    0    0  0.12429343427E+00 -0.27347349938E-01 -0.12996095244E-01  0.12956634946E+00  0.20537893489E-01 0.  0.
         14    1    1    2    0    0  0.53641747764E-02  0.19476663351E-02 -0.23074607800E-01  0.23769840140E-01  0.00000000000E+00 0.  1.
     999901    1    3    3    0    0 -0.12965760904E+00  0.25399683603E-01  0.36070703044E-01  0.89059381040E+00  0.88000000000E+00 0.  1.
        -11    1    4    4    0    0  0.67844158531E-01 -0.16984810981E-01 -0.17180995032E-01  0.72019173573E-01  0.51100000000E-03 0. -1.
         11    1    4    4    0    0  0.56449275738E-01 -0.10362538957E-01  0.41848997880E-02  0.57547175884E-01  0.51100000000E-03 0.  1.
</event>
<event>
 8    1  0.1150307E+005  0.1043930E+01  0.7957747E-01            NaN
         13   -1    0    0    0    0  0.00000000000E+00  0.00000000000E+00  0.74505805969E-08  0.10566000000E+00  0.10566000000E+00 0.  1.
     999900   -1    0    0    0    0 -0.00000000000E+00 -0.00000000000E+00 -0.74505805969E-08  0.93827000000E+00  0.93827000000E+00 0.  1.
     999902    2    1    2    0    0  0.10289548150E-01  0.77761076647E-02  0.18723150320E-01  0.10211945869E+01  0.10209414701E+01 0.  0.
     999903    2    3    3    0    0  0.51518883584E-01 -0.87195754511E-01 -0.78837239759E-01  0.12977014117E+00  0.19175093121E-01 0.  0.
         14    1    1    2    0    0 -0.10289548150E-01 -0.77761076647E-02 -0.18723150320E-01  0.22735413114E-01  0.00000000000E+00 0. -1.
     999901    1    3    3    0    0 -0.41229335434E-01  0.94971862176E-01  0.97560390079E-01  0.89142444571E+00  0.88000000000E+00 0. -1.
        -11    1    4    4    0    0  0.28741972801E-01 -0.35497416140E-01 -0.43846692537E-01  0.63316357448E-01  0.51100000000E-03 0.  1.
         11    1    4    4    0    0  0.22776910784E-01 -0.51698338371E-01 -0.34990547223E-01  0.66453783723E-01  0.51100000000E-03 0. -1.
</event>
<event>
 8    1  0.1150307E+005  0.1043930E+01  0.7957747E-01            NaN
         13   -1    0    0    0    0  0.00000000000E+00  0.00000000000E+00  0.74505805969E-08  0.10566000000E+00  0.10566000000E+00 0.  1.
     999900   -1    0    0    0    0 -0.00000000000E+00 -0.00000000000E+00 -0.74505805969E-08  0.93827000000E+00  0.93827000000E+00 0. -1.
     999902    2    1    2    0    0  0.88531056913E-02 -0.65206589348E-03 -0.21332465384E-01  0.10208242269E+01  0.10205627004E+01 0.  0.
     999903    2    3    3    0    0  0.11372421888E+00  0.61697966972E-01 -0.18986218454E-01  0.13240372859E+00  0.20746897717E-01 0.  0.
         14    1    1    2    0    0 -0.88531056913E-02  0.65206589348E-03  0.21332465384E-01  0.23105773081E-01  0.00000000000E+00 0.  1.
     999901    1    3    3    0    0 -0.10487111319E+00 -0.62350032866E-01 -0.23462469297E-02  0.88842049833E+00  0.88000000000E+00 0.  1.
        -11    1    4    4    0    0  0.82179852830E-01  0.42321905874E-01 -0.41919365175E-02  0.92533806691E-01  0.51100000000E-03 0.  1.
         11    1    4    4    0    0  0.31544366049E-01  0.19376061099E-01 -0.14794281937E-01  0.39869921898E-01  0.51100000000E-03 0. -1.
</event>
<event>
 8    1  0.1166258E+005  0.1043930E+01  0.7957747E-01            NaN
         13   -1    0    0    0    0  0.00000000000E+00  0.00000000000E+00  0.74505805969E-08  0.10566000000E+00  0.10566000000E+00 0. -1.
     999900   -1    0    0    0    0 -0.00000000000E+00 -0.00000000000E+00 -0.74505805969E-08  0.93827000000E+00  0.93827000000E+00 0.  1.
     999902    2    1    2    0    0 -0.14692778417E-01 -0.84205790999E-02  0.16727337241E-01  0.10201268972E+01  0.10198491549E+01 0.  0.
     999903    2    3    3    0    0 -0.12621075100E+00  0.19040329458E-02 -0.31425755682E-01  0.13172294847E+00  0.20750374088E-01 0.  0.
         14    1    1    2    0    0  0.14692778417E-01  0.84205790999E-02 -0.16727337241E-01  0.23803102763E-01  0.00000000000E+00 0.  1.
     999901    1    3    3    0    0  0.11151797258E+00 -0.10324612046E-01  0.48153092923E-01  0.88840394876E+00  0.88000000000E+00 0.  1.
        -11    1    4    4    0    0 -0.60238349682E-01  0.66350344735E-02 -0.61568782388E-02  0.60916752421E-01  0.51100000000E-03 0. -1.
         11    1    4    4    0    0 -0.65972401317E-01 -0.47310015277E-02 -0.25268877443E-01  0.70806196051E-01  0.51100000000E-03 0.  1.
</event>
<event>
 8    1  0.1150307E+005  0.1043930E+01  0.7957747E-01            NaN
         13   -1    0    0    0    0  0.00000000000E+00  0.00000000000E+00  0.74505805969E-08  0.10566000000E+00  0.10566000000E+00 0. -1.
     999900   -1    0    0    0    0 -0.00000000000E+00 -0.00000000000E+00 -0.74505805969E-08  0.93827000000E+00  0.93827000000E+00 0. -1.
     999902    2    1    2    0    0  0.31180891165E-02  0.25874637320E-02 -0.23612281765E-01  0.10199725941E+01  0.10196911961E+01 0.  0.
     999903    2    3    3    0    0  0.97261211680E-01  0.54188615285E-01  0.62167801892E-01  0.12930776985E+00  0.21436287634E-01 0.  0.
         14    1    1    2    0    0 -0.31180891165E-02 -0.25874637320E-02  0.23612281765E-01  0.23957405921E-01  0.00000000000E+00 0. -1.
     999901    1    3    3    0    0 -0.94143122563E-01 -0.51601151553E-01 -0.85780083657E-01  0.89066482423E+00  0.88000000000E+00 0. -1.
        -11    1    4    4    0    0  0.57323100793E-01  0.31996820250E-01  0.24438613420E-01  0.70051704744E-01  0.51100000000E-03 0. -1.
         11    1    4    4    0    0  0.39938110887E-01  0.22191795035E-01  0.37729188472E-01  0.59256065106E-01  0.51100000000E-03 0.  1.
</event>
<event>
 8    1  0.1150307E+005  0.1043930E+01  0.7957747E-01            NaN
         13   -1    0    0    0    0  0.00000000000E+00  0.00000000000E+00  0.74505805969E-08  0.10566000000E+00  0.10566000000E+00 0. -1.
     999900   -1    0    0    0    0 -0.00000000000E+00 -0.00000000000E+00 -0.74505805969E-08  0.93827000000E+00  0.93827000000E+00 0.  1.
     999902    2    1    2    0    0  0.60652922928E-02  0.48893886158E-02  0.22543703751E-01  0.10200781139E+01  0.10197992185E+01 0.  0.
     999903    2    3    3    0    0 -0.11744398997E+00 -0.47588108516E-01  0.19197194346E-01  0.12989856480E+00  0.21151501462E-01 0.  0.
         14    1    1    2    0    0 -0.60652922928E-02 -0.48893886158E-02 -0.22543703751E-01  0.23851886099E-01  0.00000000000E+00 0.  1.
     999901    1    3    3    0    0  0.12350928226E+00  0.52477497132E-01  0.33465094051E-02  0.89017954910E+00  0.88000000000E+00 0. -1.
        -11    1    4    4    0    0 -0.96717676218E-01 -0.38648421693E-01  0.23839365621E-01  0.10684842473E+00  0.51100000000E-03 0. -1.
         11    1    4    4    0    0 -0.20726313754E-01 -0.89396868233E-02 -0.46421712751E-02  0.23050140075E-01  0.51100000000E-03 0.  1.
</event>
<event>
 8    1  0.1150307E+005  0.1043930E+01  0.7957747E-01            NaN
         13   -1    0    0    0    0  0.00000000000E+00  0.00000000000E+00  0.74505805969E-08  0.10566000000E+00  0.10566000000E+00 0. -1.
     999900   -1    0    0    0    0 -0.00000000000E+00 -0.00000000000E+00 -0.74505805969E-08  0.93827000000E+00  0.93827000000E+00 0.  1.
     999902    2    1    2    0    0  0.64529373185E-03  0.21919769114E-01 -0.86523705800E-02  0.10203555181E+01  0.10200831471E+01 0.  0.
     999903    2    3    3    0    0 -0.87106320631E-01  0.97871908595E-01 -0.23198308616E-02  0.13271303689E+00  0.20998737115E-01 0.  0.
         14    1    1    2    0    0 -0.64529373185E-03 -0.21919769114E-01  0.86523705800E-02  0.23574481938E-01  0.00000000000E+00 0.  1.
     999901    1    3    3    0    0  0.87751614363E-01 -0.75952139482E-01 -0.63325397184E-02  0.88764248117E+00  0.88000000000E+00 0. -1.
        -11    1    4    4    0    0 -0.36914072028E-01  0.28167508997E-01  0.38476122080E-02  0.46595305746E-01  0.51100000000E-03 0.  1.
         11    1    4    4    0    0 -0.50192248603E-01  0.69704399598E-01 -0.61674430695E-02  0.86117731148E-01  0.51100000000E-03 0. -1.
</event>
<event>
 8    1  0.1150307E+005  0.1043930E+01  0.7957747E-01            NaN
         13   -1    0    0    0    0  0.00000000000E+00  0.00000000000E+00  0.74505805969E-08  0.10566000000E+00  0.10566000000E+00 0. -1.
     999900   -1    0    0    0    0 -0.00000000000E+00 -0.00000000000E+00 -0.74505805969E-08  0.93827000000E+00  0.93827000000E+00 0. -1.
     999902    2    1    2    0    0 -0.27296313847E-02 -0.24595201853E-01 -0.10668707583E-02  0.10191608043E+01  0.10188597705E+01 0.  0.
     999903    2    3    3    0    0 -0.71593512268E-01  0.67630189839E-01  0.79086914249E-01  0.12805341112E+00  0.21058549716E-01 0.  0.
         14    1    1    2    0    0  0.27296313847E-02  0.24595201853E-01  0.10668707583E-02  0.24769195686E-01  0.00000000000E+00 0.  1.
     999901    1    3    3    0    0  0.68863880884E-01 -0.92225391692E-01 -0.80153785008E-01  0.89110739320E+00  0.88000000000E+00 0. -1.
        -11    1    4    4    0    0 -0.93171516214E-02  0.21338185581E-02  0.33663081655E-02  0.10146706246E-01  0.51100000000E-03 0.  1.
         11    1    4    4    0    0 -0.62276360647E-01  0.65496371281E-01  0.75720606084E-01  0.11790670487E+00  0.51100000000E-03 0. -1.
</event>
<event>
 8    1  0.1150307E+005  0.1043930E+01  0.7957747E-01            NaN
         13   -1    0    0    0    0  0.00000000000E+00  0.00000000000E+00  0.74505805969E-08  0.10566000000E+00  0.10566000000E+00 0.  1.
     999900   -1    0    0    0    0 -0.00000000000E+00 -0.00000000000E+00 -0.74505805969E-08  0.93827000000E+00  0.93827000000E+00 0.  1.
     999902    2    1    2    0    0 -0.50936643072E-02 -0.17114342032E-01 -0.14212809400E-01  0.10211078601E+01  0.10208527866E+01 0.  0.
     999903    2    3    3    0    0 -0.56875410527E-01  0.58686160081E-01 -0.10175507944E+00  0.13201241279E+00  0.19857070016E-01 0.  0.
         14    1    1    2    0    0  0.50936643072E-02  0.17114342032E-01  0.14212809400E-01  0.22822139915E-01  0.00000000000E+00 0.  1.
     999901    1    3    3    0    0  0.51781746219E-01 -0.75800502112E-01  0.87542270044E-01  0.88909544730E+00  0.88000000000E+00 0. -1.
        -11    1    4    4    0    0 -0.76994356461E-02  0.33593327984E-03 -0.10956120793E-01  0.13404919405E-01  0.51100000000E-03 0. -1.
         11    1    4    4    0    0 -0.49175974880E-01  0.58350226801E-01 -0.90798958651E-01  0.11860749338E+00  0.51100000000E-03 0.  1.
</event>
<event>
 8    1  0.1150307E+005  0.1043930E+01  0.7957747E-01            NaN
         13   -1    0    0    0    0  0.00000000000E+00  0.00000000000E+00  0.74505805969E-08  0.10566000000E+00  0.10566000000E+00 0. -1.
     999900   -1    0    0    0    0 -0.00000000000E+00 -0.00000000000E+00 -0.74505805969E-08  0.93827000000E+00  0.93827000000E+00 0. -1.
     999902    2    1    2    0    0 -0.41592083685E-02  0.12939893308E-01 -0.18948880077E-01  0.10206104822E+01  0.10203440383E+01 0.  0.
     999903    2    3    3    0    0  0.76864061479E-01  0.81480076137E-01  0.63764387559E-01  0.13038353837E+00  0.19669346794E-01 0.  0.
         14    1    1    2    0    0  0.41592083685E-02 -0.12939893308E-01  0.18948880077E-01  0.23319517775E-01  0.00000000000E+00 0. -1.
     999901    1    3    3    0    0 -0.81023269848E-01 -0.68540182829E-01 -0.82713267636E-01  0.89022694385E+00  0.88000000000E+00 0. -1.
        -11    1    4    4    0    0  0.32834632773E-01  0.30425200036E-01  0.15137087016E-01  0.47256728948E-01  0.51100000000E-03 0. -1.
         11    1    4    4    0    0  0.44029428706E-01  0.51054876101E-01  0.48627300543E-01  0.83126809424E-01  0.51100000000E-03 0.  1.
</event>
<event>
 8    1  0.1150307E+005  0.1043930E+01  0.7957747E-01            NaN
         13   -1    0    0    0    0  0.00000000000E+00  0.00000000000E+00  0.74505805969E-08  0.10566000000E+00  0.10566000000E+00 0. -1.
     999900   -1    0    0    0    0 -0.00000000000E+00 -0.00000000000E+00 -0.74505805969E-08  0.93827000000E+00  0.93827000000E+00 0.  1.
     999902    2    1    2    0    0  0.19522165755E-01 -0.70964360361E-02  0.11245149256E-01  0.10203095059E+01  0.10200360582E+01 0.  0.
     999903    2    3    3    0    0 -0.17093310490E-01 -0.61724365007E-01 -0.11072796153E+00  0.12946589252E+00  0.19966405861E-01 0.  0.
         14    1    1    2    0    0 -0.19522165755E-01  0.70964360361E-02 -0.11245149256E-01  0.23620494110E-01  0.00000000000E+00 0. -1.
     999901    1    3    3    0    0  0.36615476245E-01  0.54627928971E-01  0.12197311079E+00  0.89084361337E+00  0.88000000000E+00 0. -1.
        -11    1    4    4    0    0 -0.11615918017E-01 -0.27698413114E-01 -0.69590432248E-01  0.75797236242E-01  0.51100000000E-03 0.  1.
         11    1    4    4    0    0 -0.54773924725E-02 -0.34025951893E-01 -0.41137529281E-01  0.53668656280E-01  0.51100000000E-03 0. -1.
</event>
<event>
 8    1  0.1150307E+005  0.1043930E+01  0.7957747E-01            NaN
         13   -1    0    0    0    0  0.00000000000E+00  0.00000000000E+00  0.74505805969E-08  0.10566000000E+00  0.10566000000E+00 0.  1.
     999900   -1    0    0    0    0 -0.00000000000E+00 -0.00000000000E+00 -0.74505805969E-08  0.93827000000E+00  0.93827000000E+00 0.  1.
     999902    2    1    2    0    0 -0.86353272646E-02 -0.60728116597E-02 -0.20378049605E-01  0.10209797751E+01  0.10207217977E+01 0.  0.
     999903    2    3    3    0    0 -0.75760573512E-01 -0.10178289931E+00  0.29736713847E-01  0.13183540599E+00  0.19921822980E-01 0.  0.
         14    1    1    2    0    0  0.86353272646E-02  0.60728116597E-02  0.20378049605E-01  0.22950224926E-01  0.00000000000E+00 0.  1.
     999901    1    3    3    0    0  0.67125246248E-01  0.95710087650E-01 -0.50114763452E-01  0.88914436909E+00  0.88000000000E+00 0. -1.
        -11    1    4    4    0    0 -0.48113455544E-01 -0.78925345850E-01  0.24031032331E-01  0.95508462755E-01  0.51100000000E-03 0. -1.
         11    1    4    4    0    0 -0.27647117968E-01 -0.22857553460E-01  0.57056815156E-02  0.36326943233E-01  0.51100000000E-03 0.  1.
</event>
<event>
 8    1  0.1150307E+005  0.1043930E+01  0.7957747E-01            NaN
         13   -1    0    0    0    0  0.00000000000E+00  0.00000000000E+00  0.74505805969E-08  0.10566000000E+00  0.10566000000E+00 0.  1.
     999900   -1    0    0    0    0 -0.00000000000E+00 -0.00000000000E+00 -0.74505805969E-08  0.93827000000E+00  0.93827000000E+00 0.  1.
     999902    2    1    2    0    0  0.19392501896E-01 -0.18916114523E-02  0.14445779768E-01  0.10196745289E+01  0.10193860000E+01 0.  0.
     999903    2    3    3    0    0 -0.35558903525E-01  0.59168472203E-01 -0.10562094621E+00  0.12773057920E+00  0.19848749614E-01 0.  0.
         14    1    1    2    0    0 -0.19392501896E-01  0.18916114523E-02 -0.14445779768E-01  0.24255471069E-01  0.00000000000E+00 0. -1.
     999901    1    3    3    0    0  0.54951405422E-01 -0.61060083655E-01  0.12006672598E+00  0.89194394973E+00  0.88000000000E+00 0.  1.
        -11    1    4    4    0    0 -0.32890535509E-01  0.47954649580E-01 -0.74296352394E-01  0.94348528566E-01  0.51100000000E-03 0.  1.
         11    1    4    4    0    0 -0.26683680167E-02  0.11213822623E-01 -0.31324593818E-01  0.33382050634E-01  0.51100000000E-03 0. -1.
</event>
<event>
 8    1  0.1150307E+005  0.1043930E+01  0.7957747E-01            NaN
         13   -1    0    0    0    0  0.00000000000E+00  0.00000000000E+00  0.74505805969E-08  0.10566000000E+00  0.10566000000E+00 0.  1.
     999900   -1    0    0    0    0 -0.00000000000E+00 -0.00000000000E+00 -0.74505805969E-08  0.93827000000E+00  0.93827000000E+00 0. -1.
     999902    2    1    2    0    0  0.16654944092E-01 -0.11891256758E-01  0.13819551413E-01  0.10192364958E+01  0.10189373215E+01 0.  0.
     999903    2    3    3    0    0 -0.55074919099E-01 -0.64360108294E-01 -0.94180423036E-01  0.12819095926E+00  0.19685012037E-01 0.  0.
         14    1    1    2    0    0 -0.16654944092E-01  0.11891256758E-01 -0.13819551413E-01  0.24693504232E-01  0.00000000000E+00 0. -1.
     999901    1    3    3    0    0  0.71729863190E-01  0.52468851536E-01  0.10799997445E+00  0.89104553651E+00  0.88000000000E+00 0. -1.
        -11    1    4    4    0    0 -0.14307370408E-01 -0.26550408978E-01 -0.43637992191E-01  0.53048662079E-01  0.51100000000E-03 0.  1.
         11    1    4    4    0    0 -0.40767548691E-01 -0.37809699315E-01 -0.50542430844E-01  0.75142297178E-01  0.51100000000E-03 0. -1.
</event>
<event>
 8    1  0.1150307E+005  0.1043930E+01  0.7957747E-01            NaN
         13   -1    0    0    0    0  0.00000000000E+00  0.00000000000E+00  0.74505805969E-08  0.10566000000E+00  0.10566000000E+00 0. -1.
     999900   -1    0    0    0    0 -0.00000000000E+00 -0.00000000000E+00 -0.74505805969E-08  0.93827000000E+00  0.93827000000E+00 0.  1.
     999902    2    1    2    0    0  0.12898308651E-01 -0.10745728844E-01  0.15820719001E-01  0.10208620091E+01  0.10206013470E+01 0.  0.
     999903    2    3    3    0    0  0.75571607358E-01  0.71992735069E-01  0.79101160728E-01  0.13250509317E+00  0.20163936747E-01 0.  0.
         14    1    1    2    0    0 -0.12898308651E-01  0.10745728844E-01 -0.15820719001E-01  0.23067990900E-01  0.00000000000E+00 0.  1.
     999901    1    3    3    0    0 -0.62673298707E-01 -0.82738463914E-01 -0.63280441727E-01  0.88835691593E+00  0.88000000000E+00 0.  1.
        -11    1    4    4    0    0  0.54402792286E-01  0.38846551311E-01  0.52833612028E-01  0.85207805031E-01  0.51100000000E-03 0. -1.
         11    1    4    4    0    0  0.21168815072E-01  0.33146183758E-01  0.26267548701E-01  0.47297288136E-01  0.51100000000E-03 0.  1.
</event>
<event>
 8    1  0.1150307E+005  0.1043930E+01  0.7957747E-01            NaN
         13   -1    0    0    0    0  0.00000000000E+00  0.00000000000E+00  0.74505805969E-08  0.10566000000E+00  0.10566000000E+00 0.  1.
     999900   -1    0    0    0    0 -0.00000000000E+00 -0.00000000000E+00 -0.74505805969E-08  0.93827000000E+00  0.93827000000E+00 0. -1.
     999902    2    1    2    0    0 -0.55008155667E-02  0.20665728316E-01  0.59074698750E-02  0.10217437543E+01  0.10215028487E+01 0.  0.
     999903    2    3    3    0    0 -0.12253282189E-02  0.13269941556E+00  0.73848498361E-02  0.13462932563E+00  0.21444882663E-01 0.  0.
         14    1    1    2    0    0  0.55008155667E-02 -0.20665728316E-01 -0.59074698750E-02  0.22186245717E-01  0.00000000000E+00 0. -1.
     999901    1    3    3    0    0 -0.42754873478E-02 -0.11203368725E+00 -0.14773799611E-02  0.88711442865E+00  0.88000000000E+00 0.  1.
        -11    1    4    4    0    0 -0.87295664824E-02  0.83741017688E-01  0.11256316249E-01  0.84945448088E-01  0.51100000000E-03 0.  1.
         11    1    4    4    0    0  0.75042382635E-02  0.48958397876E-01 -0.38714664126E-02  0.49683877543E-01  0.51100000000E-03 0. -1.
</event>
<event>
 8    1  0.1150307E+005  0.1043930E+01  0.7957747E-01            NaN
         13   -1    0    0    0    0  0.00000000000E+00  0.00000000000E+00  0.74505805969E-08  0.10566000000E+00  0.10566000000E+00 0.  1.
     999900   -1    0    0    0    0 -0.00000000000E+00 -0.00000000000E+00 -0.74505805969E-08  0.93827000000E+00  0.93827000000E+00 0. -1.
     999902    2    1    2    0    0 -0.12106529896E-01  0.88976412858E-02 -0.18013030304E-01  0.10204735436E+01  0.10202039246E+01 0.  0.
     999903    2    3    3    0    0 -0.10328104599E+00 -0.65563372348E-01 -0.46046739594E-01  0.13219254988E+00  0.19724040208E-01 0.  0.
         14    1    1    2    0    0  0.12106529896E-01 -0.88976412858E-02  0.18013030304E-01  0.23456456410E-01  0.00000000000E+00 0.  1.
     999901    1    3    3    0    0  0.91174516089E-01  0.74461013634E-01  0.28033709290E-01  0.88828099371E+00  0.88000000000E+00 0.  1.
        -11    1    4    4    0    0 -0.43962603738E-01 -0.39548415914E-01 -0.21490397162E-01  0.62919679114E-01  0.51100000000E-03 0. -1.
         11    1    4    4    0    0 -0.59318442248E-01 -0.26014956434E-01 -0.24556342433E-01  0.69272870762E-01  0.51100000000E-03 0.  1.
</event>
<event>
 8    1  0.1150307E+005  0.1043930E+01  0.7957747E-01            NaN
         13   -1    0    0    0    0  0.00000000000E+00  0.00000000000E+00  0.74505805969E-08  0.10566000000E+00  0.10566000000E+00 0. -1.
     999900   -1    0    0    0    0 -0.00000000000E+00 -0.00000000000E+00 -0.74505805969E-08  0.93827000000E+00  0.93827000000E+00 0.  1.
     999902    2    1    2    0    0  0.57083778239E-02 -0.23773211358E-01  0.23133710463E-01  0.10102711272E+01  0.10097102707E+01 0.  0.
     999903    2    3    3    0    0 -0.18358399201E-01  0.98256643890E-01 -0.58696867677E-01  0.11776525116E+00  0.20783003029E-01 0.  0.
         14    1    1    2    0    0 -0.57083778239E-02  0.23773211358E-01 -0.23133710463E-01  0.33658872759E-01  0.00000000000E+00 0.  1.
     999901    1    3    3    0    0  0.24066777025E-01 -0.12202985525E+00  0.81830578140E-01  0.89250587609E+00  0.88000000000E+00 0.  1.
        -11    1    4    4    0    0 -0.77604531868E-02  0.75476887650E-01 -0.51222238252E-01  0.91547605187E-01  0.51100000000E-03 0.  1.
         11    1    4    4    0    0 -0.10597946014E-01  0.22779756240E-01 -0.74746294250E-02  0.26217645968E-01  0.51100000000E-03 0. -1.
</event>
<event>
 8    1  0.1150307E+005  0.1043930E+01  0.7957747E-01            NaN
         13   -1    0    0    0    0  0.00000000000E+00  0.00000000000E+00  0.74505805969E-08  0.10566000000E+00  0.10566000000E+00 0.  1.
     999900   -1    0    0    0    0 -0.00000000000E+00 -0.00000000000E+00 -0.74505805969E-08  0.93827000000E+00  0.93827000000E+00 0. -1.
     999902    2    1    2    0    0  0.64326436682E-02  0.22111231685E-01 -0.30864162408E-02  0.10206961575E+01  0.10204316903E+01 0.  0.
     999903    2    3    3    0    0  0.81516373833E-01  0.86885627474E-01  0.56045831464E-01  0.13315465899E+00  0.19874519443E-01 0.  0.
         14    1    1    2    0    0 -0.64326436682E-02 -0.22111231685E-01  0.30864162408E-02  0.23233842480E-01  0.00000000000E+00 0. -1.
     999901    1    3    3    0    0 -0.75083730165E-01 -0.64774395789E-01 -0.59132247705E-01  0.88754149852E+00  0.88000000000E+00 0. -1.
        -11    1    4    4    0    0  0.63792535160E-01  0.75714590310E-01  0.51921946697E-01  0.11179595877E+00  0.51100000000E-03 0. -1.
         11    1    4    4    0    0  0.17723838673E-01  0.11171037164E-01  0.41238847669E-02  0.21358700223E-01  0.51100000000E-03 0.  1.
</event>
<event>
 7    1  0.1150307E+005  0.1043930E+01  0.7957747E-01            NaN
         13   -1    0    0    0    0  0.00000000000E+00  0.00000000000E+00  0.74505805969E-08  0.10566000000E+00  0.10566000000E+00 0.  1.
     999900   -1    0    0    0    0 -0.00000000000E+00 -0.00000000000E+00 -0.74505805969E-08  0.93827000000E+00  0.93827000000E+00 0.  1.
     999903    2    1    2    0    0  0.67905027194E-01  0.11094078607E-01  0.84697623489E-01  0.11130301457E+00  0.21920363330E-01 0.  0.
         14    1    1    2    0    0 -0.22687509235E-01 -0.39944285914E-01  0.60561840330E-02  0.46335153150E-01  0.00000000000E+00 0. -1.
     999901    1    1    2    0    0 -0.45217517960E-01  0.28850207307E-01 -0.90753807522E-01  0.88629183228E+00  0.88000000000E+00 0.  1.
        -11    1    3    3    0    0  0.48112598570E-01  0.16368398871E-01  0.67864429424E-01  0.84785544315E-01  0.51100000000E-03 0.  1.
         11    1    3    3    0    0  0.19792428624E-01 -0.52743202648E-02  0.16833194064E-01  0.26517470251E-01  0.51100000000E-03 0. -1.
</event>
<event>
 8    1  0.1150307E+005  0.1043930E+01  0.7957747E-01            NaN
         13   -1    0    0    0    0  0.00000000000E+00  0.00000000000E+00  0.74505805969E-08  0.10566000000E+00  0.10566000000E+00 0. -1.
     999900   -1    0    0    0    0 -0.00000000000E+00 -0.00000000000E+00 -0.74505805969E-08  0.93827000000E+00  0.93827000000E+00 0. -1.
     999902    2    1    2    0    0 -0.83604776585E-02 -0.17013239636E-01  0.13150230284E-01  0.10208588824E+01  0.10205981488E+01 0.  0.
     999903    2    3    3    0    0 -0.11253734877E+00 -0.65920101835E-01 -0.16203201976E-01  0.13288009573E+00  0.19607687080E-01 0.  0.
         14    1    1    2    0    0  0.83604776585E-02  0.17013239636E-01 -0.13150230284E-01  0.23071117574E-01  0.00000000000E+00 0.  1.
     999901    1    3    3    0    0  0.10417687111E+00  0.48906862199E-01  0.29353432260E-01  0.88797878670E+00  0.88000000000E+00 0.  1.
        -11    1    4    4    0    0 -0.61970560222E-01 -0.42617398986E-01 -0.12311254329E-02  0.75222136512E-01  0.51100000000E-03 0.  1.
         11    1    4    4    0    0 -0.50566788544E-01 -0.23302702849E-01 -0.14972076543E-01  0.57657959214E-01  0.51100000000E-03 0. -1.
</event>
<event>
 8    1  0.1150307E+005  0.1043930E+01  0.7957747E-01            NaN
         13   -1    0    0    0    0  0.00000000000E+00  0.00000000000E+00  0.74505805969E-08  0.10566000000E+00  0.10566000000E+00 0.  1.
     999900   -1    0    0    0    0 -0.00000000000E+00 -0.00000000000E+00 -0.74505805969E-08  0.93827000000E+00  0.93827000000E+00 0.  1.
     999902    2    1    2    0    0  0.12885350327E-01 -0.50990420972E-02 -0.18705854325E-01  0.10206503636E+01  0.10203848408E+01 0.  0.
     999903    2    3    3    0    0 -0.12417165951E+00 -0.22128491125E-01 -0.22997463651E-01  0.12986809844E+00  0.20701896371E-01 0.  0.
         14    1    1    2    0    0 -0.12885350327E-01  0.50990420972E-02  0.18705854325E-01  0.23279636367E-01  0.00000000000E+00 0.  1.
     999901    1    3    3    0    0  0.13705700983E+00  0.17029449027E-01  0.42916093259E-02  0.89078226520E+00  0.88000000000E+00 0.  1.
        -11    1    4    4    0    0 -0.61872567154E-01 -0.12281689957E-01 -0.21928378103E-01  0.66784499412E-01  0.51100000000E-03 0.  1.
         11    1    4    4    0    0 -0.62299092351E-01 -0.98468011675E-02 -0.10690855481E-02  0.63083599024E-01  0.51100000000E-03 0. -1.
</event>
<event>
 8    1  0.1150307E+005  0.1043930E+01  0.7957747E-01            NaN
         13   -1    0    0    0    0  0.00000000000E+00  0.00000000000E+00  0.74505805969E-08  0.10566000000E+00  0.10566000000E+00 0.  1.
     999900   -1    0    0    0    0 -0.00000000000E+00 -0.00000000000E+00 -0.74505805969E-08  0.93827000000E+00  0.93827000000E+00 0.  1.
     999902    2    1    2    0    0  0.13842315075E-02 -0.68757838405E-02 -0.23509126276E-01  0.10193969301E+01  0.10191016777E+01 0.  0.
     999903    2    3    3    0    0  0.42550202775E-01 -0.11982001799E+00  0.19424425757E-01  0.13018698464E+00  0.20099407643E-01 0.  0.
         14    1    1    2    0    0 -0.13842315075E-02  0.68757838405E-02  0.23509126276E-01  0.24533069896E-01  0.00000000000E+00 0.  1.
     999901    1    3    3    0    0 -0.41165971268E-01  0.11294423415E+00 -0.42933552033E-01  0.88920994546E+00  0.88000000000E+00 0.  1.
        -11    1    4    4    0    0  0.25392701670E-01 -0.96015850086E-01  0.16711595369E-01  0.10071430537E+00  0.51100000000E-03 0. -1.
         11    1    4    4    0    0  0.17157501105E-01 -0.23804167902E-01  0.27128303880E-02  0.29472679270E-01  0.51100000000E-03 0.  1.
</event>
<event>
 8    1  0.1150307E+005  0.1043930E+01  0.7957747E-01            NaN
         13   -1    0    0    0    0  0.00000000000E+00  0.00000000000E+00  0.74505805969E-08  0.10566000000E+00  0.10566000000E+00 0.  1.
     999900   -1    0    0    0    0 -0.00000000000E+00 -0.00000000000E+00 -0.74505805969E-08  0.93827000000E+00  0.93827000000E+00 0.  1.
     999902    2    1    2    0    0  0.62204855835E-02 -0.18173231678E-01  0.13194446487E-01  0.10206264765E+01  0.10203604021E+01 0.  0.
     999903    2    3    3    0    0  0.99589108107E-01  0.45268925460E-01 -0.66911202559E-01  0.12980689767E+00  0.20135927815E-01 0.  0.
         14    1    1    2    0    0 -0.62204855835E-02  0.18173231678E-01 -0.13194446487E-01  0.23303523524E-01  0.00000000000E+00 0. -1.
     999901    1    3    3    0    0 -0.93368622523E-01 -0.63442157139E-01  0.80105649047E-01  0.89081957881E+00  0.88000000000E+00 0. -1.
        -11    1    4    4    0    0  0.81426967700E-01  0.29244495953E-01 -0.47090550331E-01  0.98505698636E-01  0.51100000000E-03 0.  1.
         11    1    4    4    0    0  0.18162140407E-01  0.16024429507E-01 -0.19820652228E-01  0.31301199034E-01  0.51100000000E-03 0. -1.
</event>
<event>
 8    1  0.1150307E+005  0.1043930E+01  0.7957747E-01            NaN
         13   -1    0    0    0    0  0.00000000000E+00  0.00000000000E+00  0.74505805969E-08  0.10566000000E+00  0.10566000000E+00 0. -1.
     999900   -1    0    0    0    0 -0.00000000000E+00 -0.00000000000E+00 -0.74505805969E-08  0.93827000000E+00  0.93827000000E+00 0. -1.
     999902    2    1    2    0    0 -0.26877905925E-03 -0.17387321964E-01  0.16120357368E-01  0.10202180383E+01  0.10199424437E+01 0.  0.
     999903    2    3    3    0    0 -0.48763004160E-01  0.11718801016E+00  0.13971198079E-02  0.12854602256E+00  0.20279735504E-01 0.  0.
         14    1    1    2    0    0  0.26877905925E-03  0.17387321964E-01 -0.16120357368E-01  0.23711961727E-01  0.00000000000E+00 0.  1.
     999901    1    3    3    0    0  0.48494225101E-01 -0.13457533212E+00  0.14723237560E-01  0.89167201571E+00  0.88000000000E+00 0. -1.
        -11    1    4    4    0    0 -0.45705007040E-01  0.98231929462E-01 -0.45428742878E-02  0.10844057572E+00  0.51100000000E-03 0. -1.
         11    1    4    4    0    0 -0.30579971199E-02  0.18956080698E-01  0.59399940957E-02  0.20105446841E-01  0.51100000000E-03 0.  1.
</event>
<event>
 8    1  0.1150307E+005  0.1043930E+01  0.7957747E-01            NaN
         13   -1    0    0    0    0  0.00000000000E+00  0.00000000000E+00  0.74505805969E-08  0.10566000000E+00  0.10566000000E+00 0. -1.
     999900   -1    0    0    0    0 -0.00000000000E+00 -0.00000000000E+00 -0.74505805969E-08  0.93827000000E+00  0.93827000000E+00 0.  1.
     999902    2    1    2    0    0 -0.14192472938E-01  0.12377929474E-01  0.13765496464E-01  0.10206034418E+01  0.10203368351E+01 0.  0.
     999903    2    3    3    0    0  0.51125513462E-01 -0.10903916968E+00 -0.39400538916E-01  0.12828333181E+00  0.20021291227E-01 0.  0.
         14    1    1    2    0    0  0.14192472938E-01 -0.12377929474E-01 -0.13765496464E-01  0.23326558234E-01  0.00000000000E+00 0. -1.
     999901    1    3    3    0    0 -0.65317986400E-01  0.12141709915E+00  0.53166035380E-01  0.89232010996E+00  0.88000000000E+00 0. -1.
        -11    1    4    4    0    0  0.11455899431E-01 -0.47042487507E-01 -0.13687928045E-01  0.50317529329E-01  0.51100000000E-03 0.  1.
         11    1    4    4    0    0  0.39669614031E-01 -0.61996682171E-01 -0.25712610871E-01  0.77965802480E-01  0.51100000000E-03 0. -1.
</event>
<event>
 8    1  0.1150307E+005  0.1043930E+01  0.7957747E-01            NaN
         13   -1    0    0    0    0  0.00000000000E+00  0.00000000000E+00  0.74505805969E-08  0.10566000000E+00  0.10566000000E+00 0.  1.
     999900   -1    0    0    0    0 -0.00000000000E+00 -0.00000000000E+00 -0.74505805969E-08  0.93827000000E+00  0.93827000000E+00 0. -1.
     999902    2    1    2    0    0 -0.15328226217E-01  0.70001329678E-02 -0.16784775724E-01  0.10201458650E+01  0.10198685704E+01 0.  0.
     999903    2    3    3    0    0  0.51718572145E-01 -0.33850337698E-01 -0.11420181446E+00  0.13129598256E+00  0.19388773603E-01 0.  0.
         14    1    1    2    0    0  0.15328226217E-01 -0.70001329678E-02  0.16784775724E-01  0.23784134978E-01  0.00000000000E+00 0.  1.
     999901    1    3    3    0    0 -0.67046798362E-01  0.40850470665E-01  0.97417038738E-01  0.88884988247E+00  0.88000000000E+00 0.  1.
        -11    1    4    4    0    0  0.24144886204E-01 -0.25519275473E-01 -0.52138010247E-01  0.62871632585E-01  0.51100000000E-03 0.  1.
         11    1    4    4    0    0  0.27573685941E-01 -0.83310622249E-02 -0.62063804216E-01  0.68424349970E-01  0.51100000000E-03 0. -1.
</event>
<event>
 8    1  0.1150307E+005  0.1043930E+01  0.7957747E-01            NaN
         13   -1    0    0    0    0  0.00000000000E+00  0.00000000000E+00  0.74505805969E-08  0.10566000000E+00  0.10566000000E+00 0. -1.
     999900   -1    0    0    0    0 -0.00000000000E+00 -0.00000000000E+00 -0.74505805969E-08  0.93827000000E+00  0.93827000000E+00 0. -1.
     999902    2    1    2    0    0  0.62132750140E-02  0.21368723795E-01  0.74514630856E-02  0.10204619058E+01  0.10201920161E+01 0.  0.
     999903    2    3    3    0    0  0.41314815548E-01  0.96732228718E-01  0.79886414819E-01  0.13358051675E+00  0.19946857536E-01 0.  0.
         14    1    1    2    0    0 -0.62132750140E-02 -0.21368723795E-01 -0.74514630856E-02  0.23468094195E-01  0.00000000000E+00 0.  1.
     999901    1    3    3    0    0 -0.35101540534E-01 -0.75363504923E-01 -0.72434951733E-01  0.88688138906E+00  0.88000000000E+00 0.  1.
        -11    1    4    4    0    0  0.46274817713E-02  0.32510818416E-01  0.20390048663E-01  0.38657238741E-01  0.51100000000E-03 0.  1.
         11    1    4    4    0    0  0.36687333777E-01  0.64221410303E-01  0.59496366156E-01  0.94923278007E-01  0.51100000000E-03 0. -1.
</event>
<event>
 8    1  0.1150307E+005  0.1043930E+01  0.7957747E-01            NaN
         13   -1    0    0    0    0  0.00000000000E+00  0.00000000000E+00  0.74505805969E-08  0.10566000000E+00  0.10566000000E+00 0. -1.
     999900   -1    0    0    0    0 -0.00000000000E+00 -0.00000000000E+00 -0.74505805969E-08  0.93827000000E+00  0.93827000000E+00 0.  1.
     999902    2    1    2    0    0 -0.12034514871E-01  0.35444577631E-02 -0.20114300972E-01  0.10202239284E+01  0.10199484723E+01 0.  0.
     999903    2    3    3    0    0 -0.47833908764E-01 -0.18317391634E-01 -0.12195261283E+00  0.13335833605E+00  0.16982236438E-01 0.  0.
         14    1    1    2    0    0  0.12034514871E-01 -0.35444577631E-02  0.20114300972E-01  0.23706071640E-01  0.00000000000E+00 0. -1.
     999901    1    3    3    0    0  0.35799393893E-01  0.21861849397E-01  0.10183831186E+00  0.88686559231E+00  0.88000000000E+00 0. -1.
        -11    1    4    4    0    0 -0.22868779206E-01 -0.24798986736E-03 -0.45516029227E-01  0.50941266170E-01  0.51100000000E-03 0.  1.
         11    1    4    4    0    0 -0.24965129558E-01 -0.18069401767E-01 -0.76436583601E-01  0.82417069880E-01  0.51100000000E-03 0. -1.
</event>
<event>
 8    1  0.1150307E+005  0.1043930E+01  0.7957747E-01            NaN
         13   -1    0    0    0    0  0.00000000000E+00  0.00000000000E+00  0.74505805969E-08  0.10566000000E+00  0.10566000000E+00 0.  1.
     999900   -1    0    0    0    0 -0.00000000000E+00 -0.00000000000E+00 -0.74505805969E-08  0.93827000000E+00  0.93827000000E+00 0.  1.
     999902    2    1    2    0    0  0.81706190527E-02  0.22187555441E-01 -0.43639154070E-02  0.10198864897E+01  0.10196030411E+01 0.  0.
     999903    2    3    3    0    0  0.21478054398E-01  0.11807238903E+00 -0.53906117087E-01  0.13319295810E+00  0.20786985288E-01 0.  0.
         14    1    1    2    0    0 -0.81706190527E-02 -0.22187555441E-01  0.43639154070E-02  0.24043510348E-01  0.00000000000E+00 0.  1.
     999901    1    3    3    0    0 -0.13307435345E-01 -0.95884833585E-01  0.49542201680E-01  0.88669353155E+00  0.88000000000E+00 0.  1.
        -11    1    4    4    0    0 -0.17142325499E-02  0.31345987144E-01 -0.20012215692E-01  0.37232504632E-01  0.51100000000E-03 0.  1.
         11    1    4    4    0    0  0.23192286948E-01  0.86726401882E-01 -0.33893901395E-01  0.95960453470E-01  0.51100000000E-03 0. -1.
</event>
<event>
 8    1  0.1150307E+005  0.1043930E+01  0.7957747E-01            NaN
         13   -1    0    0    0    0  0.00000000000E+00  0.00000000000E+00  0.74505805969E-08  0.10566000000E+00  0.10566000000E+00 0.  1.
     999900   -1    0    0    0    0 -0.00000000000E+00 -0.00000000000E+00 -0.74505805969E-08  0.93827000000E+00  0.93827000000E+00 0.  1.
     999902    2    1    2    0    0 -0.19501239251E-01 -0.16660273390E-02 -0.10891030820E-01  0.10215315953E+01  0.10212860088E+01 0.  0.
     999903    2    3    3    0    0 -0.27282342246E-01  0.10347618217E+00 -0.76333013322E-01  0.13282574812E+00  0.19086748469E-01 0.  0.
         14    1    1    2    0    0  0.19501239251E-01  0.16660273390E-02  0.10891030820E-01  0.22398404669E-01  0.00000000000E+00 0.  1.
     999901    1    3    3    0    0  0.77811029952E-02 -0.10514220951E+00  0.65441982502E-01  0.88870584721E+00  0.88000000000E+00 0. -1.
        -11    1    4    4    0    0 -0.14341371497E-01  0.23622907315E-01 -0.16313134156E-01  0.32095111052E-01  0.51100000000E-03 0. -1.
         11    1    4    4    0    0 -0.12940970749E-01  0.79853274855E-01 -0.60019879166E-01  0.10073063707E+00  0.51100000000E-03 0.  1.
</event>
<event>
 8    1  0.1150307E+005  0.1043930E+01  0.7957747E-01            NaN
         13   -1    0    0    0    0  0.00000000000E+00  0.00000000000E+00  0.74505805969E-08  0.10566000000E+00  0.10566000000E+00 0. -1.
     999900   -1    0    0    0    0 -0.00000000000E+00 -0.00000000000E+00 -0.74505805969E-08  0.93827000000E+00  0.93827000000E+00 0. -1.
     999902    2    1    2    0    0 -0.92636885888E-02 -0.49356676722E-02  0.20772064931E-01  0.10206565081E+01  0.10203911271E+01 0.  0.
     999903    2    3    3    0    0  0.43898311873E-01 -0.35730448959E-01  0.11887826407E+00  0.13307589594E+00  0.19324224309E-01 0.  0.
         14    1    1    2    0    0  0.92636885888E-02  0.49356676722E-02 -0.20772064931E-01  0.23273491855E-01  0.00000000000E+00 0.  1.
     999901    1    3    3    0    0 -0.53162000462E-01  0.30794781287E-01 -0.98106199137E-01  0.88758061220E+00  0.88000000000E+00 0. -1.
        -11    1    4    4    0    0  0.44136688854E-01 -0.30740298193E-01  0.11410407079E+00  0.12614679277E+00  0.51100000000E-03 0.  1.
         11    1    4    4    0    0 -0.23837698137E-03 -0.49901507654E-02  0.47741932830E-02  0.69291031707E-02  0.51100000000E-03 0. -1.
</event>
<event>
 8    1  0.1150307E+005  0.1043930E+01  0.7957747E-01            NaN
         13   -1    0    0    0    0  0.00000000000E+00  0.00000000000E+00  0.74505805969E-08  0.10566000000E+00  0.10566000000E+00 0. -1.
     999900   -1    0    0    0    0 -0.00000000000E+00 -0.00000000000E+00 -0.74505805969E-08  0.93827000000E+00  0.93827000000E+00 0.  1.
     999902    2    1    2    0    0  0.19064992616E-01  0.19339741865E-02  0.10594266311E-01  0.10220335921E+01  0.10217990070E+01 0.  0.
     999903    2    3    3    0    0  0.68031415618E-01  0.37777119399E-01  0.10797276106E+00  0.13458499480E+00  0.19990483578E-01 0.  0.
         14    1    1    2    0    0 -0.19064992616E-01 -0.19339741865E-02 -0.10594266311E-01  0.21896407885E-01  0.00000000000E+00 0.  1.
     999901    1    3    3    0    0 -0.48966423002E-01 -0.35843145213E-01 -0.97378494745E-01  0.88744859732E+00  0.88000000000E+00 0.  1.
        -11    1    4    4    0    0  0.25327901963E-01  0.11346944343E-01  0.54883020285E-01  0.61503356009E-01  0.51100000000E-03 0. -1.
         11    1    4    4    0    0  0.42703513655E-01  0.26430175056E-01  0.53089740771E-01  0.73081638790E-01  0.51100000000E-03 0.  1.
</event>
<event>
 8    1  0.1150307E+005  0.1043930E+01  0.7957747E-01            NaN
         13   -1    0    0    0    0  0.00000000000E+00  0.00000000000E+00  0.74505805969E-08  0.10566000000E+00  0.10566000000E+00 0. -1.
     999900   -1    0    0    0    0 -0.00000000000E+00 -0.00000000000E+00 -0.74505805969E-08  0.93827000000E+00  0.93827000000E+00 0. -1.
     999902    2    1    2    0    0 -0.20261016411E-01  0.62560158555E-02 -0.10365461647E-01  0.10203272604E+01  0.10200542285E+01 0.  0.
     999903    2    3    3    0    0  0.41827427329E-01  0.21824945297E-01  0.11802635706E+00  0.12870972722E+00  0.20251197588E-01 0.  0.
         14    1    1    2    0    0  0.20261016411E-01 -0.62560158555E-02  0.10365461647E-01  0.23602739577E-01  0.00000000000E+00 0. -1.
     999901    1    3    3    0    0 -0.62088443740E-01 -0.15568929442E-01 -0.12839181871E+00  0.89161753321E+00  0.88000000000E+00 0. -1.
        -11    1    4    4    0    0  0.25422588402E-01  0.64862992939E-02  0.42834475186E-01  0.50233788082E-01  0.51100000000E-03 0.  1.
         11    1    4    4    0    0  0.16404838927E-01  0.15338646003E-01  0.75191881879E-01  0.78475939134E-01  0.51100000000E-03 0. -1.
</event>
<event>
 8    1  0.1150307E+005  0.1043930E+01  0.7957747E-01            NaN
         13   -1    0    0    0    0  0.00000000000E+00  0.00000000000E+00  0.74505805969E-08  0.10566000000E+00  0.10566000000E+00 0.  1.
     999900   -1    0    0    0    0 -0.00000000000E+00 -0.00000000000E+00 -0.74505805969E-08  0.93827000000E+00  0.93827000000E+00 0. -1.
     999902    2    1    2    0    0  0.24294191347E-02 -0.89073300129E-02  0.22164626406E-01  0.10199193093E+01  0.10196366432E+01 0.  0.
     999903    2    3    3    0    0  0.12610730240E-01  0.50756601402E-01  0.11996266166E+00  0.13243528153E+00  0.20317492445E-01 0.  0.
         14    1    1    2    0    0 -0.24294191347E-02  0.89073300129E-02 -0.22164626406E-01  0.24010690723E-01  0.00000000000E+00 0. -1.
     999901    1    3    3    0    0 -0.10181311105E-01 -0.59663931415E-01 -0.97798035250E-01  0.88748402775E+00  0.88000000000E+00 0. -1.
        -11    1    4    4    0    0 -0.45056234359E-02  0.84115479001E-02  0.30884659334E-01  0.32329214092E-01  0.51100000000E-03 0.  1.
         11    1    4    4    0    0  0.17116353676E-01  0.42345053502E-01  0.89078002322E-01  0.10010606744E+00  0.51100000000E-03 0. -1.
</event>
<event>
 8    1  0.1150307E+005  0.1043930E+01  0.7957747E-01            NaN
         13   -1    0    0    0    0  0.00000000000E+00  0.00000000000E+00  0.74505805969E-08  0.10566000000E+00  0.10566000000E+00 0.  1.
     999900   -1    0    0    0    0 -0.00000000000E+00 -0.00000000000E+00 -0.74505805969E-08  0.93827000000E+00  0.93827000000E+00 0. -1.
     999902    2    1    2    0    0 -0.17532568265E-01  0.15753123713E-01  0.25186377303E-03  0.10203585068E+01  0.10200862057E+01 0.  0.
     999903    2    3    3    0    0  0.11869036003E+00  0.38976682656E-01  0.25929915503E-01  0.12920454578E+00  0.20368376927E-01 0.  0.
         14    1    1    2    0    0  0.17532568265E-01 -0.15753123713E-01 -0.25186377303E-03  0.23571493208E-01  0.00000000000E+00 0.  1.
     999901    1    3    3    0    0 -0.13622292829E+00 -0.23223558943E-01 -0.25678051730E-01  0.89115396101E+00  0.88000000000E+00 0. -1.
        -11    1    4    4    0    0  0.52547607323E-01  0.25763668730E-01  0.18314164188E-01  0.61324443680E-01  0.51100000000E-03 0.  1.
         11    1    4    4    0    0  0.66142752704E-01  0.13213013926E-01  0.76157513145E-02  0.67880102102E-01  0.51100000000E-03 0. -1.
</event>
<event>
 8    1  0.1150307E+005  0.1043930E+01  0.7957747E-01            NaN
         13   -1    0    0    0    0  0.00000000000E+00  0.00000000000E+00  0.74505805969E-08  0.10566000000E+00  0.10566000000E+00 0.  1.
     999900   -1    0    0    0    0 -0.00000000000E+00 -0.00000000000E+00 -0.74505805969E-08  0.93827000000E+00  0.93827000000E+00 0.  1.
     999902    2    1    2    0    0 -0.15835527229E-01 -0.11318647031E-01  0.14905304373E-01  0.10194138055E+01  0.10191189642E+01 0.  0.
     999903    2    3    3    0    0 -0.14861798236E-01 -0.12463922327E+00  0.35460823821E-01  0.13190885876E+00  0.19663874731E-01 0.  0.
         14    1    1    2    0    0  0.15835527229E-01  0.11318647031E-01 -0.14905304373E-01  0.24516194477E-01  0.00000000000E+00 0. -1.
     999901    1    3    3    0    0 -0.97372899292E-03  0.11332057624E+00 -0.20555519448E-01  0.88750494676E+00  0.88000000000E+00 0.  1.
        -11    1    4    4    0    0 -0.10281456559E-01 -0.99252713504E-01  0.36058817569E-01  0.10610046622E+00  0.51100000000E-03 0.  1.
         11    1    4    4    0    0 -0.45803416767E-02 -0.25386509766E-01 -0.59799374793E-03  0.25808392540E-01  0.51100000000E-03 0. -1.
</event>
<event>
 8    1  0.1150307E+005  0.1043930E+01  0.7957747E-01            NaN
         13   -1    0    0    0    0  0.00000000000E+00  0.00000000000E+00  0.74505805969E-08  0.10566000000E+00  0.10566000000E+00 0. -1.
     999900   -1    0    0    0    0 -0.00000000000E+00 -0.00000000000E+00 -0.74505805969E-08  0.93827000000E+00  0.93827000000E+00 0.  1.
     999902    2    1    2    0    0  0.31220450270E-02 -0.33740126331E-02 -0.23824806039E-01  0.10196657772E+01  0.10193770375E+01 0.  0.
     999903    2    3    3    0    0  0.57257509666E-01 -0.11537827746E+00  0.26011769531E-02  0.13052352959E+00  0.20953671091E-01 0.  0.
         14    1    1    2    0    0 -0.31220450270E-02  0.33740126331E-02  0.23824806039E-01  0.24264222823E-01  0.00000000000E+00 0. -1.
     999901    1    3    3    0    0 -0.54135464639E-01  0.11200426483E+00 -0.26425982992E-01  0.88914224759E+00  0.88000000000E+00 0.  1.
        -11    1    4    4    0    0  0.37971430281E-01 -0.95456723800E-01  0.32349441898E-02  0.10278395605E+00  0.51100000000E-03 0. -1.
         11    1    4    4    0    0  0.19286079385E-01 -0.19921553659E-01 -0.63376723663E-03  0.27739573539E-01  0.51100000000E-03 0.  1.
</event>
<event>
 8    1  0.1150307E+005  0.1043930E+01  0.7957747E-01            NaN
         13   -1    0    0    0    0  0.00000000000E+00  0.00000000000E+00  0.74505805969E-08  0.10566000000E+00  0.10566000000E+00 0. -1.
     999900   -1    0    0    0    0 -0.00000000000E+00 -0.00000000000E+00 -0.74505805969E-08  0.93827000000E+00  0.93827000000E+00 0.  1.
     999902    2    1    2    0    0  0.20468326632E-01 -0.11803534681E-01  0.15467208379E-02  0.10202515674E+01  0.10199767608E+01 0.  0.
     999903    2    3    3    0    0  0.74092902184E-01 -0.19703131085E-02  0.10767389378E+00  0.13220018137E+00  0.19737787741E-01 0.  0.
         14    1    1    2    0    0 -0.20468326632E-01  0.11803534681E-01 -0.15467208379E-02  0.23678432622E-01  0.00000000000E+00 0.  1.
     999901    1    3    3    0    0 -0.53624575551E-01 -0.98332215723E-02 -0.10612717294E+00  0.88805138601E+00  0.88000000000E+00 0.  1.
        -11    1    4    4    0    0  0.43100079105E-01  0.72450759114E-03  0.45520177291E-01  0.62693615239E-01  0.51100000000E-03 0. -1.
         11    1    4    4    0    0  0.30992823078E-01 -0.26948206996E-02  0.62153716491E-01  0.69506566133E-01  0.51100000000E-03 0.  1.
</event>
<event>
 8    1  0.1150307E+005  0.1043930E+01  0.7957747E-01            NaN
         13   -1    0    0    0    0  0.00000000000E+00  0.00000000000E+00  0.74505805969E-08  0.10566000000E+00  0.10566000000E+00 0.  1.
     999900   -1    0    0    0    0 -0.00000000000E+00 -0.00000000000E+00 -0.74505805969E-08  0.93827000000E+00  0.93827000000E+00 0.  1.
     999902    2    1    2    0    0 -0.69301665405E-02 -0.51056412233E-02  0.21888712079E-01  0.10204095728E+01  0.10201384640E+01 0.  0.
     999903    2    3    3    0    0  0.10266134890E+00  0.67671718735E-01 -0.33226772496E-01  0.12892510234E+00  0.19971217505E-01 0.  0.
         14    1    1    2    0    0  0.69301665405E-02  0.51056412233E-02 -0.21888712079E-01  0.23520427230E-01  0.00000000000E+00 0. -1.
     999901    1    3    3    0    0 -0.10959151544E+00 -0.72777359959E-01  0.55115484576E-01  0.89148447043E+00  0.88000000000E+00 0. -1.
        -11    1    4    4    0    0  0.39494068204E-01  0.35845184643E-01 -0.20005378626E-01  0.56966086230E-01  0.51100000000E-03 0.  1.
         11    1    4    4    0    0  0.63167280694E-01  0.31826534092E-01 -0.13221393870E-01  0.71959016109E-01  0.51100000000E-03 0. -1.
</event>
<event>
 8    1  0.1150307E+005  0.1043930E+01  0.7957747E-01            NaN
         13   -1    0    0    0    0  0.00000000000E+00  0.00000000000E+00  0.74505805969E-08  0.10566000000E+00  0.10566000000E+00 0.  1.
     999900   -1    0    0    0    0 -0.00000000000E+00 -0.00000000000E+00 -0.74505805969E-08  0.93827000000E+00  0.93827000000E+00 0.  1.
     999902    2    1    2    0    0 -0.38809568978E-02  0.23130252336E-01  0.29009990209E-02  0.10202976875E+01  0.10200239629E+01 0.  0.
     999903    2    3    3    0    0 -0.54692791053E-01  0.30612105399E-01  0.11420752858E+00  0.13180066209E+00  0.19991311888E-01 0.  0.
         14    1    1    2    0    0  0.38809568978E-02 -0.23130252336E-01 -0.29009990209E-02  0.23632312517E-01  0.00000000000E+00 0. -1.
     999901    1    3    3    0    0  0.50811834155E-01 -0.74818530635E-02 -0.11130652956E+00  0.88849702540E+00  0.88000000000E+00 0.  1.
        -11    1    4    4    0    0 -0.40773011553E-01  0.12212618034E-01  0.69808185394E-01  0.81762035073E-01  0.51100000000E-03 0. -1.
         11    1    4    4    0    0 -0.13919779500E-01  0.18399487365E-01  0.44399343191E-01  0.50038627013E-01  0.51100000000E-03 0.  1.
</event>
<event>
 8    1  0.1150307E+005  0.1043930E+01  0.7957747E-01            NaN
         13   -1    0    0    0    0  0.00000000000E+00  0.00000000000E+00  0.74505805969E-08  0.10566000000E+00  0.10566000000E+00 0.  1.
     999900   -1    0    0    0    0 -0.00000000000E+00 -0.00000000000E+00 -0.74505805969E-08  0.93827000000E+00  0.93827000000E+00 0.  1.
     999902    2    1    2    0    0 -0.15522332058E-02 -0.15609581659E-01  0.17143657005E-01  0.10206926713E+01  0.10204281238E+01 0.  0.
     999903    2    3    3    0    0  0.10055634119E+00  0.77039205471E-01 -0.16005254470E-01  0.12934043510E+00  0.20643716934E-01 0.  0.
         14    1    1    2    0    0  0.15522332058E-02  0.15609581659E-01 -0.17143657005E-01  0.23237328654E-01  0.00000000000E+00 0.  1.
     999901    1    3    3    0    0 -0.10210857440E+00 -0.92648787130E-01  0.33148911474E-01  0.89135223624E+00  0.88000000000E+00 0. -1.
        -11    1    4    4    0    0  0.56017605029E-01  0.54067589964E-01 -0.14544219243E-01  0.79202725913E-01  0.51100000000E-03 0. -1.
         11    1    4    4    0    0  0.44538736162E-01  0.22971615506E-01 -0.14610352263E-02  0.50137709190E-01  0.51100000000E-03 0.  1.
</event>
<event>
 8    1  0.1150307E+005  0.1043930E+01  0.7957747E-01            NaN
         13   -1    0    0    0    0  0.00000000000E+00  0.00000000000E+00  0.74505805969E-08  0.10566000000E+00  0.10566000000E+00 0.  1.
     999900   -1    0    0    0    0 -0.00000000000E+00 -0.00000000000E+00 -0.74505805969E-08  0.93827000000E+00  0.93827000000E+00 0. -1.
     999902    2    1    2    0    0 -0.29030782605E-03  0.18756355304E-01  0.14996278680E-01  0.10199138905E+01  0.10196310953E+01 0.  0.
     999903    2    3    3    0    0  0.18085613958E-02 -0.81463283952E-01  0.99592370665E-01  0.13019209118E+00  0.19794008809E-01 0.  0.
         14    1    1    2    0    0  0.29030782605E-03 -0.18756355304E-01 -0.14996278680E-01  0.24016109534E-01  0.00000000000E+00 0. -1.
     999901    1    3    3    0    0 -0.20988692218E-02  0.10021963926E+00 -0.84596091986E-01  0.88972179929E+00  0.88000000000E+00 0. -1.
        -11    1    4    4    0    0  0.44230526436E-02 -0.61460757157E-02  0.15578678419E-01  0.17328992575E-01  0.51100000000E-03 0.  1.
         11    1    4    4    0    0 -0.26144912478E-02 -0.75317208236E-01  0.84013692246E-01  0.11286309860E+00  0.51100000000E-03 0. -1.
</event>
<event>
 8    1  0.1150307E+005  0.1043930E+01  0.7957747E-01            NaN
         13   -1    0    0    0    0  0.00000000000E+00  0.00000000000E+00  0.74505805969E-08  0.10566000000E+00  0.10566000000E+00 0.  1.
     999900   -1    0    0    0    0 -0.00000000000E+00 -0.00000000000E+00 -0.74505805969E-08  0.93827000000E+00  0.93827000000E+00 0.  1.
     999902    2    1    2    0    0  0.42193306978E-02 -0.22570295006E-01 -0.72297198820E-02  0.10198574053E+01  0.10195732623E+01 0.  0.
     999903    2    3    3    0    0 -0.10466768719E+00 -0.31078851929E-01 -0.69430126395E-01  0.13092677310E+00  0.20001442084E-01 0.  0.
         14    1    1    2    0    0 -0.42193306978E-02  0.22570295006E-01  0.72297198820E-02  0.24072594745E-01  0.00000000000E+00 0.  1.
     999901    1    3    3    0    0  0.10888701789E+00  0.85085569236E-02  0.62200406513E-01  0.88893063215E+00  0.88000000000E+00 0.  1.
        -11    1    4    4    0    0 -0.74130504884E-01 -0.31201834485E-01 -0.48987774835E-01  0.94175099861E-01  0.51100000000E-03 0.  1.
         11    1    4    4    0    0 -0.30537182306E-01  0.12298255568E-03 -0.20442351560E-01  0.36751673244E-01  0.51100000000E-03 0. -1.
</event>
<event>
 8    1  0.1150307E+005  0.1043930E+01  0.7957747E-01            NaN
         13   -1    0    0    0    0  0.00000000000E+00  0.00000000000E+00  0.74505805969E-08  0.10566000000E+00  0.10566000000E+00 0. -1.
     999900   -1    0    0    0    0 -0.00000000000E+00 -0.00000000000E+00 -0.74505805969E-08  0.93827000000E+00  0.93827000000E+00 0.  1.
     999902    2    1    2    0    0 -0.59600773191E-02  0.12682593986E-01  0.18557275458E-01  0.10206761146E+01  0.10204111857E+01 0.  0.
     999903    2    3    3    0    0 -0.63325786895E-01  0.52005432636E-02 -0.11081774408E+00  0.12933740158E+00  0.20258087516E-01 0.  0.
         14    1    1    2    0    0  0.59600773191E-02 -0.12682593986E-01 -0.18557275458E-01  0.23253885359E-01  0.00000000000E+00 0.  1.
     999901    1    3    3    0    0  0.57365709576E-01  0.74820507224E-02  0.12937501953E+00  0.89133871306E+00  0.88000000000E+00 0. -1.
        -11    1    4    4    0    0 -0.43212536934E-01  0.10719085546E-01 -0.86574738667E-01  0.97353318585E-01  0.51100000000E-03 0. -1.
         11    1    4    4    0    0 -0.20113249961E-01 -0.55185422823E-02 -0.24243005409E-01  0.31984082997E-01  0.51100000000E-03 0.  1.
</event>
<event>
 8    1  0.1150307E+005  0.1043930E+01  0.7957747E-01            NaN
         13   -1    0    0    0    0  0.00000000000E+00  0.00000000000E+00  0.74505805969E-08  0.10566000000E+00  0.10566000000E+00 0. -1.
     999900   -1    0    0    0    0 -0.00000000000E+00 -0.00000000000E+00 -0.74505805969E-08  0.93827000000E+00  0.93827000000E+00 0.  1.
     999902    2    1    2    0    0 -0.58202513857E-02 -0.94733439303E-04  0.23066098553E-01  0.10201407334E+01  0.10198633177E+01 0.  0.
     999903    2    3    3    0    0  0.93777873686E-01  0.33734847873E-01 -0.77871258147E-01  0.12814713646E+00  0.20625862004E-01 0.  0.
         14    1    1    2    0    0  0.58202513857E-02  0.94733439303E-04 -0.23066098553E-01  0.23789266552E-01  0.00000000000E+00 0.  1.
     999901    1    3    3    0    0 -0.99598125072E-01 -0.33829581312E-01  0.10093735670E+00  0.89199359699E+00  0.88000000000E+00 0. -1.
        -11    1    4    4    0    0  0.87516763278E-01  0.25009702828E-01 -0.69576598222E-01  0.11456802884E+00  0.51100000000E-03 0. -1.
         11    1    4    4    0    0  0.62611104081E-02  0.87251450448E-02 -0.82946599249E-02  0.13579107624E-01  0.51100000000E-03 0.  1.
</event>
<event>
 8    1  0.1150307E+005  0.1043930E+01  0.7957747E-01            NaN
         13   -1    0    0    0    0  0.00000000000E+00  0.00000000000E+00  0.74505805969E-08  0.10566000000E+00  0.10566000000E+00 0. -1.
     999900   -1    0    0    0    0 -0.00000000000E+00 -0.00000000000E+00 -0.74505805969E-08  0.93827000000E+00  0.93827000000E+00 0. -1.
     999902    2    1    2    0    0  0.15276247523E-01 -0.75383689550E-02  0.17425819286E-01  0.10195609639E+01  0.10192696940E+01 0.  0.
     999903    2    3    3    0    0  0.11148317019E-02  0.11533676038E+00  0.56687309280E-01  0.13004406817E+00  0.19854407311E-01 0.  0.
         14    1    1    2    0    0 -0.15276247523E-01  0.75383689550E-02 -0.17425819286E-01  0.24369036145E-01  0.00000000000E+00 0. -1.
     999901    1    3    3    0    0  0.14161415821E-01 -0.12287512933E+00 -0.39261489994E-01  0.88951689568E+00  0.88000000000E+00 0.  1.
        -11    1    4    4    0    0 -0.51097853104E-02  0.32908653494E-01  0.24443165911E-01  0.41313664343E-01  0.51100000000E-03 0.  1.
         11    1    4    4    0    0  0.62246170123E-02  0.82428106883E-01  0.32244143369E-01  0.88730403830E-01  0.51100000000E-03 0. -1.
</event>
<event>
 8    1  0.1150307E+005  0.1043930E+01  0.7957747E-01            NaN
         13   -1    0    0    0    0  0.00000000000E+00  0.00000000000E+00  0.74505805969E-08  0.10566000000E+00  0.10566000000E+00 0.  1.
     999900   -1    0    0    0    0 -0.00000000000E+00 -0.00000000000E+00 -0.74505805969E-08  0.93827000000E+00  0.93827000000E+00 0. -1.
     999902    2    1    2    0    0  0.48924660987E-02  0.22477661162E-01 -0.55595037360E-03  0.10209193382E+01  0.10206599848E+01 0.  0.
     999903    2    3    3    0    0  0.70884496550E-01  0.61100316056E-01  0.92022198484E-01  0.13276542631E+00  0.20017815464E-01 0.  0.
         14    1    1    2    0    0 -0.48924660987E-02 -0.22477661162E-01  0.55595037360E-03  0.23010661804E-01  0.00000000000E+00 0. -1.
     999901    1    3    3    0    0 -0.65992030451E-01 -0.38622654894E-01 -0.92578148857E-01  0.88815391189E+00  0.88000000000E+00 0. -1.
        -11    1    4    4    0    0  0.21833078029E-01  0.28963179173E-01  0.27107083877E-01  0.45283597045E-01  0.51100000000E-03 0. -1.
         11    1    4    4    0    0  0.49051418520E-01  0.32137136883E-01  0.64915114607E-01  0.87481829264E-01  0.51100000000E-03 0.  1.
</event>
<event>
 8    1  0.1150307E+005  0.1043930E+01  0.7957747E-01            NaN
         13   -1    0    0    0    0  0.00000000000E+00  0.00000000000E+00  0.74505805969E-08  0.10566000000E+00  0.10566000000E+00 0.  1.
     999900   -1    0    0    0    0 -0.00000000000E+00 -0.00000000000E+00 -0.74505805969E-08  0.93827000000E+00  0.93827000000E+00 0.  1.
     999902    2    1    2    0    0  0.17593426256E-01  0.38938200223E-02 -0.15819107887E-01  0.10199522049E+01  0.10196703221E+01 0.  0.
     999903    2    3    3    0    0 -0.41257708179E-01  0.12157290418E+00  0.67209220798E-03  0.13001749803E+00  0.20540899954E-01 0.  0.
         14    1    1    2    0    0 -0.17593426256E-01 -0.38938200223E-02  0.15819107887E-01  0.23977795064E-01  0.00000000000E+00 0.  1.
     999901    1    3    3    0    0  0.58851134434E-01 -0.11767908416E+00 -0.16491200095E-01  0.88993470690E+00  0.88000000000E+00 0. -1.
        -11    1    4    4    0    0 -0.60450214558E-02  0.40750423361E-01  0.62908296240E-02  0.41677031406E-01  0.51100000000E-03 0. -1.
         11    1    4    4    0    0 -0.35212686723E-01  0.80822480822E-01 -0.56187374160E-02  0.88340466625E-01  0.51100000000E-03 0.  1.
</event>
<event>
 8    1  0.1150307E+005  0.1043930E+01  0.7957747E-01            NaN
         13   -1    0    0    0    0  0.00000000000E+00  0.00000000000E+00  0.74505805969E-08  0.10566000000E+00  0.10566000000E+00 0. -1.
     999900   -1    0    0    0    0 -0.00000000000E+00 -0.00000000000E+00 -0.74505805969E-08  0.93827000000E+00  0.93827000000E+00 0.  1.
     999902    2    1    2    0    0 -0.19745168441E-01 -0.46976180405E-02 -0.12029406464E-01  0.10203366553E+01  0.10200638433E+01 0.  0.
     999903    2    3    3    0    0 -0.32022645563E-01  0.29681761175E-03 -0.12724188192E+00  0.13272773508E+00  0.20015424467E-01 0.  0.
         14    1    1    2    0    0  0.19745168441E-01  0.46976180405E-02  0.12029406464E-01  0.23593344653E-01  0.00000000000E+00 0.  1.
     999901    1    3    3    0    0  0.12277477122E-01 -0.49944356523E-02  0.11521247545E+00  0.88760892026E+00  0.88000000000E+00 0. -1.
        -11    1    4    4    0    0 -0.21474429593E-01 -0.92360158670E-02 -0.84822090911E-01  0.87985813305E-01  0.51100000000E-03 0. -1.
         11    1    4    4    0    0 -0.10548215970E-01  0.95328334787E-02 -0.42419791007E-01  0.44741921778E-01  0.51100000000E-03 0.  1.
</event>
<event>
 8    1  0.1150307E+005  0.1043930E+01  0.7957747E-01            NaN
         13   -1    0    0    0    0  0.00000000000E+00  0.00000000000E+00  0.74505805969E-08  0.10566000000E+00  0.10566000000E+00 0.  1.
     999900   -1    0    0    0    0 -0.00000000000E+00 -0.00000000000E+00 -0.74505805969E-08  0.93827000000E+00  0.93827000000E+00 0. -1.
     999902    2    1    2    0    0 -0.17500017637E-01  0.11364831009E-01  0.10137227627E-01  0.10207314357E+01  0.10204677802E+01 0.  0.
     999903    2    3    3    0    0  0.74877039565E-01 -0.15322029814E-01 -0.10125694389E+00  0.12851264489E+00  0.20523049458E-01 0.  0.
         14    1    1    2    0    0  0.17500017637E-01 -0.11364831009E-01 -0.10137227627E-01  0.23198564291E-01  0.00000000000E+00 0. -1.
     999901    1    3    3    0    0 -0.92377057202E-01  0.26686860824E-01  0.11139417152E+00  0.89221879082E+00  0.88000000000E+00 0.  1.
        -11    1    4    4    0    0  0.60424201939E-01 -0.74297218793E-02 -0.67183548482E-01  0.90665182152E-01  0.51100000000E-03 0. -1.
         11    1    4    4    0    0  0.14452837626E-01 -0.78923079350E-02 -0.34073395412E-01  0.37847462740E-01  0.51100000000E-03 0.  1.
</event>
<event>
 8    1  0.1150307E+005  0.1043930E+01  0.7957747E-01            NaN
         13   -1    0    0    0    0  0.00000000000E+00  0.00000000000E+00  0.74505805969E-08  0.10566000000E+00  0.10566000000E+00 0.  1.
     999900   -1    0    0    0    0 -0.00000000000E+00 -0.00000000000E+00 -0.74505805969E-08  0.93827000000E+00  0.93827000000E+00 0. -1.
     999902    2    1    2    0    0  0.39755814814E-02  0.43273908279E-02  0.21695918138E-01  0.10214523573E+01  0.10212050106E+01 0.  0.
     999903    2    3    3    0    0  0.11854716461E-01  0.81538212885E-01  0.10389508132E+00  0.13422054187E+00  0.20783442282E-01 0.  0.
         14    1    1    2    0    0 -0.39755814814E-02 -0.43273908279E-02 -0.21695918138E-01  0.22477642744E-01  0.00000000000E+00 0. -1.
     999901    1    3    3    0    0 -0.78791349798E-02 -0.77210822057E-01 -0.82199163184E-01  0.88723181539E+00  0.88000000000E+00 0. -1.
        -11    1    4    4    0    0  0.59945633116E-02  0.24075299139E-01  0.46964701075E-01  0.53117785025E-01  0.51100000000E-03 0.  1.
         11    1    4    4    0    0  0.58601531495E-02  0.57462913746E-01  0.56930380247E-01  0.81102756841E-01  0.51100000000E-03 0. -1.
</event>
<event>
 8    1  0.1150307E+005  0.1043930E+01  0.7957747E-01            NaN
         13   -1    0    0    0    0  0.00000000000E+00  0.00000000000E+00  0.74505805969E-08  0.10566000000E+00  0.10566000000E+00 0. -1.
     999900   -1    0    0    0    0 -0.00000000000E+00 -0.00000000000E+00 -0.74505805969E-08  0.93827000000E+00  0.93827000000E+00 0.  1.
     999902    2    1    2    0    0 -0.23575845971E-01  0.55866690364E-03 -0.45311412372E-02  0.10199161735E+01  0.10196334327E+01 0.  0.
     999903    2    3    3    0    0  0.69609176809E-01  0.99817797236E-01  0.36121898988E-01  0.12851923998E+00  0.20084155870E-01 0.  0.
         14    1    1    2    0    0  0.23575845971E-01 -0.55866690364E-03  0.45311412372E-02  0.24013826493E-01  0.00000000000E+00 0. -1.
     999901    1    3    3    0    0 -0.93185022779E-01 -0.99259130332E-01 -0.40653040225E-01  0.89139693353E+00  0.88000000000E+00 0.  1.
        -11    1    4    4    0    0  0.29585507772E-01  0.51013891604E-01  0.26563883303E-01  0.64680912361E-01  0.51100000000E-03 0.  1.
         11    1    4    4    0    0  0.40023669037E-01  0.48803905632E-01  0.95580156847E-02  0.63838327617E-01  0.51100000000E-03 0. -1.
</event>
<event>
 8    1  0.1150307E+005  0.1043930E+01  0.7957747E-01            NaN
         13   -1    0    0    0    0  0.00000000000E+00  0.00000000000E+00  0.74505805969E-08  0.10566000000E+00  0.10566000000E+00 0. -1.
     999900   -1    0    0    0    0 -0.00000000000E+00 -0.00000000000E+00 -0.74505805969E-08  0.93827000000E+00  0.93827000000E+00 0. -1.
     999902    2    1    2    0    0 -0.14564444158E-01  0.79458605012E-03 -0.17700429413E-01  0.10209940108E+01  0.10207363570E+01 0.  0.
     999903    2    3    3    0    0  0.61376375241E-02  0.10453935575E+00 -0.78808163616E-01  0.13255396856E+00  0.19841381808E-01 0.  0.
         14    1    1    2    0    0  0.14564444158E-01 -0.79458605012E-03  0.17700429413E-01  0.22935989231E-01  0.00000000000E+00 0. -1.
     999901    1    3    3    0    0 -0.20702081682E-01 -0.10374476970E+00  0.61107734203E-01  0.88844004221E+00  0.88000000000E+00 0.  1.
        -11    1    4    4    0    0  0.63725820696E-02  0.94037087481E-01 -0.62309324583E-01  0.11298803775E+00  0.51100000000E-03 0.  1.
         11    1    4    4    0    0 -0.23494454543E-03  0.10502268271E-01 -0.16498839034E-01  0.19565930804E-01  0.51100000000E-03 0. -1.
</event>
<event>
 8    1  0.1150307E+005  0.1043930E+01  0.7957747E-01            NaN
         13   -1    0    0    0    0  0.00000000000E+00  0.00000000000E+00  0.74505805969E-08  0.10566000000E+00  0.10566000000E+00 0.  1.
     999900   -1    0    0    0    0 -0.00000000000E+00 -0.00000000000E+00 -0.74505805969E-08  0.93827000000E+00  0.93827000000E+00 0.  1.
     999902    2    1    2    0    0  0.73577180769E-02 -0.20235962128E-01 -0.90667377545E-02  0.10205668685E+01  0.10202994155E+01 0.  0.
     999903    2    3    3    0    0 -0.32448208127E-01  0.93070559956E-01  0.79118041743E-01  0.12804267556E+00  0.20499924231E-01 0.  0.
         14    1    1    2    0    0 -0.73577180769E-02  0.20235962128E-01  0.90667377545E-02  0.23363131469E-01  0.00000000000E+00 0.  1.
     999901    1    3    3    0    0  0.39805926204E-01 -0.11330652208E+00 -0.88184779497E-01  0.89252419297E+00  0.88000000000E+00 0.  1.
        -11    1    4    4    0    0 -0.28520464869E-01  0.82892240219E-01  0.60689924058E-01  0.10662114428E+00  0.51100000000E-03 0. -1.
         11    1    4    4    0    0 -0.39277432574E-02  0.10178319737E-01  0.18428117685E-01  0.21421531275E-01  0.51100000000E-03 0.  1.
</event>
<event>
 7    1  0.1150307E+005  0.1043930E+01  0.7957747E-01            NaN
         13   -1    0    0    0    0  0.00000000000E+00  0.00000000000E+00  0.74505805969E-08  0.10566000000E+00  0.10566000000E+00 0.  1.
     999900   -1    0    0    0    0 -0.00000000000E+00 -0.00000000000E+00 -0.74505805969E-08  0.93827000000E+00  0.93827000000E+00 0. -1.
     999902    2    1    2    0    0  0.91288205823E-02  0.10830205323E-01 -0.21729083984E-01  0.10179919622E+01  0.10176614630E+01 0.  0.
         14    1    1    2    0    0 -0.91288205823E-02 -0.10830205323E-01  0.21729083984E-01  0.25938037770E-01  0.00000000000E+00 0.  1.
     999901    1    3    3    0    0  0.17734865671E-01 -0.47560083017E-01  0.86574741648E-01  0.88570405489E+00  0.88000000000E+00 0.  1.
        -11    1    3    3    0    0  0.15478038776E-01  0.45778510341E-01 -0.62266237899E-01  0.78819966991E-01  0.51100000000E-03 0. -1.
         11    1    3    3    0    0 -0.24084083864E-01  0.12611777999E-01 -0.46037587733E-01  0.53467940349E-01  0.51100000000E-03 0.  1.
</event>
<event>
 8    1  0.1150307E+005  0.1043930E+01  0.7957747E-01            NaN
         13   -1    0    0    0    0  0.00000000000E+00  0.00000000000E+00  0.74505805969E-08  0.10566000000E+00  0.10566000000E+00 0. -1.
     999900   -1    0    0    0    0 -0.00000000000E+00 -0.00000000000E+00 -0.74505805969E-08  0.93827000000E+00  0.93827000000E+00 0.  1.
     999902    2    1    2    0    0 -0.65897238629E-02  0.40496313098E-02  0.21757447060E-01  0.10208386493E+01  0.10205774529E+01 0.  0.
     999903    2    3    3    0    0 -0.68841548939E-01 -0.77784821991E-01  0.80990607361E-01  0.13287427234E+00  0.17505895521E-01 0.  0.
         14    1    1    2    0    0  0.65897238629E-02 -0.40496313098E-02 -0.21757447060E-01  0.23091350694E-01  0.00000000000E+00 0.  1.
     999901    1    3    3    0    0  0.62251825076E-01  0.81834453301E-01 -0.59233160301E-01  0.88796437696E+00  0.88000000000E+00 0.  1.
        -11    1    4    4    0    0 -0.18259311578E-01 -0.24640426297E-01  0.14787560233E-01  0.34051227966E-01  0.51100000000E-03 0. -1.
         11    1    4    4    0    0 -0.50582237361E-01 -0.53144395694E-01  0.66203047128E-01  0.98823044378E-01  0.51100000000E-03 0.  1.
</event>
<event>
 8    1  0.1150307E+005  0.1043930E+01  0.7957747E-01            NaN
         13   -1    0    0    0    0  0.00000000000E+00  0.00000000000E+00  0.74505805969E-08  0.10566000000E+00  0.10566000000E+00 0. -1.
     999900   -1    0    0    0    0 -0.00000000000E+00 -0.00000000000E+00 -0.74505805969E-08  0.93827000000E+00  0.93827000000E+00 0. -1.
     999902    2    1    2    0    0 -0.93343850903E-02 -0.48634262383E-02  0.21413103743E-01  0.10200698937E+01  0.10197908037E+01 0.  0.
     999903    2    3    3    0    0  0.36156590497E-01  0.30336468041E-02  0.12609389018E+00  0.13266363970E+00  0.19582392860E-01 0.  0.
         14    1    1    2    0    0  0.93343850903E-02  0.48634262383E-02 -0.21413103743E-01  0.23860106280E-01  0.00000000000E+00 0.  1.
     999901    1    3    3    0    0 -0.45490975587E-01 -0.78970730424E-02 -0.10468078643E+00  0.88740625402E+00  0.88000000000E+00 0. -1.
        -11    1    4    4    0    0  0.28382394449E-01  0.61360310944E-02  0.11579940162E+00  0.11938581879E+00  0.51100000000E-03 0. -1.
         11    1    4    4    0    0  0.77741960475E-02 -0.31023842903E-02  0.10294488553E-01  0.13277820907E-01  0.51100000000E-03 0.  1.
</event>
<event>
 8    1  0.1150307E+005  0.1043930E+01  0.7957747E-01            NaN
         13   -1    0    0    0    0  0.00000000000E+00  0.00000000000E+00  0.74505805969E-08  0.10566000000E+00  0.10566000000E+00 0.  1.
     999900   -1    0    0    0    0 -0.00000000000E+00 -0.00000000000E+00 -0.74505805969E-08  0.93827000000E+00  0.93827000000E+00 0. -1.
     999902    2    1    2    0    0 -0.35632491062E-02  0.20036667615E-01 -0.12504042191E-01  0.10200445261E+01  0.10197648353E+01 0.  0.
     999903    2    3    3    0    0 -0.21741059599E-01  0.10445364666E+00  0.74311637958E-01  0.13156626441E+00  0.20105333165E-01 0.  0.
         14    1    1    2    0    0  0.35632491062E-02 -0.20036667615E-01  0.12504042191E-01  0.23885473921E-01  0.00000000000E+00 0.  1.
     999901    1    3    3    0    0  0.18177810492E-01 -0.84416979041E-01 -0.86815680149E-01  0.88847826167E+00  0.88000000000E+00 0. -1.
        -11    1    4    4    0    0 -0.24451017761E-02  0.10166292930E-01  0.15733908815E-01  0.18898387292E-01  0.51100000000E-03 0.  1.
         11    1    4    4    0    0 -0.19295957822E-01  0.94287353726E-01  0.58577729143E-01  0.11266787711E+00  0.51100000000E-03 0. -1.
</event>
<event>
 8    1  0.1150307E+005  0.1043930E+01  0.7957747E-01            NaN
         13   -1    0    0    0    0  0.00000000000E+00  0.00000000000E+00  0.74505805969E-08  0.10566000000E+00  0.10566000000E+00 0.  1.
     999900   -1    0    0    0    0 -0.00000000000E+00 -0.00000000000E+00 -0.74505805969E-08  0.93827000000E+00  0.93827000000E+00 0.  1.
     999902    2    1    2    0    0 -0.21579361761E-01 -0.16200401584E-01  0.84814966940E-02  0.10156447096E+01  0.10152507663E+01 0.  0.
     999903    2    3    3    0    0 -0.73082530339E-01  0.10093892110E+00 -0.61860831628E-02  0.12626889750E+00  0.19386717533E-01 0.  0.
         14    1    1    2    0    0  0.21579361761E-01  0.16200401584E-01 -0.84814966940E-02  0.28285290376E-01  0.00000000000E+00 0.  1.
     999901    1    3    3    0    0  0.51503168579E-01 -0.11713932269E+00  0.14667579857E-01  0.88937581212E+00  0.88000000000E+00 0. -1.
        -11    1    4    4    0    0 -0.60978288444E-01  0.76492243344E-01 -0.11414813813E-01  0.98488446270E-01  0.51100000000E-03 0.  1.
         11    1    4    4    0    0 -0.12104241896E-01  0.24446677759E-01  0.52287306500E-02  0.27780451230E-01  0.51100000000E-03 0. -1.
</event>
<event>
 8    1  0.1150307E+005  0.1043930E+01  0.7957747E-01            NaN
         13   -1    0    0    0    0  0.00000000000E+00  0.00000000000E+00  0.74505805969E-08  0.10566000000E+00  0.10566000000E+00 0. -1.
     999900   -1    0    0    0    0 -0.00000000000E+00 -0.00000000000E+00 -0.74505805969E-08  0.93827000000E+00  0.93827000000E+00 0. -1.
     999902    2    1    2    0    0 -0.16762240450E-01 -0.51264241241E-02  0.16255002016E-01  0.10200243936E+01  0.10197442255E+01 0.  0.
     999903    2    3    3    0    0 -0.12509231939E+00 -0.28412252940E-01 -0.16469244568E-01  0.13247241640E+00  0.28676830427E-01 0.  0.
         14    1    1    2    0    0  0.16762240450E-01  0.51264241241E-02 -0.16255002016E-01  0.23905606450E-01  0.00000000000E+00 0.  1.
     999901    1    3    3    0    0  0.10833007894E+00  0.23285828816E-01  0.32724246584E-01  0.88755197715E+00  0.88000000000E+00 0. -1.
        -11    1    4    4    0    0 -0.90138403848E-01 -0.86909135412E-02 -0.48504043297E-02  0.90687658309E-01  0.51100000000E-03 0.  1.
         11    1    4    4    0    0 -0.34953915541E-01 -0.19721339399E-01 -0.11618840238E-01  0.41784758092E-01  0.51100000000E-03 0. -1.
</event>
<event>
 8    1  0.1150307E+005  0.1043930E+01  0.7957747E-01            NaN
         13   -1    0    0    0    0  0.00000000000E+00  0.00000000000E+00  0.74505805969E-08  0.10566000000E+00  0.10566000000E+00 0. -1.
     999900   -1    0    0    0    0 -0.00000000000E+00 -0.00000000000E+00 -0.74505805969E-08  0.93827000000E+00  0.93827000000E+00 0. -1.
     999902    2    1    2    0    0  0.30033910768E-02 -0.16408531441E-01  0.16231767334E-01  0.10206548946E+01  0.10203894763E+01 0.  0.
     999903    2    3    3    0    0 -0.37999611964E-01 -0.11397029071E+00  0.54757988645E-01  0.13347745298E+00  0.19611105564E-01 0.  0.
         14    1    1    2    0    0 -0.30033910768E-02  0.16408531441E-01 -0.16231767334E-01  0.23275105431E-01  0.00000000000E+00 0. -1.
     999901    1    3    3    0    0  0.41003003041E-01  0.97561759265E-01 -0.38526221311E-01  0.88717744159E+00  0.88000000000E+00 0. -1.
        -11    1    4    4    0    0 -0.16671219073E-01 -0.37022495519E-01  0.95367212179E-02  0.41710968490E-01  0.51100000000E-03 0. -1.
         11    1    4    4    0    0 -0.21328392891E-01 -0.76947795188E-01  0.45221267427E-01  0.91766484494E-01  0.51100000000E-03 0.  1.
</event>
<event>
 8    1  0.1150307E+005  0.1043930E+01  0.7957747E-01            NaN
         13   -1    0    0    0    0  0.00000000000E+00  0.00000000000E+00  0.74505805969E-08  0.10566000000E+00  0.10566000000E+00 0. -1.
     999900   -1    0    0    0    0 -0.00000000000E+00 -0.00000000000E+00 -0.74505805969E-08  0.93827000000E+00  0.93827000000E+00 0. -1.
     999902    2    1    2    0    0 -0.21783591401E-01  0.89426307431E-03  0.68669165950E-02  0.10210721982E+01  0.10208163178E+01 0.  0.
     999903    2    3    3    0    0 -0.41670737021E-01 -0.12252290361E+00  0.17826659180E-01  0.13216983484E+00  0.20068961878E-01 0.  0.
         14    1    1    2    0    0  0.21783591401E-01 -0.89426307431E-03 -0.68669165950E-02  0.22857801826E-01  0.00000000000E+00 0. -1.
     999901    1    3    3    0    0  0.19887145620E-01  0.12341716668E+00 -0.10959742585E-01  0.88890236334E+00  0.88000000000E+00 0.  1.
        -11    1    4    4    0    0 -0.80299608247E-02 -0.49879778209E-01  0.11819198207E-01  0.51888602913E-01  0.51100000000E-03 0. -1.
         11    1    4    4    0    0 -0.33640776196E-01 -0.72643125397E-01  0.60074609728E-02  0.80281231922E-01  0.51100000000E-03 0.  1.
</event>
<event>
 8    1  0.1150307E+005  0.1043930E+01  0.7957747E-01            NaN
         13   -1    0    0    0    0  0.00000000000E+00  0.00000000000E+00  0.74505805969E-08  0.10566000000E+00  0.10566000000E+00 0. -1.
     999900   -1    0    0    0    0 -0.00000000000E+00 -0.00000000000E+00 -0.74505805969E-08  0.93827000000E+00  0.93827000000E+00 0. -1.
     999902    2    1    2    0    0 -0.12738553207E-01  0.38365050304E-02 -0.77172641876E-02  0.10285499585E+01  0.10284349622E+01 0.  0.
     999903    2    3    3    0    0 -0.35417506784E-01  0.87496271636E-01  0.98522011246E-01  0.13793215324E+00  0.20216202901E-01 0.  0.
         14    1    1    2    0    0  0.12738553207E-01 -0.38365050304E-02  0.77172641876E-02  0.15380041456E-01  0.00000000000E+00 0.  1.
     999901    1    3    3    0    0  0.22678953577E-01 -0.83659766606E-01 -0.10623927543E+00  0.89061780531E+00  0.88000000000E+00 0.  1.
        -11    1    4    4    0    0 -0.25919272098E-01  0.74230809821E-01  0.90033208923E-01  0.11953351673E+00  0.51100000000E-03 0.  1.
         11    1    4    4    0    0 -0.94982346853E-02  0.13265461815E-01  0.84888023228E-02  0.18398636503E-01  0.51100000000E-03 0. -1.
</event>
<event>
 8    1  0.1150307E+005  0.1043930E+01  0.7957747E-01            NaN
         13   -1    0    0    0    0  0.00000000000E+00  0.00000000000E+00  0.74505805969E-08  0.10566000000E+00  0.10566000000E+00 0.  1.
     999900   -1    0    0    0    0 -0.00000000000E+00 -0.00000000000E+00 -0.74505805969E-08  0.93827000000E+00  0.93827000000E+00 0.  1.
     999902    2    1    2    0    0 -0.15824353720E-02  0.10100102903E-01 -0.19430745784E-01  0.10219739060E+01  0.10217380264E+01 0.  0.
     999903    2    3    3    0    0  0.88292695698E-01 -0.87775882562E-01 -0.38597806107E-01  0.13179155173E+00  0.19468353772E-01 0.  0.
         14    1    1    2    0    0  0.15824353720E-02 -0.10100102903E-01  0.19430745784E-01  0.21956093962E-01  0.00000000000E+00 0.  1.
     999901    1    3    3    0    0 -0.89875131070E-01  0.97875985465E-01  0.19167060324E-01  0.89018235431E+00  0.88000000000E+00 0.  1.
        -11    1    4    4    0    0  0.56044868531E-01 -0.47373804286E-01 -0.30468160220E-01  0.79459892584E-01  0.51100000000E-03 0.  1.
         11    1    4    4    0    0  0.32247827166E-01 -0.40402078276E-01 -0.81296458873E-02  0.52331659149E-01  0.51100000000E-03 0. -1.
</event>
<event>
 8    1  0.1150307E+005  0.1043930E+01  0.7957747E-01            NaN
         13   -1    0    0    0    0  0.00000000000E+00  0.00000000000E+00  0.74505805969E-08  0.10566000000E+00  0.10566000000E+00 0.  1.
     999900   -1    0    0    0    0 -0.00000000000E+00 -0.00000000000E+00 -0.74505805969E-08  0.93827000000E+00  0.93827000000E+00 0.  1.
     999902    2    1    2    0    0  0.79424262550E-02 -0.11950772519E-01  0.18754031600E-01  0.10203160888E+01  0.10200427954E+01 0.  0.
     999903    2    3    3    0    0  0.26344366581E-01  0.98204320716E-01  0.80240626939E-01  0.13112916959E+00  0.20449612415E-01 0.  0.
         14    1    1    2    0    0 -0.79424262550E-02  0.11950772519E-01 -0.18754031600E-01  0.23613911152E-01  0.00000000000E+00 0. -1.
     999901    1    3    3    0    0 -0.18401940326E-01 -0.11015509324E+00 -0.61486595339E-01  0.88918691926E+00  0.88000000000E+00 0.  1.
        -11    1    4    4    0    0  0.16970970848E-01  0.39497753327E-01  0.23739946354E-01  0.49111429865E-01  0.51100000000E-03 0.  1.
         11    1    4    4    0    0  0.93733957335E-02  0.58706567389E-01  0.56500680585E-01  0.82017739726E-01  0.51100000000E-03 0. -1.
</event>
<event>
 8    1  0.1150307E+005  0.1043930E+01  0.7957747E-01            NaN
         13   -1    0    0    0    0  0.00000000000E+00  0.00000000000E+00  0.74505805969E-08  0.10566000000E+00  0.10566000000E+00 0. -1.
     999900   -1    0    0    0    0 -0.00000000000E+00 -0.00000000000E+00 -0.74505805969E-08  0.93827000000E+00  0.93827000000E+00 0.  1.
     999902    2    1    2    0    0 -0.14551359989E-01 -0.11031650250E-01  0.14838165785E-01  0.10204010700E+01  0.10201297628E+01 0.  0.
     999903    2    3    3    0    0 -0.92350519310E-02  0.82918410669E-01  0.99524266976E-01  0.13134167217E+00  0.19616475686E-01 0.  0.
         14    1    1    2    0    0  0.14551359989E-01  0.11031650250E-01 -0.14838165785E-01  0.23528930036E-01  0.00000000000E+00 0.  1.
     999901    1    3    3    0    0 -0.53163080581E-02 -0.93950060918E-01 -0.84686101190E-01  0.88905939780E+00  0.88000000000E+00 0.  1.
        -11    1    4    4    0    0  0.16961999974E-02  0.24706181595E-01  0.42083630016E-01  0.48832013473E-01  0.51100000000E-03 0.  1.
         11    1    4    4    0    0 -0.10931251928E-01  0.58212229073E-01  0.57440636960E-01  0.82509658694E-01  0.51100000000E-03 0. -1.
</event>
<event>
 8    1  0.1150307E+005  0.1043930E+01  0.7957747E-01            NaN
         13   -1    0    0    0    0  0.00000000000E+00  0.00000000000E+00  0.74505805969E-08  0.10566000000E+00  0.10566000000E+00 0.  1.
     999900   -1    0    0    0    0 -0.00000000000E+00 -0.00000000000E+00 -0.74505805969E-08  0.93827000000E+00  0.93827000000E+00 0.  1.
     999902    2    1    2    0    0 -0.19003213814E-01  0.11073925175E-01  0.88193094159E-02  0.10202332877E+01  0.10199580517E+01 0.  0.
     999903    2    3    3    0    0  0.80039376236E-01  0.88837077558E-01  0.47221787251E-01  0.13044045070E+00  0.22056425168E-01 0.  0.
         14    1    1    2    0    0  0.19003213814E-01 -0.11073925175E-01 -0.88193094159E-02  0.23696712274E-01  0.00000000000E+00 0. -1.
     999901    1    3    3    0    0 -0.99042590050E-01 -0.77763152383E-01 -0.38402477835E-01  0.88979283702E+00  0.88000000000E+00 0.  1.
        -11    1    4    4    0    0  0.32605262114E-01  0.20918676191E-01  0.14422455482E-01  0.41339599348E-01  0.51100000000E-03 0. -1.
         11    1    4    4    0    0  0.47434114122E-01  0.67918401367E-01  0.32799331769E-01  0.89100851355E-01  0.51100000000E-03 0.  1.
</event>
<event>
 8    1  0.1150307E+005  0.1043930E+01  0.7957747E-01            NaN
         13   -1    0    0    0    0  0.00000000000E+00  0.00000000000E+00  0.74505805969E-08  0.10566000000E+00  0.10566000000E+00 0.  1.
     999900   -1    0    0    0    0 -0.00000000000E+00 -0.00000000000E+00 -0.74505805969E-08  0.93827000000E+00  0.93827000000E+00 0.  1.
     999902    2    1    2    0    0  0.21067046869E-01  0.95754831588E-02 -0.54030018528E-02  0.10201665244E+01  0.10198897170E+01 0.  0.
     999903    2    3    3    0    0  0.25179458097E-01 -0.12255296758E+00  0.27185619162E-01  0.12969650381E+00  0.20709665336E-01 0.  0.
         14    1    1    2    0    0 -0.21067046869E-01 -0.95754831588E-02  0.54030018528E-02  0.23763475556E-01  0.00000000000E+00 0.  1.
     999901    1    3    3    0    0 -0.41124112280E-02  0.13212845074E+00 -0.32588621015E-01  0.89047002063E+00  0.88000000000E+00 0. -1.
        -11    1    4    4    0    0  0.18805535223E-01 -0.11521388443E+00  0.27584449099E-01  0.11995436746E+00  0.51100000000E-03 0. -1.
         11    1    4    4    0    0  0.63739228737E-02 -0.73390831565E-02 -0.39882993649E-03  0.97421363518E-02  0.51100000000E-03 0.  1.
</event>
<event>
 8    1  0.1150307E+005  0.1043930E+01  0.7957747E-01            NaN
         13   -1    0    0    0    0  0.00000000000E+00  0.00000000000E+00  0.74505805969E-08  0.10566000000E+00  0.10566000000E+00 0.  1.
     999900   -1    0    0    0    0 -0.00000000000E+00 -0.00000000000E+00 -0.74505805969E-08  0.93827000000E+00  0.93827000000E+00 0.  1.
     999902    2    1    2    0    0 -0.22565182780E-01 -0.34148355507E-02 -0.80281588844E-02  0.10197370277E+01  0.10194500016E+01 0.  0.
     999903    2    3    3    0    0 -0.53966893410E-01 -0.81833695015E-01 -0.86351329856E-01  0.13222922259E+00  0.20465481020E-01 0.  0.
         14    1    1    2    0    0  0.22565182780E-01  0.34148355507E-02  0.80281588844E-02  0.24192972344E-01  0.00000000000E+00 0. -1.
     999901    1    3    3    0    0  0.31401710629E-01  0.78418859465E-01  0.78323170972E-01  0.88750780507E+00  0.88000000000E+00 0. -1.
        -11    1    4    4    0    0 -0.37417858185E-01 -0.49252601257E-01 -0.42035177603E-01  0.74787245696E-01  0.51100000000E-03 0. -1.
         11    1    4    4    0    0 -0.16549035225E-01 -0.32581093759E-01 -0.44316152254E-01  0.57441976889E-01  0.51100000000E-03 0.  1.
</event>
<event>
 8    1  0.1150307E+005  0.1043930E+01  0.7957747E-01            NaN
         13   -1    0    0    0    0  0.00000000000E+00  0.00000000000E+00  0.74505805969E-08  0.10566000000E+00  0.10566000000E+00 0. -1.
     999900   -1    0    0    0    0 -0.00000000000E+00 -0.00000000000E+00 -0.74505805969E-08  0.93827000000E+00  0.93827000000E+00 0. -1.
     999902    2    1    2    0    0 -0.23161214132E-01 -0.16053956304E-01 -0.38340168040E-02  0.10154893418E+01  0.10150909971E+01 0.  0.
     999903    2    3    3    0    0 -0.85805888184E-01  0.48596241400E-01 -0.78571128606E-01  0.12774521250E+00  0.20522474058E-01 0.  0.
         14    1    1    2    0    0  0.23161214132E-01  0.16053956304E-01  0.38340168040E-02  0.28440658184E-01  0.00000000000E+00 0. -1.
     999901    1    3    3    0    0  0.62644674052E-01 -0.64650197705E-01  0.74737111802E-01  0.88774412931E+00  0.88000000000E+00 0. -1.
        -11    1    4    4    0    0 -0.26799340040E-01  0.10547536733E-01 -0.12733374213E-01  0.31493731084E-01  0.51100000000E-03 0.  1.
         11    1    4    4    0    0 -0.59006548144E-01  0.38048704667E-01 -0.65837754393E-01  0.96251481418E-01  0.51100000000E-03 0. -1.
</event>
<event>
 8    1  0.1150307E+005  0.1043930E+01  0.7957747E-01            NaN
         13   -1    0    0    0    0  0.00000000000E+00  0.00000000000E+00  0.74505805969E-08  0.10566000000E+00  0.10566000000E+00 0.  1.
     999900   -1    0    0    0    0 -0.00000000000E+00 -0.00000000000E+00 -0.74505805969E-08  0.93827000000E+00  0.93827000000E+00 0.  1.
     999902    2    1    2    0    0 -0.92756924243E-02 -0.16046967437E-01  0.14903908920E-01  0.10201461791E+01  0.10198688919E+01 0.  0.
     999903    2    3    3    0    0  0.11580959796E+00 -0.42991652739E-01 -0.33818915090E-01  0.12955858686E+00  0.19533643440E-01 0.  0.
         14    1    1    2    0    0  0.92756924243E-02  0.16046967437E-01 -0.14903908920E-01  0.23783820866E-01  0.00000000000E+00 0. -1.
     999901    1    3    3    0    0 -0.12508529038E+00  0.26944685302E-01  0.48722824010E-01  0.89058759228E+00  0.88000000000E+00 0. -1.
        -11    1    4    4    0    0  0.56336738945E-01 -0.28512885695E-01 -0.24068115340E-01  0.67574759361E-01  0.51100000000E-03 0.  1.
         11    1    4    4    0    0  0.59472859015E-01 -0.14478767043E-01 -0.97507997494E-02  0.61983827498E-01  0.51100000000E-03 0. -1.
</event>
<event>
 8    1  0.1150307E+005  0.1043930E+01  0.7957747E-01            NaN
         13   -1    0    0    0    0  0.00000000000E+00  0.00000000000E+00  0.74505805969E-08  0.10566000000E+00  0.10566000000E+00 0. -1.
     999900   -1    0    0    0    0 -0.00000000000E+00 -0.00000000000E+00 -0.74505805969E-08  0.93827000000E+00  0.93827000000E+00 0. -1.
     999902    2    1    2    0    0  0.23883757951E-02 -0.23284254685E-01 -0.34246528796E-02  0.10202743643E+01  0.10200000928E+01 0.  0.
     999903    2    3    3    0    0 -0.30222441654E-01  0.58108073769E-01 -0.10959641223E+00  0.12956643287E+00  0.22048644801E-01 0.  0.
         14    1    1    2    0    0 -0.23883757951E-02  0.23284254685E-01  0.34246528796E-02  0.23655635746E-01  0.00000000000E+00 0. -1.
     999901    1    3    3    0    0  0.32610817449E-01 -0.81392328454E-01  0.10617175935E+00  0.89070793138E+00  0.88000000000E+00 0.  1.
        -11    1    4    4    0    0 -0.15020176053E-01  0.16131793472E-01 -0.21464090180E-01  0.30770257352E-01  0.51100000000E-03 0.  1.
         11    1    4    4    0    0 -0.15202265601E-01  0.41976280298E-01 -0.88132322046E-01  0.98796175519E-01  0.51100000000E-03 0. -1.
</event>
<event>
 8    1  0.1150307E+005  0.1043930E+01  0.7957747E-01            NaN
         13   -1    0    0    0    0  0.00000000000E+00  0.00000000000E+00  0.74505805969E-08  0.10566000000E+00  0.10566000000E+00 0.  1.
     999900   -1    0    0    0    0 -0.00000000000E+00 -0.00000000000E+00 -0.74505805969E-08  0.93827000000E+00  0.93827000000E+00 0. -1.
     999902    2    1    2    0    0 -0.41950503163E-02 -0.12075004157E-01 -0.19383772612E-01  0.10207107232E+01  0.10204465913E+01 0.  0.
     999903    2    3    3    0    0 -0.25829173932E-03  0.88464367205E-01  0.90337945189E-01  0.12820721142E+00  0.21216355451E-01 0.  0.
         14    1    1    2    0    0  0.41950503163E-02  0.12075004157E-01  0.19383772612E-01  0.23219276759E-01  0.00000000000E+00 0.  1.
     999901    1    3    3    0    0 -0.39367585770E-02 -0.10053937136E+00 -0.10972171780E+00  0.89250351182E+00  0.88000000000E+00 0. -1.
        -11    1    4    4    0    0  0.95041593004E-03  0.30838508696E-01  0.46425728314E-01  0.55745190640E-01  0.51100000000E-03 0.  1.
         11    1    4    4    0    0 -0.12087076694E-02  0.57625858508E-01  0.43912216876E-01  0.72462020776E-01  0.51100000000E-03 0. -1.
</event>
<event>
 8    1  0.1150307E+005  0.1043930E+01  0.7957747E-01            NaN
         13   -1    0    0    0    0  0.00000000000E+00  0.00000000000E+00  0.74505805969E-08  0.10566000000E+00  0.10566000000E+00 0. -1.
     999900   -1    0    0    0    0 -0.00000000000E+00 -0.00000000000E+00 -0.74505805969E-08  0.93827000000E+00  0.93827000000E+00 0. -1.
     999902    2    1    2    0    0  0.53709417753E-02  0.22487623915E-01 -0.49061389226E-02  0.10202950588E+01  0.10200212726E+01 0.  0.
     999903    2    3    3    0    0 -0.81830656203E-01 -0.95662616668E-01  0.12886551531E-01  0.12794973449E+00  0.18907110400E-01 0.  0.
         14    1    1    2    0    0 -0.53709417753E-02 -0.22487623915E-01  0.49061389226E-02  0.23634941168E-01  0.00000000000E+00 0.  1.
     999901    1    3    3    0    0  0.87201597978E-01  0.11815024058E+00 -0.17792690454E-01  0.89234532434E+00  0.88000000000E+00 0. -1.
        -11    1    4    4    0    0 -0.51958198349E-01 -0.73835605363E-01  0.99470006101E-02  0.90832565400E-01  0.51100000000E-03 0.  1.
         11    1    4    4    0    0 -0.29872457854E-01 -0.21827011305E-01  0.29395509210E-02  0.37117169091E-01  0.51100000000E-03 0. -1.
</event>
<event>
 8    1  0.1150307E+005  0.1043930E+01  0.7957747E-01            NaN
         13   -1    0    0    0    0  0.00000000000E+00  0.00000000000E+00  0.74505805969E-08  0.10566000000E+00  0.10566000000E+00 0. -1.
     999900   -1    0    0    0    0 -0.00000000000E+00 -0.00000000000E+00 -0.74505805969E-08  0.93827000000E+00  0.93827000000E+00 0. -1.
     999902    2    1    2    0    0  0.11341847720E-01 -0.20118075077E-01 -0.28879217836E-03  0.10208332934E+01  0.10205719745E+01 0.  0.
     999903    2    3    3    0    0 -0.12929213628E-01  0.12513710650E+00  0.92863049237E-02  0.12854419526E+00  0.24716688438E-01 0.  0.
         14    1    1    2    0    0 -0.11341847720E-01  0.20118075077E-01  0.28879217836E-03  0.23096706592E-01  0.00000000000E+00 0. -1.
     999901    1    3    3    0    0  0.24271061348E-01 -0.14525518158E+00 -0.95750971021E-02  0.89228909815E+00  0.88000000000E+00 0. -1.
        -11    1    4    4    0    0 -0.11742806378E-01  0.38775545291E-01  0.11587804557E-01  0.42142315429E-01  0.51100000000E-03 0. -1.
         11    1    4    4    0    0 -0.11864072505E-02  0.86361561207E-01 -0.23014996332E-02  0.86401879829E-01  0.51100000000E-03 0.  1.
</event>
<event>
 8    1  0.1150307E+005  0.1043930E+01  0.7957747E-01            NaN
         13   -1    0    0    0    0  0.00000000000E+00  0.00000000000E+00  0.74505805969E-08  0.10566000000E+00  0.10566000000E+00 0. -1.
     999900   -1    0    0    0    0 -0.00000000000E+00 -0.00000000000E+00 -0.74505805969E-08  0.93827000000E+00  0.93827000000E+00 0. -1.
     999902    2    1    2    0    0  0.30776404219E-02 -0.18003119325E-01  0.19644531655E-01  0.10171066557E+01  0.10167528988E+01 0.  0.
     999903    2    3    3    0    0 -0.33599115090E-03 -0.46800282378E-01 -0.11556399663E+00  0.12630798281E+00  0.20206184315E-01 0.  0.
         14    1    1    2    0    0 -0.30776404219E-02  0.18003119325E-01 -0.19644531655E-01  0.26823344310E-01  0.00000000000E+00 0. -1.
     999901    1    3    3    0    0  0.34136315728E-02  0.28797163053E-01  0.13520852828E+00  0.89079867288E+00  0.88000000000E+00 0.  1.
        -11    1    4    4    0    0 -0.38456377874E-02 -0.32888034200E-01 -0.56188383209E-01  0.65221217806E-01  0.51100000000E-03 0. -1.
         11    1    4    4    0    0  0.35096466365E-02 -0.13912248178E-01 -0.59375613420E-01  0.61086765006E-01  0.51100000000E-03 0.  1.
</event>
<event>
 8    1  0.1150307E+005  0.1043930E+01  0.7957747E-01            NaN
         13   -1    0    0    0    0  0.00000000000E+00  0.00000000000E+00  0.74505805969E-08  0.10566000000E+00  0.10566000000E+00 0.  1.
     999900   -1    0    0    0    0 -0.00000000000E+00 -0.00000000000E+00 -0.74505805969E-08  0.93827000000E+00  0.93827000000E+00 0. -1.
     999902    2    1    2    0    0  0.46375602680E-03  0.12424447180E-01  0.20130571320E-01  0.10202694451E+01  0.10199950582E+01 0.  0.
     999903    2    3    3    0    0 -0.18243867065E-01  0.94222913397E-01 -0.85511739582E-01  0.12998788170E+00  0.19333796551E-01 0.  0.
         14    1    1    2    0    0 -0.46375602680E-03 -0.12424447180E-01 -0.20130571320E-01  0.23660554918E-01  0.00000000000E+00 0. -1.
     999901    1    3    3    0    0  0.18707623091E-01 -0.81798466217E-01  0.10564231090E+00  0.89028156338E+00  0.88000000000E+00 0. -1.
        -11    1    4    4    0    0 -0.37776230786E-02  0.49548188610E-01 -0.54262630119E-01  0.73579804153E-01  0.51100000000E-03 0. -1.
         11    1    4    4    0    0 -0.14466243986E-01  0.44674724787E-01 -0.31249109463E-01  0.56408077552E-01  0.51100000000E-03 0.  1.
</event>
<event>
 8    1  0.1150307E+005  0.1043930E+01  0.7957747E-01            NaN
         13   -1    0    0    0    0  0.00000000000E+00  0.00000000000E+00  0.74505805969E-08  0.10566000000E+00  0.10566000000E+00 0. -1.
     999900   -1    0    0    0    0 -0.00000000000E+00 -0.00000000000E+00 -0.74505805969E-08  0.93827000000E+00  0.93827000000E+00 0.  1.
     999902    2    1    2    0    0  0.69741893999E-02  0.57058604642E-02 -0.21611111788E-01  0.10205155533E+01  0.10202469104E+01 0.  0.
     999903    2    3    3    0    0 -0.22979924090E-01  0.12343400485E+00 -0.35818503264E-01  0.13205676705E+00  0.19798840426E-01 0.  0.
         14    1    1    2    0    0 -0.69741893999E-02 -0.57058604642E-02  0.21611111788E-01  0.23414446698E-01  0.00000000000E+00 0. -1.
     999901    1    3    3    0    0  0.29954113489E-01 -0.11772814439E+00  0.14207391476E-01  0.88845878625E+00  0.88000000000E+00 0. -1.
        -11    1    4    4    0    0 -0.11211410557E-01  0.45611147133E-01 -0.39391333621E-02  0.47136507742E-01  0.51100000000E-03 0. -1.
         11    1    4    4    0    0 -0.11768513533E-01  0.77822857721E-01 -0.31879369902E-01  0.84920259308E-01  0.51100000000E-03 0.  1.
</event>
<event>
 8    1  0.1150307E+005  0.1043930E+01  0.7957747E-01            NaN
         13   -1    0    0    0    0  0.00000000000E+00  0.00000000000E+00  0.74505805969E-08  0.10566000000E+00  0.10566000000E+00 0. -1.
     999900   -1    0    0    0    0 -0.00000000000E+00 -0.00000000000E+00 -0.74505805969E-08  0.93827000000E+00  0.93827000000E+00 0.  1.
     999902    2    1    2    0    0 -0.14196951727E-01  0.71030751385E-02  0.13772597446E-01  0.10229135409E+01  0.10226976193E+01 0.  0.
     999903    2    3    3    0    0  0.54193539475E-01  0.11890207669E+00  0.16545387433E-01  0.13320349572E+00  0.19869017736E-01 0.  0.
         14    1    1    2    0    0  0.14196951727E-01 -0.71030751385E-02 -0.13772597446E-01  0.21016459150E-01  0.00000000000E+00 0.  1.
     999901    1    3    3    0    0 -0.68390491202E-01 -0.11179900155E+00 -0.27727899866E-02  0.88971004513E+00  0.88000000000E+00 0.  1.
        -11    1    4    4    0    0  0.14963906512E-01  0.48265553247E-01 -0.89313468834E-03  0.50542466688E-01  0.51100000000E-03 0. -1.
         11    1    4    4    0    0  0.39229632963E-01  0.70636523442E-01  0.17438522121E-01  0.82661029035E-01  0.51100000000E-03 0.  1.
</event>
<event>
 8    1  0.1150307E+005  0.1043930E+01  0.7957747E-01            NaN
         13   -1    0    0    0    0  0.00000000000E+00  0.00000000000E+00  0.74505805969E-08  0.10566000000E+00  0.10566000000E+00 0.  1.
     999900   -1    0    0    0    0 -0.00000000000E+00 -0.00000000000E+00 -0.74505805969E-08  0.93827000000E+00  0.93827000000E+00 0.  1.
     999902    2    1    2    0    0  0.18900866424E-01  0.26424856579E-04  0.11142152335E-01  0.10219893754E+01  0.10217538316E+01 0.  0.
     999903    2    3    3    0    0 -0.10704937146E+00 -0.62498093945E-01  0.35247677149E-01  0.13049969277E+00  0.20547296472E-01 0.  0.
         14    1    1    2    0    0 -0.18900866424E-01 -0.26424856579E-04 -0.11142152335E-01  0.21940624615E-01  0.00000000000E+00 0. -1.
     999901    1    3    3    0    0  0.12595023789E+00  0.62524518801E-01 -0.24105524815E-01  0.89148968261E+00  0.88000000000E+00 0. -1.
        -11    1    4    4    0    0 -0.85126637278E-01 -0.52011179148E-01  0.36328557454E-01  0.10616841497E+00  0.51100000000E-03 0. -1.
         11    1    4    4    0    0 -0.21922734185E-01 -0.10486914797E-01 -0.10808803042E-02  0.24331277799E-01  0.51100000000E-03 0.  1.
</event>
<event>
 8    1  0.1150307E+005  0.1043930E+01  0.7957747E-01            NaN
         13   -1    0    0    0    0  0.00000000000E+00  0.00000000000E+00  0.74505805969E-08  0.10566000000E+00  0.10566000000E+00 0. -1.
     999900   -1    0    0    0    0 -0.00000000000E+00 -0.00000000000E+00 -0.74505805969E-08  0.93827000000E+00  0.93827000000E+00 0.  1.
     999902    2    1    2    0    0  0.15719040789E-01  0.16412606384E-01 -0.67233926037E-02  0.10202305084E+01  0.10199552071E+01 0.  0.
     999903    2    3    3    0    0  0.89147518168E-01  0.93050307043E-02 -0.95739822441E-01  0.13266857613E+00  0.20024332680E-01 0.  0.
         14    1    1    2    0    0 -0.15719040789E-01 -0.16412606384E-01  0.67233926037E-02  0.23699491550E-01  0.00000000000E+00 0. -1.
     999901    1    3    3    0    0 -0.73428477379E-01  0.71075756798E-02  0.89016429838E-01  0.88756193232E+00  0.88000000000E+00 0. -1.
        -11    1    4    4    0    0  0.54950803392E-01  0.13690581225E-01 -0.51235674178E-01  0.76370008755E-01  0.51100000000E-03 0.  1.
         11    1    4    4    0    0  0.34196714776E-01 -0.43855505207E-02 -0.44504148263E-01  0.56298567375E-01  0.51100000000E-03 0. -1.
</event>
<event>
 8    1  0.1150307E+005  0.1043930E+01  0.7957747E-01            NaN
         13   -1    0    0    0    0  0.00000000000E+00  0.00000000000E+00  0.74505805969E-08  0.10566000000E+00  0.10566000000E+00 0.  1.
     999900   -1    0    0    0    0 -0.00000000000E+00 -0.00000000000E+00 -0.74505805969E-08  0.93827000000E+00  0.93827000000E+00 0.  1.
     999902    2    1    2    0    0  0.26011752222E-03 -0.22706898453E-01  0.10705688281E-01  0.10188245691E+01  0.10185152036E+01 0.  0.
     999903    2    3    3    0    0  0.17679985893E-01 -0.94756863027E-01  0.89007755606E-01  0.13224357284E+00  0.16569158299E-01 0.  0.
         14    1    1    2    0    0 -0.26011752222E-03  0.22706898453E-01 -0.10705688281E-01  0.25105430888E-01  0.00000000000E+00 0.  1.
     999901    1    3    3    0    0 -0.17419868370E-01  0.72049964574E-01 -0.78302067325E-01  0.88658099628E+00  0.88000000000E+00 0.  1.
        -11    1    4    4    0    0  0.84227855381E-02 -0.31422832948E-01  0.40386952268E-01  0.51862363822E-01  0.51100000000E-03 0.  1.
         11    1    4    4    0    0  0.92572003545E-02 -0.63334030079E-01  0.48620803338E-01  0.80381209015E-01  0.51100000000E-03 0. -1.
</event>
<event>
 8    1  0.1150307E+005  0.1043930E+01  0.7957747E-01            NaN
         13   -1    0    0    0    0  0.00000000000E+00  0.00000000000E+00  0.74505805969E-08  0.10566000000E+00  0.10566000000E+00 0.  1.
     999900   -1    0    0    0    0 -0.00000000000E+00 -0.00000000000E+00 -0.74505805969E-08  0.93827000000E+00  0.93827000000E+00 0. -1.
     999902    2    1    2    0    0 -0.23457293625E-01  0.13465439388E-01 -0.10558069738E-01  0.10148949261E+01  0.10144795096E+01 0.  0.
     999903    2    3    3    0    0  0.29265348264E-01  0.10824427144E+00 -0.56131176349E-01  0.12706633223E+00  0.20539253130E-01 0.  0.
         14    1    1    2    0    0  0.23457293625E-01 -0.13465439388E-01  0.10558069738E-01  0.29035073940E-01  0.00000000000E+00 0. -1.
     999901    1    3    3    0    0 -0.52722641889E-01 -0.94778832055E-01  0.45573106611E-01  0.88782859383E+00  0.88000000000E+00 0.  1.
        -11    1    4    4    0    0  0.14966452742E-01  0.69500669167E-01 -0.25061489193E-01  0.75383533241E-01  0.51100000000E-03 0. -1.
         11    1    4    4    0    0  0.14298895522E-01  0.38743602276E-01 -0.31069687156E-01  0.51682798990E-01  0.51100000000E-03 0.  1.
</event>
<event>
 8    1  0.1150307E+005  0.1043930E+01  0.7957747E-01            NaN
         13   -1    0    0    0    0  0.00000000000E+00  0.00000000000E+00  0.74505805969E-08  0.10566000000E+00  0.10566000000E+00 0.  1.
     999900   -1    0    0    0    0 -0.00000000000E+00 -0.00000000000E+00 -0.74505805969E-08  0.93827000000E+00  0.93827000000E+00 0.  1.
     999902    2    1    2    0    0  0.15131233437E-01  0.16423541568E-01 -0.63124139582E-02  0.10207236752E+01  0.10204598412E+01 0.  0.
     999903    2    3    3    0    0 -0.21581305755E-01  0.12691236704E+00 -0.26324162260E-01  0.13282950288E+00  0.19447715798E-01 0.  0.
         14    1    1    2    0    0 -0.15131233437E-01 -0.16423541568E-01  0.63124139582E-02  0.23206324848E-01  0.00000000000E+00 0. -1.
     999901    1    3    3    0    0  0.36712539191E-01 -0.11048882547E+00  0.20011748302E-01  0.88789417227E+00  0.88000000000E+00 0.  1.
        -11    1    4    4    0    0  0.22350145905E-02  0.72777248947E-02  0.13438526941E-02  0.77477500557E-02  0.51100000000E-03 0. -1.
         11    1    4    4    0    0 -0.23816320345E-01  0.11963464215E+00 -0.27668014954E-01  0.12508175282E+00  0.51100000000E-03 0.  1.
</event>
<event>
 8    1  0.1150307E+005  0.1043930E+01  0.7957747E-01            NaN
         13   -1    0    0    0    0  0.00000000000E+00  0.00000000000E+00  0.74505805969E-08  0.10566000000E+00  0.10566000000E+00 0.  1.
     999900   -1    0    0    0    0 -0.00000000000E+00 -0.00000000000E+00 -0.74505805969E-08  0.93827000000E+00  0.93827000000E+00 0. -1.
     999902    2    1    2    0    0  0.10055523886E-01  0.15884917444E-01 -0.18602695808E-01  0.10174818535E+01  0.10171380524E+01 0.  0.
     999903    2    3    3    0    0 -0.62995923822E-01  0.69396373326E-01  0.83295667022E-01  0.12698577473E+00  0.20071766012E-01 0.  0.
         14    1    1    2    0    0 -0.10055523886E-01 -0.15884917444E-01  0.18602695808E-01  0.26448146517E-01  0.00000000000E+00 0.  1.
     999901    1    3    3    0    0  0.73051447708E-01 -0.53511455882E-01 -0.10189836283E+00  0.89049607875E+00  0.88000000000E+00 0. -1.
        -11    1    4    4    0    0 -0.62219647947E-01  0.60172762577E-01  0.74426320359E-01  0.11415596450E+00  0.51100000000E-03 0.  1.
         11    1    4    4    0    0 -0.77627587473E-03  0.92236107491E-02  0.88693466631E-02  0.12829810237E-01  0.51100000000E-03 0. -1.
</event>
<event>
 8    1  0.1150307E+005  0.1043930E+01  0.7957747E-01            NaN
         13   -1    0    0    0    0  0.00000000000E+00  0.00000000000E+00  0.74505805969E-08  0.10566000000E+00  0.10566000000E+00 0. -1.
     999900   -1    0    0    0    0 -0.00000000000E+00 -0.00000000000E+00 -0.74505805969E-08  0.93827000000E+00  0.93827000000E+00 0.  1.
     999902    2    1    2    0    0  0.22279303122E-01  0.28197508695E-02  0.90743531029E-02  0.10197088888E+01  0.10194211866E+01 0.  0.
     999903    2    3    3    0    0 -0.52767217278E-01 -0.67898729219E-01  0.94997488753E-01  0.12953145207E+00  0.18954090806E-01 0.  0.
         14    1    1    2    0    0 -0.22279303122E-01 -0.28197508695E-02 -0.90743531029E-02  0.24221111180E-01  0.00000000000E+00 0.  1.
     999901    1    3    3    0    0  0.75046520400E-01  0.70718480088E-01 -0.85923135651E-01  0.89017743675E+00  0.88000000000E+00 0.  1.
        -11    1    4    4    0    0 -0.23349689940E-01 -0.43734135701E-01  0.59813690545E-01  0.77690548611E-01  0.51100000000E-03 0. -1.
         11    1    4    4    0    0 -0.29417527339E-01 -0.24164593517E-01  0.35183798208E-01  0.51840903464E-01  0.51100000000E-03 0.  1.
</event>
<event>
 8    1  0.1150307E+005  0.1043930E+01  0.7957747E-01            NaN
         13   -1    0    0    0    0  0.00000000000E+00  0.00000000000E+00  0.74505805969E-08  0.10566000000E+00  0.10566000000E+00 0.  1.
     999900   -1    0    0    0    0 -0.00000000000E+00 -0.00000000000E+00 -0.74505805969E-08  0.93827000000E+00  0.93827000000E+00 0. -1.
     999902    2    1    2    0    0 -0.94370785444E-02  0.18726805984E-01 -0.10418006958E-01  0.10205144799E+01  0.10202458121E+01 0.  0.
     999903    2    3    3    0    0  0.10303983345E-01 -0.12554626382E+00 -0.41027850861E-02  0.12852551681E+00  0.25178149148E-01 0.  0.
         14    1    1    2    0    0  0.94370785444E-02 -0.18726805984E-01  0.10418006958E-01  0.23415520127E-01  0.00000000000E+00 0.  1.
     999901    1    3    3    0    0 -0.19741061889E-01  0.14427306980E+00 -0.63152218723E-02  0.89198896306E+00  0.88000000000E+00 0. -1.
        -11    1    4    4    0    0  0.63208858797E-02 -0.29929423546E-01  0.90985555873E-02  0.31918158262E-01  0.51100000000E-03 0.  1.
         11    1    4    4    0    0  0.39830974653E-02 -0.95616840274E-01 -0.13201340673E-01  0.96607358550E-01  0.51100000000E-03 0. -1.
</event>
<event>
 8    1  0.1150307E+005  0.1043930E+01  0.7957747E-01            NaN
         13   -1    0    0    0    0  0.00000000000E+00  0.00000000000E+00  0.74505805969E-08  0.10566000000E+00  0.10566000000E+00 0.  1.
     999900   -1    0    0    0    0 -0.00000000000E+00 -0.00000000000E+00 -0.74505805969E-08  0.93827000000E+00  0.93827000000E+00 0.  1.
     999902    2    1    2    0    0  0.12703025561E-01  0.31293236876E-02  0.19110100209E-01  0.10207706508E+01  0.10205078961E+01 0.  0.
     999903    2    3    3    0    0  0.10447234707E+00  0.16993243352E-01  0.79306052719E-01  0.13384485383E+00  0.20536632583E-01 0.  0.
         14    1    1    2    0    0 -0.12703025561E-01 -0.31293236876E-02 -0.19110100209E-01  0.23159349195E-01  0.00000000000E+00 0. -1.
     999901    1    3    3    0    0 -0.91769321507E-01 -0.13863919665E-01 -0.60195952510E-01  0.88692579697E+00  0.88000000000E+00 0.  1.
        -11    1    4    4    0    0  0.28786700804E-01  0.19865121631E-02  0.33069205813E-01  0.43891387171E-01  0.51100000000E-03 0. -1.
         11    1    4    4    0    0  0.75685646264E-01  0.15006731189E-01  0.46236846906E-01  0.89953466660E-01  0.51100000000E-03 0.  1.
</event>
<event>
 8    1  0.1150307E+005  0.1043930E+01  0.7957747E-01            NaN
         13   -1    0    0    0    0  0.00000000000E+00  0.00000000000E+00  0.74505805969E-08  0.10566000000E+00  0.10566000000E+00 0.  1.
     999900   -1    0    0    0    0 -0.00000000000E+00 -0.00000000000E+00 -0.74505805969E-08  0.93827000000E+00  0.93827000000E+00 0.  1.
     999902    2    1    2    0    0 -0.14880647635E-01  0.12350178746E-01  0.14442570478E-01  0.10197939599E+01  0.10195082993E+01 0.  0.
     999903    2    3    3    0    0  0.73121902251E-01  0.25713232142E-01  0.10337995516E+00  0.13084352351E+00  0.20606543154E-01 0.  0.
         14    1    1    2    0    0  0.14880647635E-01 -0.12350178746E-01 -0.14442570478E-01  0.24136040088E-01  0.00000000000E+00 0. -1.
     999901    1    3    3    0    0 -0.88002549886E-01 -0.13363053396E-01 -0.88937384680E-01  0.88895043640E+00  0.88000000000E+00 0.  1.
        -11    1    4    4    0    0  0.40115371562E-01  0.42693806540E-02  0.59570169114E-01  0.71946763764E-01  0.51100000000E-03 0.  1.
         11    1    4    4    0    0  0.33006530688E-01  0.21443851488E-01  0.43809786043E-01  0.58896759748E-01  0.51100000000E-03 0. -1.
</event>
<event>
 8    1  0.1150307E+005  0.1043930E+01  0.7957747E-01            NaN
         13   -1    0    0    0    0  0.00000000000E+00  0.00000000000E+00  0.74505805969E-08  0.10566000000E+00  0.10566000000E+00 0.  1.
     999900   -1    0    0    0    0 -0.00000000000E+00 -0.00000000000E+00 -0.74505805969E-08  0.93827000000E+00  0.93827000000E+00 0. -1.
     999902    2    1    2    0    0  0.17215970226E-01  0.71866827869E-02 -0.14962384018E-01  0.10200153397E+01  0.10197349569E+01 0.  0.
     999903    2    3    3    0    0  0.69862153270E-01 -0.99785400826E-01  0.41002909372E-01  0.13021381055E+00  0.20893807797E-01 0.  0.
         14    1    1    2    0    0 -0.17215970226E-01 -0.71866827869E-02  0.14962384018E-01  0.23914660269E-01  0.00000000000E+00 0.  1.
     999901    1    3    3    0    0 -0.52646183045E-01  0.10697208361E+00 -0.55965293390E-01  0.88980152918E+00  0.88000000000E+00 0. -1.
        -11    1    4    4    0    0  0.48963963619E-01 -0.60338270819E-01  0.34789861001E-01  0.85139721682E-01  0.51100000000E-03 0.  1.
         11    1    4    4    0    0  0.20898189652E-01 -0.39447130007E-01  0.62130483716E-02  0.45074088871E-01  0.51100000000E-03 0. -1.
</event>
<event>
 8    1  0.1150307E+005  0.1043930E+01  0.7957747E-01            NaN
         13   -1    0    0    0    0  0.00000000000E+00  0.00000000000E+00  0.74505805969E-08  0.10566000000E+00  0.10566000000E+00 0.  1.
     999900   -1    0    0    0    0 -0.00000000000E+00 -0.00000000000E+00 -0.74505805969E-08  0.93827000000E+00  0.93827000000E+00 0. -1.
     999902    2    1    2    0    0  0.21820845313E-01  0.44934018624E-02  0.69431421318E-02  0.10205944654E+01  0.10203276512E+01 0.  0.
     999903    2    3    3    0    0 -0.10194321353E+00 -0.70539976320E-01  0.26997689412E-01  0.12854640902E+00  0.20663905575E-01 0.  0.
         14    1    1    2    0    0 -0.21820845313E-01 -0.44934018624E-02 -0.69431421318E-02  0.23335534558E-01  0.00000000000E+00 0. -1.
     999901    1    3    3    0    0  0.12376405884E+00  0.75033378182E-01 -0.20054547280E-01  0.89204805642E+00  0.88000000000E+00 0. -1.
        -11    1    4    4    0    0 -0.36358930294E-01 -0.37477642330E-01  0.12096783172E-01  0.53601667612E-01  0.51100000000E-03 0. -1.
         11    1    4    4    0    0 -0.65584283237E-01 -0.33062333990E-01  0.14900906240E-01  0.74944741406E-01  0.51100000000E-03 0.  1.
</event>
<event>
 8    1  0.1150307E+005  0.1043930E+01  0.7957747E-01            NaN
         13   -1    0    0    0    0  0.00000000000E+00  0.00000000000E+00  0.74505805969E-08  0.10566000000E+00  0.10566000000E+00 0. -1.
     999900   -1    0    0    0    0 -0.00000000000E+00 -0.00000000000E+00 -0.74505805969E-08  0.93827000000E+00  0.93827000000E+00 0. -1.
     999902    2    1    2    0    0  0.21713976697E-01  0.74105992756E-02  0.81865651477E-02  0.10195695071E+01  0.10192784439E+01 0.  0.
     999903    2    3    3    0    0  0.90875002886E-03  0.71011232203E-01 -0.10669291792E+00  0.12958344339E+00  0.19106782569E-01 0.  0.
         14    1    1    2    0    0 -0.21713976697E-01 -0.74105992756E-02 -0.81865651477E-02  0.24360492904E-01  0.00000000000E+00 0.  1.
     999901    1    3    3    0    0  0.20805226668E-01 -0.63600632927E-01  0.11487948307E+00  0.88998606371E+00  0.88000000000E+00 0.  1.
        -11    1    4    4    0    0  0.43668964757E-02  0.40133184011E-02 -0.13495173074E-01  0.14749824634E-01  0.51100000000E-03 0.  1.
         11    1    4    4    0    0 -0.34581464468E-02  0.66997913802E-01 -0.93197744846E-01  0.11483361875E+00  0.51100000000E-03 0. -1.
</event>
<event>
 8    1  0.1150307E+005  0.1043930E+01  0.7957747E-01            NaN
         13   -1    0    0    0    0  0.00000000000E+00  0.00000000000E+00  0.74505805969E-08  0.10566000000E+00  0.10566000000E+00 0.  1.
     999900   -1    0    0    0    0 -0.00000000000E+00 -0.00000000000E+00 -0.74505805969E-08  0.93827000000E+00  0.93827000000E+00 0. -1.
     999902    2    1    2    0    0  0.12627758821E-01  0.32599813369E-01  0.52764652311E-03  0.10089659251E+01  0.10083599315E+01 0.  0.
     999903    2    3    3    0    0  0.81068377517E-01  0.22446719483E-01 -0.86063263276E-01  0.12201317027E+00  0.20109484925E-01 0.  0.
         14    1    1    2    0    0 -0.12627758821E-01 -0.32599813369E-01 -0.52764652311E-03  0.34964074925E-01  0.00000000000E+00 0. -1.
     999901    1    3    3    0    0 -0.68440618696E-01  0.10153093886E-01  0.86590909799E-01  0.88695275481E+00  0.88000000000E+00 0.  1.
        -11    1    4    4    0    0  0.76079252578E-01  0.25374069279E-01 -0.76562124856E-01  0.11087793355E+00  0.51100000000E-03 0. -1.
         11    1    4    4    0    0  0.49891249387E-02 -0.29273497956E-02 -0.95011384192E-02  0.11135236717E-01  0.51100000000E-03 0.  1.
</event>
<event>
 8    1  0.1150307E+005  0.1043930E+01  0.7957747E-01            NaN
         13   -1    0    0    0    0  0.00000000000E+00  0.00000000000E+00  0.74505805969E-08  0.10566000000E+00  0.10566000000E+00 0.  1.
     999900   -1    0    0    0    0 -0.00000000000E+00 -0.00000000000E+00 -0.74505805969E-08  0.93827000000E+00  0.93827000000E+00 0.  1.
     999902    2    1    2    0    0  0.40753222475E-02 -0.18061105009E-01  0.13685052150E-01  0.10209062640E+01  0.10206466125E+01 0.  0.
     999903    2    3    3    0    0  0.49220657027E-01 -0.44226240641E-01 -0.11083534796E+00  0.13060965861E+00  0.19894097794E-01 0.  0.
         14    1    1    2    0    0 -0.40753222475E-02  0.18061105009E-01 -0.13685052150E-01  0.23023735968E-01  0.00000000000E+00 0. -1.
     999901    1    3    3    0    0 -0.45145334779E-01  0.26165135632E-01  0.12452040011E+00  0.89029660542E+00  0.88000000000E+00 0. -1.
        -11    1    4    4    0    0  0.28217048532E-01 -0.15077266218E-01 -0.64256913697E-01  0.71782573535E-01  0.51100000000E-03 0. -1.
         11    1    4    4    0    0  0.21003608495E-01 -0.29148974424E-01 -0.46578434261E-01  0.58827085080E-01  0.51100000000E-03 0.  1.
</event>
<event>
 8    1  0.1150307E+005  0.1043930E+01  0.7957747E-01            NaN
         13   -1    0    0    0    0  0.00000000000E+00  0.00000000000E+00  0.74505805969E-08  0.10566000000E+00  0.10566000000E+00 0. -1.
     999900   -1    0    0    0    0 -0.00000000000E+00 -0.00000000000E+00 -0.74505805969E-08  0.93827000000E+00  0.93827000000E+00 0.  1.
     999902    2    1    2    0    0  0.12783193041E-01 -0.19501589305E-01  0.63443729662E-02  0.10197644651E+01  0.10194780974E+01 0.  0.
     999903    2    3    3    0    0  0.88877262341E-01  0.83219487905E-01  0.38105183493E-01  0.12996073606E+00  0.24761602944E-01 0.  0.
         14    1    1    2    0    0 -0.12783193041E-01  0.19501589305E-01 -0.63443729662E-02  0.24165534922E-01  0.00000000000E+00 0.  1.
     999901    1    3    3    0    0 -0.76094069300E-01 -0.10272107721E+00 -0.31760810527E-01  0.88980372902E+00  0.88000000000E+00 0. -1.
        -11    1    4    4    0    0  0.31644990512E-01  0.46408547784E-01  0.15921290312E-01  0.58385848783E-01  0.51100000000E-03 0.  1.
         11    1    4    4    0    0  0.57232271829E-01  0.36810940121E-01  0.22183893181E-01  0.71574887279E-01  0.51100000000E-03 0. -1.
</event>
<event>
 8    1  0.1150307E+005  0.1043930E+01  0.7957747E-01            NaN
         13   -1    0    0    0    0  0.00000000000E+00  0.00000000000E+00  0.74505805969E-08  0.10566000000E+00  0.10566000000E+00 0. -1.
     999900   -1    0    0    0    0 -0.00000000000E+00 -0.00000000000E+00 -0.74505805969E-08  0.93827000000E+00  0.93827000000E+00 0. -1.
     999902    2    1    2    0    0 -0.67405668274E-02 -0.20169972983E-02 -0.15405804850E-01  0.10269935794E+01  0.10268539184E+01 0.  0.
     999903    2    3    3    0    0  0.10765567046E+00  0.60704793260E-01  0.50348963008E-01  0.13494861888E+00  0.20032382637E-01 0.  0.
         14    1    1    2    0    0  0.67405668274E-02  0.20169972983E-02  0.15405804850E-01  0.16936420588E-01  0.00000000000E+00 0. -1.
     999901    1    3    3    0    0 -0.11439623729E+00 -0.62721790558E-01 -0.65754767857E-01  0.89204496053E+00  0.88000000000E+00 0.  1.
        -11    1    4    4    0    0  0.13463281022E-01  0.68192339058E-03  0.62095164338E-02  0.14850729636E-01  0.51100000000E-03 0. -1.
         11    1    4    4    0    0  0.94192389440E-01  0.60022869869E-01  0.44139446574E-01  0.12009788924E+00  0.51100000000E-03 0.  1.
</event>
<event>
 8    1  0.1150307E+005  0.1043930E+01  0.7957747E-01            NaN
         13   -1    0    0    0    0  0.00000000000E+00  0.00000000000E+00  0.74505805969E-08  0.10566000000E+00  0.10566000000E+00 0.  1.
     999900   -1    0    0    0    0 -0.00000000000E+00 -0.00000000000E+00 -0.74505805969E-08  0.93827000000E+00  0.93827000000E+00 0.  1.
     999902    2    1    2    0    0 -0.33552569452E-02 -0.16892266057E-01  0.16423455582E-01  0.10201321788E+01  0.10198545611E+01 0.  0.
     999903    2    3    3    0    0 -0.21579404920E-01 -0.27306849269E-01 -0.12261939998E+00  0.12896805315E+00  0.19644509379E-01 0.  0.
         14    1    1    2    0    0  0.33552569452E-02  0.16892266057E-01 -0.16423455582E-01  0.23797821223E-01  0.00000000000E+00 0. -1.
     999901    1    3    3    0    0  0.18224147975E-01  0.10414583212E-01  0.13904285556E+00  0.89116412562E+00  0.88000000000E+00 0. -1.
        -11    1    4    4    0    0 -0.11979908111E-01 -0.17165128421E-01 -0.39737955601E-01  0.44916879549E-01  0.51100000000E-03 0.  1.
         11    1    4    4    0    0 -0.95994968089E-02 -0.10141720848E-01 -0.82881444382E-01  0.84051173606E-01  0.51100000000E-03 0. -1.
</event>
<event>
 8    1  0.1150307E+005  0.1043930E+01  0.7957747E-01            NaN
         13   -1    0    0    0    0  0.00000000000E+00  0.00000000000E+00  0.74505805969E-08  0.10566000000E+00  0.10566000000E+00 0. -1.
     999900   -1    0    0    0    0 -0.00000000000E+00 -0.00000000000E+00 -0.74505805969E-08  0.93827000000E+00  0.93827000000E+00 0.  1.
     999902    2    1    2    0    0  0.14715003615E-01 -0.67361984388E-02 -0.17650439776E-01  0.10199832732E+01  0.10197021290E+01 0.  0.
     999903    2    3    3    0    0  0.11576333421E+00  0.49978918154E-01  0.30717230333E-01  0.13107000347E+00  0.18350906342E-01 0.  0.
         14    1    1    2    0    0 -0.14715003615E-01  0.67361984388E-02  0.17650439776E-01  0.23946726813E-01  0.00000000000E+00 0. -1.
     999901    1    3    3    0    0 -0.10104833059E+00 -0.56715116592E-01 -0.48367670109E-01  0.88891326972E+00  0.88000000000E+00 0. -1.
        -11    1    4    4    0    0  0.42382981509E-01  0.27928514052E-01  0.13772929153E-01  0.52595377337E-01  0.51100000000E-03 0.  1.
         11    1    4    4    0    0  0.73380352699E-01  0.22050404101E-01  0.16944301180E-01  0.78474626134E-01  0.51100000000E-03 0. -1.
</event>
<event>
 8    1  0.1150307E+005  0.1043930E+01  0.7957747E-01            NaN
         13   -1    0    0    0    0  0.00000000000E+00  0.00000000000E+00  0.74505805969E-08  0.10566000000E+00  0.10566000000E+00 0. -1.
     999900   -1    0    0    0    0 -0.00000000000E+00 -0.00000000000E+00 -0.74505805969E-08  0.93827000000E+00  0.93827000000E+00 0.  1.
     999902    2    1    2    0    0 -0.19859473067E-01  0.55136690964E-02  0.10929740631E-01  0.10206006527E+01  0.10203339815E+01 0.  0.
     999903    2    3    3    0    0  0.13855665848E-01 -0.11937088317E+00 -0.43834734614E-01  0.12945980535E+00  0.19924106462E-01 0.  0.
         14    1    1    2    0    0  0.19859473067E-01 -0.55136690964E-02 -0.10929740631E-01  0.23329347348E-01  0.00000000000E+00 0.  1.
     999901    1    3    3    0    0 -0.33715138915E-01  0.12488455226E+00  0.54764475245E-01  0.89114084730E+00  0.88000000000E+00 0. -1.
        -11    1    4    4    0    0 -0.47023123815E-02 -0.22635723817E-01 -0.11197481163E-01  0.25693042635E-01  0.51100000000E-03 0. -1.
         11    1    4    4    0    0  0.18557978230E-01 -0.96735159348E-01 -0.32637253452E-01  0.10376676271E+00  0.51100000000E-03 0.  1.
</event>
<event>
 8    1  0.1150307E+005  0.1043930E+01  0.7957747E-01            NaN
         13   -1    0    0    0    0  0.00000000000E+00  0.00000000000E+00  0.74505805969E-08  0.10566000000E+00  0.10566000000E+00 0.  1.
     999900   -1    0    0    0    0 -0.00000000000E+00 -0.00000000000E+00 -0.74505805969E-08  0.93827000000E+00  0.93827000000E+00 0. -1.
     999902    2    1    2    0    0  0.16663822700E-01 -0.13279299093E-02  0.17210711553E-01  0.10199371891E+01  0.10196549488E+01 0.  0.
     999903    2    3    3    0    0  0.10952861663E-01 -0.12242863649E+00  0.41593715756E-01  0.13129073118E+00  0.19962031234E-01 0.  0.
         14    1    1    2    0    0 -0.16663822700E-01  0.13279299093E-02 -0.17210711553E-01  0.23992810943E-01  0.00000000000E+00 0. -1.
     999901    1    3    3    0    0  0.57109610369E-02  0.12110070658E+00 -0.24383004203E-01  0.88864645788E+00  0.88000000000E+00 0. -1.
        -11    1    4    4    0    0  0.92286304185E-02 -0.23861956274E-01  0.12656754131E-01  0.28548469710E-01  0.51100000000E-03 0.  1.
         11    1    4    4    0    0  0.17242312443E-02 -0.98566680216E-01  0.28936961624E-01  0.10274226147E+00  0.51100000000E-03 0. -1.
</event>
<event>
 8    1  0.1150307E+005  0.1043930E+01  0.7957747E-01            NaN
         13   -1    0    0    0    0  0.00000000000E+00  0.00000000000E+00  0.74505805969E-08  0.10566000000E+00  0.10566000000E+00 0. -1.
     999900   -1    0    0    0    0 -0.00000000000E+00 -0.00000000000E+00 -0.74505805969E-08  0.93827000000E+00  0.93827000000E+00 0. -1.
     999902    2    1    2    0    0  0.14967516810E-01  0.10781051418E-01 -0.23990007547E-01  0.10136681744E+01  0.10132163587E+01 0.  0.
     999903    2    3    3    0    0  0.10283460505E+00 -0.43864803891E-01  0.50863028399E-01  0.12444954450E+00  0.20039073142E-01 0.  0.
         14    1    1    2    0    0 -0.14967516810E-01 -0.10781051418E-01  0.23990007547E-01  0.30261825643E-01  0.00000000000E+00 0. -1.
     999901    1    3    3    0    0 -0.87867088237E-01  0.54645855309E-01 -0.74853035946E-01  0.88921862986E+00  0.88000000000E+00 0. -1.
        -11    1    4    4    0    0  0.57754461287E-01 -0.35302003743E-01  0.30059361697E-01  0.74065076881E-01  0.51100000000E-03 0. -1.
         11    1    4    4    0    0  0.45080143760E-01 -0.85628001480E-02  0.20803666702E-01  0.50384467617E-01  0.51100000000E-03 0.  1.
</event>
<event>
 8    1  0.1150307E+005  0.1043930E+01  0.7957747E-01            NaN
         13   -1    0    0    0    0  0.00000000000E+00  0.00000000000E+00  0.74505805969E-08  0.10566000000E+00  0.10566000000E+00 0. -1.
     999900   -1    0    0    0    0 -0.00000000000E+00 -0.00000000000E+00 -0.74505805969E-08  0.93827000000E+00  0.93827000000E+00 0.  1.
     999902    2    1    2    0    0  0.10029675669E-01 -0.11314289498E-01  0.18749382506E-01  0.10198437615E+01  0.10195592925E+01 0.  0.
     999903    2    3    3    0    0 -0.70370841856E-01  0.52444740169E-01  0.94765860221E-01  0.13062614923E+00  0.19496575191E-01 0.  0.
         14    1    1    2    0    0 -0.10029675669E-01  0.11314289498E-01 -0.18749382506E-01  0.24086238503E-01  0.00000000000E+00 0.  1.
     999901    1    3    3    0    0  0.80400517525E-01 -0.63759029667E-01 -0.76016477715E-01  0.88921761227E+00  0.88000000000E+00 0.  1.
        -11    1    4    4    0    0 -0.10604395306E-01  0.67253388579E-02  0.25140139301E-01  0.28106424668E-01  0.51100000000E-03 0. -1.
         11    1    4    4    0    0 -0.59766446550E-01  0.45719401311E-01  0.69625720920E-01  0.10251972456E+00  0.51100000000E-03 0.  1.
</event>
<event>
 8    1  0.1150307E+005  0.1043930E+01  0.7957747E-01            NaN
         13   -1    0    0    0    0  0.00000000000E+00  0.00000000000E+00  0.74505805969E-08  0.10566000000E+00  0.10566000000E+00 0. -1.
     999900   -1    0    0    0    0 -0.00000000000E+00 -0.00000000000E+00 -0.74505805969E-08  0.93827000000E+00  0.93827000000E+00 0.  1.
     999902    2    1    2    0    0  0.21678241838E-01  0.37839894275E-02  0.38144703372E-02  0.10215958349E+01  0.10213516706E+01 0.  0.
     999903    2    3    3    0    0  0.11516322515E+00 -0.36784408436E-01 -0.51903713126E-01  0.13396429371E+00  0.25234409484E-01 0.  0.
         14    1    1    2    0    0 -0.21678241838E-01 -0.37839894275E-02 -0.38144703372E-02  0.22334165065E-01  0.00000000000E+00 0.  1.
     999901    1    3    3    0    0 -0.93484983311E-01  0.40568397863E-01  0.55718183464E-01  0.88763154123E+00  0.88000000000E+00 0. -1.
        -11    1    4    4    0    0  0.78608171601E-01 -0.12464733216E-01 -0.33513321466E-01  0.86359817353E-01  0.51100000000E-03 0.  1.
         11    1    4    4    0    0  0.36555053548E-01 -0.24319675220E-01 -0.18390391661E-01  0.47604476356E-01  0.51100000000E-03 0. -1.
</event>
<event>
 8    1  0.1150307E+005  0.1043930E+01  0.7957747E-01            NaN
         13   -1    0    0    0    0  0.00000000000E+00  0.00000000000E+00  0.74505805969E-08  0.10566000000E+00  0.10566000000E+00 0.  1.
     999900   -1    0    0    0    0 -0.00000000000E+00 -0.00000000000E+00 -0.74505805969E-08  0.93827000000E+00  0.93827000000E+00 0. -1.
     999902    2    1    2    0    0  0.21347640891E-01 -0.17912816847E-02 -0.10521722436E-01  0.10200629284E+01  0.10197836736E+01 0.  0.
     999903    2    3    3    0    0 -0.98962820217E-01 -0.66994184681E-01  0.40175560162E-01  0.12804485684E+00  0.22350596445E-01 0.  0.
         14    1    1    2    0    0 -0.21347640891E-01  0.17912816847E-02  0.10521722436E-01  0.23867071557E-01  0.00000000000E+00 0.  1.
     999901    1    3    3    0    0  0.12031046111E+00  0.65202902996E-01 -0.50697282598E-01  0.89201807161E+00  0.88000000000E+00 0. -1.
        -11    1    4    4    0    0 -0.38357456405E-01 -0.35013333111E-01  0.88065989143E-02  0.52678698378E-01  0.51100000000E-03 0.  1.
         11    1    4    4    0    0 -0.60605363811E-01 -0.31980851571E-01  0.31368961248E-01  0.75366158458E-01  0.51100000000E-03 0. -1.
</event>
<event>
 8    1  0.1150307E+005  0.1043930E+01  0.7957747E-01            NaN
         13   -1    0    0    0    0  0.00000000000E+00  0.00000000000E+00  0.74505805969E-08  0.10566000000E+00  0.10566000000E+00 0.  1.
     999900   -1    0    0    0    0 -0.00000000000E+00 -0.00000000000E+00 -0.74505805969E-08  0.93827000000E+00  0.93827000000E+00 0.  1.
     999902    2    1    2    0    0  0.57782464479E-02  0.14111750825E-01  0.15935885055E-01  0.10218736613E+01  0.10216355992E+01 0.  0.
     999903    2    3    3    0    0  0.59088673206E-01  0.74911994245E-01 -0.88914186898E-01  0.13196793104E+00  0.20162440536E-01 0.  0.
         14    1    1    2    0    0 -0.57782464479E-02 -0.14111750825E-01 -0.15935885055E-01  0.22056338677E-01  0.00000000000E+00 0. -1.
     999901    1    3    3    0    0 -0.53310426758E-01 -0.60800243420E-01  0.10485007195E+00  0.88990573028E+00  0.88000000000E+00 0.  1.
        -11    1    4    4    0    0  0.51717456971E-01  0.65291246881E-01 -0.66905338549E-01  0.10683738916E+00  0.51100000000E-03 0. -1.
         11    1    4    4    0    0  0.73712162346E-02  0.96207473640E-02 -0.22008848350E-01  0.25130541882E-01  0.51100000000E-03 0.  1.
</event>
<event>
 8    1  0.1150307E+005  0.1043930E+01  0.7957747E-01            NaN
         13   -1    0    0    0    0  0.00000000000E+00  0.00000000000E+00  0.74505805969E-08  0.10566000000E+00  0.10566000000E+00 0.  1.
     999900   -1    0    0    0    0 -0.00000000000E+00 -0.00000000000E+00 -0.74505805969E-08  0.93827000000E+00  0.93827000000E+00 0.  1.
     999902    2    1    2    0    0 -0.10766112221E-01 -0.10055129568E-01  0.17452931463E-01  0.10210910066E+01  0.10208355520E+01 0.  0.
     999903    2    3    3    0    0 -0.11910908126E+00 -0.48889540678E-01 -0.24696181862E-01  0.13259629182E+00  0.19867430120E-01 0.  0.
         14    1    1    2    0    0  0.10766112221E-01  0.10055129568E-01 -0.17452931463E-01  0.22838993402E-01  0.00000000000E+00 0. -1.
     999901    1    3    3    0    0  0.10834296904E+00  0.38834411110E-01  0.42149113325E-01  0.88849471477E+00  0.88000000000E+00 0.  1.
        -11    1    4    4    0    0 -0.23695773147E-01 -0.17853504628E-02 -0.65211767575E-02  0.24646784955E-01  0.51100000000E-03 0.  1.
         11    1    4    4    0    0 -0.95413308117E-01 -0.47104190215E-01 -0.18175005105E-01  0.10794950687E+00  0.51100000000E-03 0. -1.
</event>
<event>
 8    1  0.1150307E+005  0.1043930E+01  0.7957747E-01            NaN
         13   -1    0    0    0    0  0.00000000000E+00  0.00000000000E+00  0.74505805969E-08  0.10566000000E+00  0.10566000000E+00 0.  1.
     999900   -1    0    0    0    0 -0.00000000000E+00 -0.00000000000E+00 -0.74505805969E-08  0.93827000000E+00  0.93827000000E+00 0. -1.
     999902    2    1    2    0    0  0.14625675653E-01  0.51801188596E-02  0.16377420877E-01  0.10213697710E+01  0.10211205830E+01 0.  0.
     999903    2    3    3    0    0 -0.12387951501E+00 -0.32117386745E-01 -0.94457379216E-03  0.12958793482E+00  0.20358778472E-01 0.  0.
         14    1    1    2    0    0 -0.14625675653E-01 -0.51801188596E-02 -0.16377420877E-01  0.22560229039E-01  0.00000000000E+00 0. -1.
     999901    1    3    3    0    0  0.13850519067E+00  0.37297505605E-01  0.17321994669E-01  0.89178183614E+00  0.88000000000E+00 0.  1.
        -11    1    4    4    0    0 -0.10619973093E+00 -0.21273949555E-01 -0.50943125174E-02  0.10843051655E+00  0.51100000000E-03 0. -1.
         11    1    4    4    0    0 -0.17679784085E-01 -0.10843437190E-01  0.41497387252E-02  0.21157418271E-01  0.51100000000E-03 0.  1.
</event>
<event>
 8    1  0.1150307E+005  0.1043930E+01  0.7957747E-01            NaN
         13   -1    0    0    0    0  0.00000000000E+00  0.00000000000E+00  0.74505805969E-08  0.10566000000E+00  0.10566000000E+00 0.  1.
     999900   -1    0    0    0    0 -0.00000000000E+00 -0.00000000000E+00 -0.74505805969E-08  0.93827000000E+00  0.93827000000E+00 0. -1.
     999902    2    1    2    0    0 -0.80459285724E-02 -0.12603978934E-01 -0.17739077648E-01  0.10207293076E+01  0.10204656032E+01 0.  0.
     999903    2    3    3    0    0  0.89445532887E-01 -0.43013318687E-01 -0.85127136284E-01  0.13226407844E+00  0.19912513032E-01 0.  0.
         14    1    1    2    0    0  0.80459285724E-02  0.12603978934E-01  0.17739077648E-01  0.23200692390E-01  0.00000000000E+00 0.  1.
     999901    1    3    3    0    0 -0.97491461459E-01  0.30409339753E-01  0.67388058636E-01  0.88846522917E+00  0.88000000000E+00 0.  1.
        -11    1    4    4    0    0  0.33903322354E-01 -0.58964781434E-02 -0.29711911968E-01  0.45467159081E-01  0.51100000000E-03 0.  1.
         11    1    4    4    0    0  0.55542210533E-01 -0.37116840543E-01 -0.55415224316E-01  0.86796919356E-01  0.51100000000E-03 0. -1.
</event>
<event>
 8    1  0.1150307E+005  0.1043930E+01  0.7957747E-01            NaN
         13   -1    0    0    0    0  0.00000000000E+00  0.00000000000E+00  0.74505805969E-08  0.10566000000E+00  0.10566000000E+00 0. -1.
     999900   -1    0    0    0    0 -0.00000000000E+00 -0.00000000000E+00 -0.74505805969E-08  0.93827000000E+00  0.93827000000E+00 0.  1.
     999902    2    1    2    0    0 -0.84830619640E-02  0.15586092243E-01 -0.16035052975E-01  0.10200132374E+01  0.10197328046E+01 0.  0.
     999903    2    3    3    0    0 -0.57596616059E-01  0.11600629107E+00 -0.21613291187E-01  0.13292391024E+00  0.20659182196E-01 0.  0.
         14    1    1    2    0    0  0.84830619640E-02 -0.15586092243E-01  0.16035052975E-01  0.23916762649E-01  0.00000000000E+00 0. -1.
     999901    1    3    3    0    0  0.49113554095E-01 -0.10042019883E+00  0.55782382127E-02  0.88708932711E+00  0.88000000000E+00 0.  1.
        -11    1    4    4    0    0 -0.91325123541E-02  0.29559055299E-01  0.21218584024E-02  0.31014576188E-01  0.51100000000E-03 0.  1.
         11    1    4    4    0    0 -0.48464103704E-01  0.86447235772E-01 -0.23735149590E-01  0.10190933405E+00  0.51100000000E-03 0. -1.
</event>
<event>
 8    1  0.1150307E+005  0.1043930E+01  0.7957747E-01            NaN
         13   -1    0    0    0    0  0.00000000000E+00  0.00000000000E+00  0.74505805969E-08  0.10566000000E+00  0.10566000000E+00 0.  1.
     999900   -1    0    0    0    0 -0.00000000000E+00 -0.00000000000E+00 -0.74505805969E-08  0.93827000000E+00  0.93827000000E+00 0. -1.
     999902    2    1    2    0    0  0.22552627904E-01  0.42596433483E-02 -0.67927307651E-02  0.10199945289E+01  0.10197136520E+01 0.  0.
     999903    2    3    3    0    0 -0.14002370196E-01  0.11194621810E+00 -0.61992546841E-01  0.13096152276E+00  0.24079502928E-01 0.  0.
         14    1    1    2    0    0 -0.22552627904E-01 -0.42596433483E-02  0.67927307651E-02  0.23935471127E-01  0.00000000000E+00 0. -1.
     999901    1    3    3    0    0  0.36554998100E-01 -0.10768657475E+00  0.55199816076E-01  0.88903300612E+00  0.88000000000E+00 0.  1.
        -11    1    4    4    0    0 -0.47572396027E-02  0.98223589995E-01 -0.57026396877E-01  0.11367838854E+00  0.51100000000E-03 0. -1.
         11    1    4    4    0    0 -0.92451305934E-02  0.13722628105E-01 -0.49661499636E-02  0.17283134214E-01  0.51100000000E-03 0.  1.
</event>
<event>
 8    1  0.1150307E+005  0.1043930E+01  0.7957747E-01            NaN
         13   -1    0    0    0    0  0.00000000000E+00  0.00000000000E+00  0.74505805969E-08  0.10566000000E+00  0.10566000000E+00 0.  1.
     999900   -1    0    0    0    0 -0.00000000000E+00 -0.00000000000E+00 -0.74505805969E-08  0.93827000000E+00  0.93827000000E+00 0. -1.
     999902    2    1    2    0    0 -0.63307849002E-02 -0.81099124919E-02 -0.21004480293E-01  0.10205411627E+01  0.10202731139E+01 0.  0.
     999903    2    3    3    0    0  0.72124394409E-02  0.10269606373E+00  0.73792920636E-01  0.12843806859E+00  0.21270673178E-01 0.  0.
         14    1    1    2    0    0  0.63307849002E-02  0.81099124919E-02  0.21004480293E-01  0.23388837305E-01  0.00000000000E+00 0.  1.
     999901    1    3    3    0    0 -0.13543224341E-01 -0.11080597623E+00 -0.94797400929E-01  0.89210309411E+00  0.88000000000E+00 0.  1.
        -11    1    4    4    0    0 -0.60671907968E-02  0.61933346929E-01  0.44831599547E-01  0.76698655170E-01  0.51100000000E-03 0. -1.
         11    1    4    4    0    0  0.13279630238E-01  0.40762716805E-01  0.28961321089E-01  0.51739413418E-01  0.51100000000E-03 0.  1.
</event>
<event>
 8    1  0.1150307E+005  0.1043930E+01  0.7957747E-01            NaN
         13   -1    0    0    0    0  0.00000000000E+00  0.00000000000E+00  0.74505805969E-08  0.10566000000E+00  0.10566000000E+00 0.  1.
     999900   -1    0    0    0    0 -0.00000000000E+00 -0.00000000000E+00 -0.74505805969E-08  0.93827000000E+00  0.93827000000E+00 0.  1.
     999902    2    1    2    0    0 -0.13758269244E-01  0.72486356289E-02  0.18655534244E-01  0.10196429325E+01  0.10193536423E+01 0.  0.
     999903    2    3    3    0    0  0.83612198634E-02 -0.14725124216E-01 -0.12476364970E+00  0.12748757591E+00  0.20009358963E-01 0.  0.
         14    1    1    2    0    0  0.13758269244E-01 -0.72486356289E-02 -0.18655534244E-01  0.24287067525E-01  0.00000000000E+00 0.  1.
     999901    1    3    3    0    0 -0.22119489107E-01  0.21973759845E-01  0.14341918394E+00  0.89215535656E+00  0.88000000000E+00 0. -1.
        -11    1    4    4    0    0  0.32052487433E-02 -0.88212820540E-02 -0.16897945107E-01  0.19336243338E-01  0.51100000000E-03 0.  1.
         11    1    4    4    0    0  0.51559711201E-02 -0.59038421621E-02 -0.10786570459E+00  0.10815133257E+00  0.51100000000E-03 0. -1.
</event>
