<event>
 8    1  0.1066842E+005  0.1043930E+01  0.7957747E-01            NaN
         13   -1    0    0    0    0  0.00000000000E+00  0.00000000000E+00  0.74505805969E-08  0.10566000000E+00  0.10566000000E+00 0. -1.
     999900   -1    0    0    0    0 -0.00000000000E+00 -0.00000000000E+00 -0.74505805969E-08  0.93827000000E+00  0.93827000000E+00 0. -1.
     999902    2    1    2    0    0  0.21951122944E-01  0.88868476999E-02  0.37149002085E-02  0.10199585932E+01  0.10196768623E+01 0.  0.
     999903    2    3    3    0    0  0.56781279414E-02 -0.88639665441E-01 -0.91778523547E-01  0.12928737153E+00  0.20067277479E-01 0.  0.
         14    1    1    2    0    0 -0.21951122944E-01 -0.88868476999E-02 -0.37149002085E-02  0.23971406803E-01  0.00000000000E+00 0.  1.
     999901    1    3    3    0    0  0.16272995002E-01  0.97526513141E-01  0.95493423755E-01  0.89067122167E+00  0.88000000000E+00 0.  1.
        -11    1    4    4    0    0 -0.65196784993E-02 -0.38127106547E-01 -0.33169733394E-01  0.50957578394E-01  0.51100000000E-03 0.  1.
         11    1    4    4    0    0  0.12197806441E-01 -0.50512558895E-01 -0.58608790152E-01  0.78329793132E-01  0.51100000000E-03 0. -1.
</event>
<event>
 8    1  0.1066842E+005  0.1043930E+01  0.7957747E-01            NaN
         13   -1    0    0    0    0  0.00000000000E+00  0.00000000000E+00  0.74505805969E-08  0.10566000000E+00  0.10566000000E+00 0.  1.
     999900   -1    0    0    0    0 -0.00000000000E+00 -0.00000000000E+00 -0.74505805969E-08  0.93827000000E+00  0.93827000000E+00 0. -1.
     999902    2    1    2    0    0  0.83200164789E-02 -0.15028328184E-01  0.15841932472E-01  0.10205624981E+01  0.10202949438E+01 0.  0.
     999903    2    3    3    0    0 -0.55336970107E-01  0.95917777976E-01 -0.60969816332E-01  0.12800365117E+00  0.20129973105E-01 0.  0.
         14    1    1    2    0    0 -0.83200164789E-02  0.15028328184E-01 -0.15841932472E-01  0.23367501935E-01  0.00000000000E+00 0. -1.
     999901    1    3    3    0    0  0.63656986586E-01 -0.11094610616E+00  0.76811748805E-01  0.89255884689E+00  0.88000000000E+00 0.  1.
        -11    1    4    4    0    0 -0.27068266026E-01  0.35969065816E-01 -0.15449360079E-01  0.47596308357E-01  0.51100000000E-03 0. -1.
         11    1    4    4    0    0 -0.28268704081E-01  0.59948712160E-01 -0.45520456253E-01  0.80407342815E-01  0.51100000000E-03 0.  1.
</event>
<event>
 7    1  0.1107075E+005  0.1043930E+01  0.7957747E-01            NaN
         13   -1    0    0    0    0  0.00000000000E+00  0.00000000000E+00  0.74505805969E-08  0.10566000000E+00  0.10566000000E+00 0. -1.
     999900   -1    0    0    0    0 -0.00000000000E+00 -0.00000000000E+00 -0.74505805969E-08  0.93827000000E+00  0.93827000000E+00 0.  1.
     999903    2    1    2    0    0 -0.66646383682E-01 -0.32810877318E-01  0.77705829907E-01  0.10930962380E+00  0.19801609162E-01 0.  0.
         14    1    1    2    0    0  0.76355188279E-02 -0.45293829394E-01 -0.52760340191E-02  0.46234929047E-01  0.00000000000E+00 0. -1.
     999901    1    1    2    0    0  0.59010864854E-01  0.78104706713E-01 -0.72429795888E-01  0.88838544715E+00  0.88000000000E+00 0. -1.
        -11    1    3    3    0    0 -0.29868258519E-01 -0.24736348117E-01  0.45236460683E-01  0.59586896892E-01  0.51100000000E-03 0.  1.
         11    1    3    3    0    0 -0.36778125163E-01 -0.80745292018E-02  0.32469369224E-01  0.49722726908E-01  0.51100000000E-03 0. -1.
</event>
<event>
 8    1  0.1066842E+005  0.1043930E+01  0.7957747E-01            NaN
         13   -1    0    0    0    0  0.00000000000E+00  0.00000000000E+00  0.74505805969E-08  0.10566000000E+00  0.10566000000E+00 0. -1.
     999900   -1    0    0    0    0 -0.00000000000E+00 -0.00000000000E+00 -0.74505805969E-08  0.93827000000E+00  0.93827000000E+00 0. -1.
     999902    2    1    2    0    0  0.18468725633E-02 -0.12168058139E-01  0.20524118771E-01  0.10199985974E+01  0.10197178172E+01 0.  0.
     999903    2    3    3    0    0 -0.38330008418E-01 -0.10792768487E+00  0.65202678670E-01  0.13276680045E+00  0.16064223851E-01 0.  0.
         14    1    1    2    0    0 -0.18468725633E-02  0.12168058139E-01 -0.20524118771E-01  0.23931402560E-01  0.00000000000E+00 0.  1.
     999901    1    3    3    0    0  0.40176880981E-01  0.95759626735E-01 -0.44678559899E-01  0.88723179699E+00  0.88000000000E+00 0. -1.
        -11    1    4    4    0    0 -0.26893950617E-01 -0.77078910614E-01  0.54531894785E-01  0.98175514824E-01  0.51100000000E-03 0. -1.
         11    1    4    4    0    0 -0.11436057801E-01 -0.30848774261E-01  0.10670783885E-01  0.34591285625E-01  0.51100000000E-03 0.  1.
</event>
<event>
 8    1  0.1066842E+005  0.1043930E+01  0.7957747E-01            NaN
         13   -1    0    0    0    0  0.00000000000E+00  0.00000000000E+00  0.74505805969E-08  0.10566000000E+00  0.10566000000E+00 0. -1.
     999900   -1    0    0    0    0 -0.00000000000E+00 -0.00000000000E+00 -0.74505805969E-08  0.93827000000E+00  0.93827000000E+00 0.  1.
     999902    2    1    2    0    0  0.82702711192E-02  0.42570931819E-02  0.20063242472E-01  0.10218154364E+01  0.10215761019E+01 0.  0.
     999903    2    3    3    0    0 -0.83194932387E-01 -0.63203581988E-01  0.79180575921E-01  0.13253950321E+00  0.19520931286E-01 0.  0.
         14    1    1    2    0    0 -0.82702711192E-02 -0.42570931819E-02 -0.20063242472E-01  0.22114563646E-01  0.00000000000E+00 0.  1.
     999901    1    3    3    0    0  0.91465203506E-01  0.67460675169E-01 -0.59117333449E-01  0.88927593314E+00  0.88000000000E+00 0.  1.
        -11    1    4    4    0    0 -0.54231680408E-02 -0.11943625043E-01  0.90726411274E-02  0.15957282625E-01  0.51100000000E-03 0.  1.
         11    1    4    4    0    0 -0.77771764346E-01 -0.51259956945E-01  0.70107934794E-01  0.11658222059E+00  0.51100000000E-03 0. -1.
</event>
<event>
 8    1  0.1066842E+005  0.1043930E+01  0.7957747E-01            NaN
         13   -1    0    0    0    0  0.00000000000E+00  0.00000000000E+00  0.74505805969E-08  0.10566000000E+00  0.10566000000E+00 0.  1.
     999900   -1    0    0    0    0 -0.00000000000E+00 -0.00000000000E+00 -0.74505805969E-08  0.93827000000E+00  0.93827000000E+00 0.  1.
     999902    2    1    2    0    0 -0.35399417800E-02 -0.13675668736E-01 -0.18039419099E-01  0.10210176508E+01  0.10207605339E+01 0.  0.
     999903    2    3    3    0    0  0.93392703765E-02  0.11294648207E+00  0.57667142279E-01  0.12864411546E+00  0.19485362724E-01 0.  0.
         14    1    1    2    0    0  0.35399417800E-02  0.13675668736E-01  0.18039419099E-01  0.22912349173E-01  0.00000000000E+00 0.  1.
     999901    1    3    3    0    0 -0.12879212157E-01 -0.12662215081E+00 -0.75706561378E-01  0.89237353536E+00  0.88000000000E+00 0. -1.
        -11    1    4    4    0    0  0.14580219602E-01  0.59219833157E-01  0.31796523863E-01  0.68781185607E-01  0.51100000000E-03 0. -1.
         11    1    4    4    0    0 -0.52409492252E-02  0.53726648917E-01  0.25870618416E-01  0.59862929856E-01  0.51100000000E-03 0.  1.
</event>
<event>
 8    1  0.1066842E+005  0.1043930E+01  0.7957747E-01            NaN
         13   -1    0    0    0    0  0.00000000000E+00  0.00000000000E+00  0.74505805969E-08  0.10566000000E+00  0.10566000000E+00 0. -1.
     999900   -1    0    0    0    0 -0.00000000000E+00 -0.00000000000E+00 -0.74505805969E-08  0.93827000000E+00  0.93827000000E+00 0. -1.
     999902    2    1    2    0    0  0.94649961287E-02 -0.89030849470E-02 -0.19388084160E-01  0.10205901439E+01  0.10203232297E+01 0.  0.
     999903    2    3    3    0    0 -0.29745364448E-02 -0.12963150267E+00  0.11890537046E-01  0.13170969925E+00  0.19821343362E-01 0.  0.
         14    1    1    2    0    0 -0.94649961287E-02  0.89030849470E-02  0.19388084160E-01  0.23339856056E-01  0.00000000000E+00 0. -1.
     999901    1    3    3    0    0  0.12439532574E-01  0.12072841773E+00 -0.31278621206E-01  0.88888044470E+00  0.88000000000E+00 0.  1.
        -11    1    4    4    0    0 -0.32897017134E-02 -0.74036190843E-01  0.16482766728E-01  0.75921817759E-01  0.51100000000E-03 0.  1.
         11    1    4    4    0    0  0.31516526861E-03 -0.55595311830E-01 -0.45922296822E-02  0.55787881490E-01  0.51100000000E-03 0. -1.
</event>
<event>
 8    1  0.1066842E+005  0.1043930E+01  0.7957747E-01            NaN
         13   -1    0    0    0    0  0.00000000000E+00  0.00000000000E+00  0.74505805969E-08  0.10566000000E+00  0.10566000000E+00 0. -1.
     999900   -1    0    0    0    0 -0.00000000000E+00 -0.00000000000E+00 -0.74505805969E-08  0.93827000000E+00  0.93827000000E+00 0. -1.
     999902    2    1    2    0    0  0.24324633847E-02 -0.22076250686E-01 -0.80572937948E-02  0.10203037920E+01  0.10200302104E+01 0.  0.
     999903    2    3    3    0    0 -0.58290336604E-01 -0.65724595551E-01  0.95260707712E-01  0.13110918679E+00  0.19938170063E-01 0.  0.
         14    1    1    2    0    0 -0.24324633847E-02  0.22076250686E-01  0.80572937948E-02  0.23626208027E-01  0.00000000000E+00 0. -1.
     999901    1    3    3    0    0  0.60722799989E-01  0.43648344865E-01 -0.10331800151E+00  0.88919460518E+00  0.88000000000E+00 0.  1.
        -11    1    4    4    0    0 -0.22679492988E-01 -0.12949742649E-01  0.32657334774E-01  0.41818869813E-01  0.51100000000E-03 0. -1.
         11    1    4    4    0    0 -0.35610843617E-01 -0.52774852902E-01  0.62603372938E-01  0.89290316979E-01  0.51100000000E-03 0.  1.
</event>
<event>
 8    1  0.1066842E+005  0.1043930E+01  0.7957747E-01            NaN
         13   -1    0    0    0    0  0.00000000000E+00  0.00000000000E+00  0.74505805969E-08  0.10566000000E+00  0.10566000000E+00 0. -1.
     999900   -1    0    0    0    0 -0.00000000000E+00 -0.00000000000E+00 -0.74505805969E-08  0.93827000000E+00  0.93827000000E+00 0.  1.
     999902    2    1    2    0    0 -0.99210758543E-02 -0.36097121412E-02  0.20775476230E-01  0.10206259621E+01  0.10203598759E+01 0.  0.
     999903    2    3    3    0    0  0.92511121868E-02 -0.11798247749E+00  0.55761030168E-01  0.13232832552E+00  0.19900883876E-01 0.  0.
         14    1    1    2    0    0  0.99210758543E-02  0.36097121412E-02 -0.20775476230E-01  0.23304037857E-01  0.00000000000E+00 0.  1.
     999901    1    3    3    0    0 -0.19172188041E-01  0.11437276534E+00 -0.34985553938E-01  0.88829763662E+00  0.88000000000E+00 0.  1.
        -11    1    4    4    0    0 -0.49859306528E-02 -0.58162736357E-01  0.24018991108E-01  0.63126353133E-01  0.51100000000E-03 0. -1.
         11    1    4    4    0    0  0.14237042840E-01 -0.59819741129E-01  0.31742039060E-01  0.69201972387E-01  0.51100000000E-03 0.  1.
</event>
<event>
 8    1  0.1066842E+005  0.1043930E+01  0.7957747E-01            NaN
         13   -1    0    0    0    0  0.00000000000E+00  0.00000000000E+00  0.74505805969E-08  0.10566000000E+00  0.10566000000E+00 0. -1.
     999900   -1    0    0    0    0 -0.00000000000E+00 -0.00000000000E+00 -0.74505805969E-08  0.93827000000E+00  0.93827000000E+00 0.  1.
     999902    2    1    2    0    0 -0.11976046958E-01  0.20385023735E-01  0.10789460513E-02  0.10202627438E+01  0.10199881996E+01 0.  0.
     999903    2    3    3    0    0  0.25682271837E-01  0.12757711525E+00  0.16285633958E-01  0.13282850010E+00  0.21040179249E-01 0.  0.
         14    1    1    2    0    0  0.11976046958E-01 -0.20385023735E-01 -0.10789460513E-02  0.23667256241E-01  0.00000000000E+00 0.  1.
     999901    1    3    3    0    0 -0.37658318795E-01 -0.10719209152E+00 -0.15206687907E-01  0.88743424366E+00  0.88000000000E+00 0.  1.
        -11    1    4    4    0    0  0.23404475501E-01  0.11397526820E+00  0.21020528758E-01  0.11823812831E+00  0.51100000000E-03 0.  1.
         11    1    4    4    0    0  0.22777963354E-02  0.13601847052E-01 -0.47348948000E-02  0.14590371796E-01  0.51100000000E-03 0. -1.
</event>
<event>
 8    1  0.1066842E+005  0.1043930E+01  0.7957747E-01            NaN
         13   -1    0    0    0    0  0.00000000000E+00  0.00000000000E+00  0.74505805969E-08  0.10566000000E+00  0.10566000000E+00 0. -1.
     999900   -1    0    0    0    0 -0.00000000000E+00 -0.00000000000E+00 -0.74505805969E-08  0.93827000000E+00  0.93827000000E+00 0.  1.
     999902    2    1    2    0    0 -0.20136506819E-01  0.53028716951E-02  0.27537768726E-01  0.10094056888E+01  0.10088151053E+01 0.  0.
     999903    2    3    3    0    0 -0.10099038923E+00  0.64997229748E-01  0.22067174623E-01  0.12366831575E+00  0.19575329701E-01 0.  0.
         14    1    1    2    0    0  0.20136506819E-01 -0.53028716951E-02 -0.27537768726E-01  0.34524311166E-01  0.00000000000E+00 0. -1.
     999901    1    3    3    0    0  0.80853882406E-01 -0.59694358053E-01  0.54705941025E-02  0.88573737309E+00  0.88000000000E+00 0. -1.
        -11    1    4    4    0    0 -0.54414622026E-01  0.36264589808E-01  0.21501325854E-02  0.65429013101E-01  0.51100000000E-03 0.  1.
         11    1    4    4    0    0 -0.46575767200E-01  0.28732639939E-01  0.19917042038E-01  0.58239302646E-01  0.51100000000E-03 0. -1.
</event>
<event>
 8    1  0.1066842E+005  0.1043930E+01  0.7957747E-01            NaN
         13   -1    0    0    0    0  0.00000000000E+00  0.00000000000E+00  0.74505805969E-08  0.10566000000E+00  0.10566000000E+00 0.  1.
     999900   -1    0    0    0    0 -0.00000000000E+00 -0.00000000000E+00 -0.74505805969E-08  0.93827000000E+00  0.93827000000E+00 0. -1.
     999902    2    1    2    0    0 -0.15971279099E-02 -0.21913544542E-01  0.75505078033E-02  0.10206971693E+01  0.10204327254E+01 0.  0.
     999903    2    3    3    0    0  0.11408641670E+00 -0.15185597486E-01  0.59552194003E-01  0.13157843536E+00  0.22805876342E-01 0.  0.
         14    1    1    2    0    0  0.15971279099E-02  0.21913544542E-01 -0.75505078033E-02  0.23232830651E-01  0.00000000000E+00 0.  1.
     999901    1    3    3    0    0 -0.11568354461E+00 -0.67279470556E-02 -0.52001686200E-01  0.88911873399E+00  0.88000000000E+00 0.  1.
        -11    1    4    4    0    0  0.51931945208E-01  0.21039972952E-02  0.18817687186E-01  0.55278569172E-01  0.51100000000E-03 0.  1.
         11    1    4    4    0    0  0.62154471488E-01 -0.17289594781E-01  0.40734506818E-01  0.76299866188E-01  0.51100000000E-03 0. -1.
</event>
<event>
 8    1  0.1066842E+005  0.1043930E+01  0.7957747E-01            NaN
         13   -1    0    0    0    0  0.00000000000E+00  0.00000000000E+00  0.74505805969E-08  0.10566000000E+00  0.10566000000E+00 0.  1.
     999900   -1    0    0    0    0 -0.00000000000E+00 -0.00000000000E+00 -0.74505805969E-08  0.93827000000E+00  0.93827000000E+00 0. -1.
     999902    2    1    2    0    0 -0.16603559669E-02 -0.76862219454E-02 -0.22769653877E-01  0.10198407508E+01  0.10195562099E+01 0.  0.
     999903    2    3    3    0    0  0.26417916983E-02  0.10440202278E+00 -0.76597725570E-01  0.13108896070E+00  0.20256915654E-01 0.  0.
         14    1    1    2    0    0  0.16603559669E-02  0.76862219454E-02  0.22769653877E-01  0.24089249209E-01  0.00000000000E+00 0.  1.
     999901    1    3    3    0    0 -0.43021476652E-02 -0.11208824473E+00  0.53828071693E-01  0.88875179009E+00  0.88000000000E+00 0.  1.
        -11    1    4    4    0    0 -0.39208211863E-02  0.83614457788E-01 -0.53602806892E-01  0.99399559443E-01  0.51100000000E-03 0. -1.
         11    1    4    4    0    0  0.65626128846E-02  0.20787564994E-01 -0.22994918679E-01  0.31689401261E-01  0.51100000000E-03 0.  1.
</event>
<event>
 8    1  0.1066842E+005  0.1043930E+01  0.7957747E-01            NaN
         13   -1    0    0    0    0  0.00000000000E+00  0.00000000000E+00  0.74505805969E-08  0.10566000000E+00  0.10566000000E+00 0. -1.
     999900   -1    0    0    0    0 -0.00000000000E+00 -0.00000000000E+00 -0.74505805969E-08  0.93827000000E+00  0.93827000000E+00 0.  1.
     999902    2    1    2    0    0 -0.14749516665E-01  0.58925168675E-02  0.17882228612E-01  0.10200125566E+01  0.10197321078E+01 0.  0.
     999903    2    3    3    0    0 -0.12638019346E+00 -0.24251507215E-01 -0.19543166685E-01  0.13165973799E+00  0.19805613906E-01 0.  0.
         14    1    1    2    0    0  0.14749516665E-01 -0.58925168675E-02 -0.17882228612E-01  0.23917443363E-01  0.00000000000E+00 0.  1.
     999901    1    3    3    0    0  0.11163067679E+00  0.30144024083E-01  0.37425395297E-01  0.88835281865E+00  0.88000000000E+00 0. -1.
        -11    1    4    4    0    0 -0.99139137328E-01 -0.10736672236E-01 -0.13176646511E-01  0.10058692666E+00  0.51100000000E-03 0. -1.
         11    1    4    4    0    0 -0.27241056130E-01 -0.13514834980E-01 -0.63665201742E-02  0.31072811327E-01  0.51100000000E-03 0.  1.
</event>
<event>
 8    1  0.1066842E+005  0.1043930E+01  0.7957747E-01            NaN
         13   -1    0    0    0    0  0.00000000000E+00  0.00000000000E+00  0.74505805969E-08  0.10566000000E+00  0.10566000000E+00 0.  1.
     999900   -1    0    0    0    0 -0.00000000000E+00 -0.00000000000E+00 -0.74505805969E-08  0.93827000000E+00  0.93827000000E+00 0. -1.
     999902    2    1    2    0    0  0.15719315284E-01 -0.16879709369E-01  0.40143630924E-02  0.10205176833E+01  0.10202490899E+01 0.  0.
     999903    2    3    3    0    0  0.18784744616E-01 -0.10102537301E+00 -0.82605735279E-01  0.13226494282E+00  0.10550591176E-01 0.  0.
         14    1    1    2    0    0 -0.15719315284E-01  0.16879709369E-01 -0.40143630924E-02  0.23412316682E-01  0.00000000000E+00 0. -1.
     999901    1    3    3    0    0 -0.30654293317E-02  0.84145663646E-01  0.86620098371E-01  0.88825274050E+00  0.88000000000E+00 0. -1.
        -11    1    4    4    0    0  0.16316296752E-01 -0.75978672659E-01 -0.67303467980E-01  0.10280563293E+00  0.51100000000E-03 0. -1.
         11    1    4    4    0    0  0.24684478639E-02 -0.25046700356E-01 -0.15302267299E-01  0.29459309888E-01  0.51100000000E-03 0.  1.
</event>
<event>
 8    1  0.1187430E+005  0.1043930E+01  0.7957747E-01            NaN
         13   -1    0    0    0    0  0.00000000000E+00  0.00000000000E+00  0.74505805969E-08  0.10566000000E+00  0.10566000000E+00 0. -1.
     999900   -1    0    0    0    0 -0.00000000000E+00 -0.00000000000E+00 -0.74505805969E-08  0.93827000000E+00  0.93827000000E+00 0.  1.
     999902    2    1    2    0    0 -0.21901766673E-01 -0.25029464544E-03 -0.48388097476E-02  0.10214986801E+01  0.10212523632E+01 0.  0.
     999903    2    3    3    0    0 -0.66606944967E-03  0.13074621876E+00  0.62618414313E-02  0.13147942989E+00  0.12353641451E-01 0.  0.
         14    1    1    2    0    0  0.21901766673E-01  0.25029464544E-03  0.48388097476E-02  0.22431319858E-01  0.00000000000E+00 0. -1.
     999901    1    3    3    0    0 -0.21235697224E-01 -0.13099651341E+00 -0.11100651179E-01  0.89001925025E+00  0.88000000000E+00 0.  1.
        -11    1    4    4    0    0  0.21038484416E-02  0.56181463024E-01  0.83066551665E-02  0.56833481389E-01  0.51100000000E-03 0.  1.
         11    1    4    4    0    0 -0.27699178912E-02  0.74564755738E-01 -0.20448137353E-02  0.74645948501E-01  0.51100000000E-03 0. -1.
</event>
<event>
 8    1  0.1066842E+005  0.1043930E+01  0.7957747E-01            NaN
         13   -1    0    0    0    0  0.00000000000E+00  0.00000000000E+00  0.74505805969E-08  0.10566000000E+00  0.10566000000E+00 0.  1.
     999900   -1    0    0    0    0 -0.00000000000E+00 -0.00000000000E+00 -0.74505805969E-08  0.93827000000E+00  0.93827000000E+00 0.  1.
     999902    2    1    2    0    0 -0.20536872751E-01 -0.94090220681E-02  0.13046676339E-01  0.10178434402E+01  0.10175090959E+01 0.  0.
     999903    2    3    3    0    0  0.97043112713E-01  0.50329420796E-01  0.60746349836E-01  0.12673795072E+00  0.20541976794E-01 0.  0.
         14    1    1    2    0    0  0.20536872751E-01  0.94090220681E-02 -0.13046676339E-01  0.26086559800E-01  0.00000000000E+00 0.  1.
     999901    1    3    3    0    0 -0.11757998546E+00 -0.59738442864E-01 -0.47699673497E-01  0.89110548948E+00  0.88000000000E+00 0.  1.
        -11    1    4    4    0    0  0.67037658139E-01  0.28240869081E-01  0.31071778021E-01  0.79103165585E-01  0.51100000000E-03 0. -1.
         11    1    4    4    0    0  0.30005454575E-01  0.22088551715E-01  0.29674571815E-01  0.47634785131E-01  0.51100000000E-03 0.  1.
</event>
<event>
 8    1  0.1066842E+005  0.1043930E+01  0.7957747E-01            NaN
         13   -1    0    0    0    0  0.00000000000E+00  0.00000000000E+00  0.74505805969E-08  0.10566000000E+00  0.10566000000E+00 0.  1.
     999900   -1    0    0    0    0 -0.00000000000E+00 -0.00000000000E+00 -0.74505805969E-08  0.93827000000E+00  0.93827000000E+00 0.  1.
     999902    2    1    2    0    0  0.72707489316E-02 -0.20363153761E-01  0.12199487617E-01  0.10191036165E+01  0.10188011738E+01 0.  0.
     999903    2    3    3    0    0  0.71234340773E-01  0.17901423377E-01  0.10514504792E+00  0.13107524073E+00  0.27026752780E-01 0.  0.
         14    1    1    2    0    0 -0.72707489316E-02  0.20363153761E-01 -0.12199487617E-01  0.24826383532E-01  0.00000000000E+00 0. -1.
     999901    1    3    3    0    0 -0.63963591841E-01 -0.38264577138E-01 -0.92945560299E-01  0.88802837574E+00  0.88000000000E+00 0.  1.
        -11    1    4    4    0    0  0.46931389541E-01  0.23082529432E-01  0.60466695464E-01  0.79948989178E-01  0.51100000000E-03 0. -1.
         11    1    4    4    0    0  0.24302951232E-01 -0.51811060550E-02  0.44678352452E-01  0.51126251548E-01  0.51100000000E-03 0.  1.
</event>
<event>
 8    1  0.1066842E+005  0.1043930E+01  0.7957747E-01            NaN
         13   -1    0    0    0    0  0.00000000000E+00  0.00000000000E+00  0.74505805969E-08  0.10566000000E+00  0.10566000000E+00 0. -1.
     999900   -1    0    0    0    0 -0.00000000000E+00 -0.00000000000E+00 -0.74505805969E-08  0.93827000000E+00  0.93827000000E+00 0.  1.
     999902    2    1    2    0    0  0.39231440889E-02 -0.10466289671E-01  0.22612814466E-01  0.10187055346E+01  0.10183931915E+01 0.  0.
     999903    2    3    3    0    0  0.12231258412E+00  0.29841832382E-01 -0.18966691103E-01  0.12889113846E+00  0.20057093726E-01 0.  0.
         14    1    1    2    0    0 -0.39231440889E-02  0.10466289671E-01 -0.22612814466E-01  0.25224465447E-01  0.00000000000E+00 0.  1.
     999901    1    3    3    0    0 -0.11838944003E+00 -0.40308122053E-01  0.41579505569E-01  0.88981439609E+00  0.88000000000E+00 0.  1.
        -11    1    4    4    0    0  0.58674344707E-01  0.71606949247E-02 -0.16117700625E-01  0.61269859417E-01  0.51100000000E-03 0. -1.
         11    1    4    4    0    0  0.63638239409E-01  0.22681137457E-01 -0.28489904780E-02  0.67621279041E-01  0.51100000000E-03 0.  1.
</event>
<event>
 8    1  0.1066842E+005  0.1043930E+01  0.7957747E-01            NaN
         13   -1    0    0    0    0  0.00000000000E+00  0.00000000000E+00  0.74505805969E-08  0.10566000000E+00  0.10566000000E+00 0.  1.
     999900   -1    0    0    0    0 -0.00000000000E+00 -0.00000000000E+00 -0.74505805969E-08  0.93827000000E+00  0.93827000000E+00 0.  1.
     999902    2    1    2    0    0  0.16243182350E-01 -0.16355241214E-01 -0.56350646535E-02  0.10202005069E+01  0.10199244999E+01 0.  0.
     999903    2    3    3    0    0 -0.84612347810E-02  0.12517569729E+00 -0.17927479866E-01  0.12846488565E+00  0.21006775680E-01 0.  0.
         14    1    1    2    0    0 -0.16243182350E-01  0.16355241214E-01  0.56350646535E-02  0.23729493077E-01  0.00000000000E+00 0. -1.
     999901    1    3    3    0    0  0.24704417131E-01 -0.14153093850E+00  0.12292415213E-01  0.89173562128E+00  0.88000000000E+00 0.  1.
        -11    1    4    4    0    0 -0.12067054996E-01  0.70205477260E-01 -0.26111260427E-02  0.71284654406E-01  0.51100000000E-03 0. -1.
         11    1    4    4    0    0  0.36058202154E-02  0.54970220029E-01 -0.15316353824E-01  0.57180231242E-01  0.51100000000E-03 0.  1.
</event>
<event>
 8    1  0.1066842E+005  0.1043930E+01  0.7957747E-01            NaN
         13   -1    0    0    0    0  0.00000000000E+00  0.00000000000E+00  0.74505805969E-08  0.10566000000E+00  0.10566000000E+00 0.  1.
     999900   -1    0    0    0    0 -0.00000000000E+00 -0.00000000000E+00 -0.74505805969E-08  0.93827000000E+00  0.93827000000E+00 0.  1.
     999902    2    1    2    0    0  0.23431055135E-01  0.82190754896E-02 -0.40182240940E-02  0.10187761997E+01  0.10184656260E+01 0.  0.
     999903    2    3    3    0    0 -0.38716438447E-01  0.10621863474E+00  0.59515821337E-01  0.12888699335E+00  0.16981257148E-01 0.  0.
         14    1    1    2    0    0 -0.23431055135E-01 -0.82190754896E-02  0.40182240940E-02  0.25153800340E-01  0.00000000000E+00 0. -1.
     999901    1    3    3    0    0  0.62147493582E-01 -0.97999559250E-01 -0.63534045431E-01  0.88988920631E+00  0.88000000000E+00 0.  1.
        -11    1    4    4    0    0 -0.17756371195E-01  0.71269358898E-01  0.35462925566E-01  0.81562800629E-01  0.51100000000E-03 0.  1.
         11    1    4    4    0    0 -0.20960067252E-01  0.34949275842E-01  0.24052895771E-01  0.47324192725E-01  0.51100000000E-03 0. -1.
</event>
<event>
 8    1  0.1066842E+005  0.1043930E+01  0.7957747E-01            NaN
         13   -1    0    0    0    0  0.00000000000E+00  0.00000000000E+00  0.74505805969E-08  0.10566000000E+00  0.10566000000E+00 0. -1.
     999900   -1    0    0    0    0 -0.00000000000E+00 -0.00000000000E+00 -0.74505805969E-08  0.93827000000E+00  0.93827000000E+00 0.  1.
     999902    2    1    2    0    0  0.41090481235E-02 -0.23134980504E-01  0.34541894401E-03  0.10204304061E+01  0.10201597830E+01 0.  0.
     999903    2    3    3    0    0  0.77422099978E-01 -0.15028628631E-01  0.10327226566E+00  0.13136659945E+00  0.19286818106E-01 0.  0.
         14    1    1    2    0    0 -0.41090481235E-02  0.23134980504E-01 -0.34541894401E-03  0.23499593904E-01  0.00000000000E+00 0. -1.
     999901    1    3    3    0    0 -0.73313051855E-01 -0.81063518730E-02 -0.10292684672E+00  0.88906380665E+00  0.88000000000E+00 0.  1.
        -11    1    4    4    0    0  0.35586457686E-01 -0.14999262293E-01  0.40822441390E-01  0.56197034459E-01  0.51100000000E-03 0.  1.
         11    1    4    4    0    0  0.41835642293E-01 -0.29366338246E-04  0.62449824271E-01  0.75169564991E-01  0.51100000000E-03 0. -1.
</event>
<event>
 8    1  0.1066842E+005  0.1043930E+01  0.7957747E-01            NaN
         13   -1    0    0    0    0  0.00000000000E+00  0.00000000000E+00  0.74505805969E-08  0.10566000000E+00  0.10566000000E+00 0. -1.
     999900   -1    0    0    0    0 -0.00000000000E+00 -0.00000000000E+00 -0.74505805969E-08  0.93827000000E+00  0.93827000000E+00 0.  1.
     999902    2    1    2    0    0 -0.23286952698E-01  0.65096596635E-02 -0.17063116941E-02  0.10196901705E+01  0.10194020181E+01 0.  0.
     999903    2    3    3    0    0 -0.10121073418E+00  0.36998233296E-01  0.74233344960E-01  0.13246500161E+00  0.20588957433E-01 0.  0.
         14    1    1    2    0    0  0.23286952698E-01 -0.65096596635E-02  0.17063116941E-02  0.24239829506E-01  0.00000000000E+00 0. -1.
     999901    1    3    3    0    0  0.77923781481E-01 -0.30488573633E-01 -0.75939656654E-01  0.88722516888E+00  0.88000000000E+00 0.  1.
        -11    1    4    4    0    0 -0.19669507589E-01  0.15912204933E-01  0.20418084746E-01  0.32515336386E-01  0.51100000000E-03 0. -1.
         11    1    4    4    0    0 -0.81541226590E-01  0.21086028364E-01  0.53815260215E-01  0.99949665227E-01  0.51100000000E-03 0.  1.
</event>
<event>
 8    1  0.1066842E+005  0.1043930E+01  0.7957747E-01            NaN
         13   -1    0    0    0    0  0.00000000000E+00  0.00000000000E+00  0.74505805969E-08  0.10566000000E+00  0.10566000000E+00 0.  1.
     999900   -1    0    0    0    0 -0.00000000000E+00 -0.00000000000E+00 -0.74505805969E-08  0.93827000000E+00  0.93827000000E+00 0.  1.
     999902    2    1    2    0    0 -0.28889462289E-02 -0.23596593308E-01  0.65654763132E-02  0.10192672608E+01  0.10189688406E+01 0.  0.
     999903    2    3    3    0    0  0.49462342418E-01  0.96603742727E-01  0.64251900382E-01  0.12768636052E+00  0.19917166813E-01 0.  0.
         14    1    1    2    0    0  0.28889462289E-02  0.23596593308E-01 -0.65654763132E-02  0.24662739209E-01  0.00000000000E+00 0.  1.
     999901    1    3    3    0    0 -0.52351288647E-01 -0.12020033604E+00 -0.57686424069E-01  0.89158090027E+00  0.88000000000E+00 0. -1.
        -11    1    4    4    0    0  0.28824025184E-01  0.71625182623E-01  0.51774259256E-01  0.92961423483E-01  0.51100000000E-03 0.  1.
         11    1    4    4    0    0  0.20638317234E-01  0.24978560104E-01  0.12477641125E-01  0.34724937037E-01  0.51100000000E-03 0. -1.
</event>
<event>
 8    1  0.1066842E+005  0.1043930E+01  0.7957747E-01            NaN
         13   -1    0    0    0    0  0.00000000000E+00  0.00000000000E+00  0.74505805969E-08  0.10566000000E+00  0.10566000000E+00 0. -1.
     999900   -1    0    0    0    0 -0.00000000000E+00 -0.00000000000E+00 -0.74505805969E-08  0.93827000000E+00  0.93827000000E+00 0. -1.
     999902    2    1    2    0    0 -0.33675198542E-02 -0.16667916042E-01 -0.15240658852E-01  0.10210949984E+01  0.10208396341E+01 0.  0.
     999903    2    3    3    0    0 -0.87985832936E-01  0.89776890760E-01  0.25062272403E-01  0.12973924336E+00  0.20068803089E-01 0.  0.
         14    1    1    2    0    0  0.33675198542E-02  0.16667916042E-01  0.15240658852E-01  0.22835001585E-01  0.00000000000E+00 0. -1.
     999901    1    3    3    0    0  0.84618313081E-01 -0.10644480680E+00 -0.40302931255E-01  0.89135575506E+00  0.88000000000E+00 0. -1.
        -11    1    4    4    0    0 -0.28343396129E-01  0.30446073637E-01  0.17959435537E-01  0.45311300465E-01  0.51100000000E-03 0. -1.
         11    1    4    4    0    0 -0.59642436807E-01  0.59330817123E-01  0.71028368664E-02  0.84427942894E-01  0.51100000000E-03 0.  1.
</event>
<event>
 8    1  0.1066842E+005  0.1043930E+01  0.7957747E-01            NaN
         13   -1    0    0    0    0  0.00000000000E+00  0.00000000000E+00  0.74505805969E-08  0.10566000000E+00  0.10566000000E+00 0. -1.
     999900   -1    0    0    0    0 -0.00000000000E+00 -0.00000000000E+00 -0.74505805969E-08  0.93827000000E+00  0.93827000000E+00 0. -1.
     999902    2    1    2    0    0 -0.10821120896E-01  0.20593381097E-01 -0.37680581614E-02  0.10203634503E+01  0.10200912648E+01 0.  0.
     999903    2    3    3    0    0  0.11526689275E+00 -0.47238053121E-01  0.23928368689E-01  0.12836211470E+00  0.19656434924E-01 0.  0.
         14    1    1    2    0    0  0.10821120896E-01 -0.20593381097E-01  0.37680581614E-02  0.23566549700E-01  0.00000000000E+00 0. -1.
     999901    1    3    3    0    0 -0.12608801365E+00  0.67831434218E-01 -0.27696426850E-01  0.89200133560E+00  0.88000000000E+00 0.  1.
        -11    1    4    4    0    0  0.26523699356E-01 -0.77936850162E-02 -0.23626721876E-02  0.27750522419E-01  0.51100000000E-03 0.  1.
         11    1    4    4    0    0  0.88743193399E-01 -0.39444368105E-01  0.26291040877E-01  0.10061159228E+00  0.51100000000E-03 0. -1.
</event>
<event>
 8    1  0.1066842E+005  0.1043930E+01  0.7957747E-01            NaN
         13   -1    0    0    0    0  0.00000000000E+00  0.00000000000E+00  0.74505805969E-08  0.10566000000E+00  0.10566000000E+00 0. -1.
     999900   -1    0    0    0    0 -0.00000000000E+00 -0.00000000000E+00 -0.74505805969E-08  0.93827000000E+00  0.93827000000E+00 0. -1.
     999902    2    1    2    0    0 -0.42932073639E-02  0.10023279943E-01  0.21220062417E-01  0.10200723216E+01  0.10197932891E+01 0.  0.
     999903    2    3    3    0    0  0.10676496578E+00  0.13054988045E-01 -0.67725327263E-01  0.12863842532E+00  0.19797320128E-01 0.  0.
         14    1    1    2    0    0  0.42932073639E-02 -0.10023279943E-01 -0.21220062417E-01  0.23857678414E-01  0.00000000000E+00 0.  1.
     999901    1    3    3    0    0 -0.11105817314E+00 -0.30317081017E-02  0.88945389681E-01  0.89143389627E+00  0.88000000000E+00 0. -1.
        -11    1    4    4    0    0  0.76900294973E-01  0.11874812860E-01 -0.38436268567E-01  0.86788676737E-01  0.51100000000E-03 0.  1.
         11    1    4    4    0    0  0.29864670805E-01  0.11801751854E-02 -0.29289058696E-01  0.41849748578E-01  0.51100000000E-03 0. -1.
</event>
<event>
 8    1  0.1066842E+005  0.1043930E+01  0.7957747E-01            NaN
         13   -1    0    0    0    0  0.00000000000E+00  0.00000000000E+00  0.74505805969E-08  0.10566000000E+00  0.10566000000E+00 0.  1.
     999900   -1    0    0    0    0 -0.00000000000E+00 -0.00000000000E+00 -0.74505805969E-08  0.93827000000E+00  0.93827000000E+00 0.  1.
     999902    2    1    2    0    0 -0.20693169745E-02  0.13314277951E-01 -0.19323996502E-01  0.10203722219E+01  0.10201002413E+01 0.  0.
     999903    2    3    3    0    0 -0.76240653754E-01  0.26054697722E-01 -0.10400650732E+00  0.13310967158E+00  0.20232314363E-01 0.  0.
         14    1    1    2    0    0  0.20693169745E-02 -0.13314277951E-01  0.19323996502E-01  0.23557778140E-01  0.00000000000E+00 0.  1.
     999901    1    3    3    0    0  0.74171336780E-01 -0.12740419772E-01  0.84682510817E-01  0.88726255028E+00  0.88000000000E+00 0. -1.
        -11    1    4    4    0    0 -0.12270534039E-01  0.86869687610E-03 -0.28197604974E-01  0.30768274036E-01  0.51100000000E-03 0.  1.
         11    1    4    4    0    0 -0.63970119716E-01  0.25186000846E-01 -0.75808902345E-01  0.10234139754E+00  0.51100000000E-03 0. -1.
</event>
<event>
 8    1  0.1066842E+005  0.1043930E+01  0.7957747E-01            NaN
         13   -1    0    0    0    0  0.00000000000E+00  0.00000000000E+00  0.74505805969E-08  0.10566000000E+00  0.10566000000E+00 0. -1.
     999900   -1    0    0    0    0 -0.00000000000E+00 -0.00000000000E+00 -0.74505805969E-08  0.93827000000E+00  0.93827000000E+00 0.  1.
     999902    2    1    2    0    0  0.23869752943E-01  0.55292157046E-04 -0.38062910817E-02  0.10197586117E+01  0.10194721036E+01 0.  0.
     999903    2    3    3    0    0 -0.50782769742E-01  0.60119325894E-01 -0.10062208019E+00  0.12927897443E+00  0.19875290146E-01 0.  0.
         14    1    1    2    0    0 -0.23869752943E-01 -0.55292157046E-04  0.38062910817E-02  0.24171388346E-01  0.00000000000E+00 0.  1.
     999901    1    3    3    0    0  0.74652522685E-01 -0.60064033737E-01  0.96815789111E-01  0.89047963723E+00  0.88000000000E+00 0. -1.
        -11    1    4    4    0    0 -0.38996779565E-01  0.32057797352E-01 -0.57856589495E-01  0.76786048580E-01  0.51100000000E-03 0.  1.
         11    1    4    4    0    0 -0.11785990177E-01  0.28061528542E-01 -0.42765490698E-01  0.52492925849E-01  0.51100000000E-03 0. -1.
</event>
<event>
 8    1  0.1066842E+005  0.1043930E+01  0.7957747E-01            NaN
         13   -1    0    0    0    0  0.00000000000E+00  0.00000000000E+00  0.74505805969E-08  0.10566000000E+00  0.10566000000E+00 0.  1.
     999900   -1    0    0    0    0 -0.00000000000E+00 -0.00000000000E+00 -0.74505805969E-08  0.93827000000E+00  0.93827000000E+00 0. -1.
     999902    2    1    2    0    0  0.20664799096E-01  0.71566225438E-02 -0.89360562576E-02  0.10203057694E+01  0.10200322342E+01 0.  0.
     999903    2    3    3    0    0  0.31473592513E-01 -0.86649649634E-01  0.89154325958E-01  0.12983501204E+00  0.20245683648E-01 0.  0.
         14    1    1    2    0    0 -0.20664799096E-01 -0.71566225438E-02  0.89360562576E-02  0.23624230555E-01  0.00000000000E+00 0. -1.
     999901    1    3    3    0    0 -0.10808793418E-01  0.93806272177E-01 -0.98090382215E-01  0.89047075741E+00  0.88000000000E+00 0. -1.
        -11    1    4    4    0    0  0.21281472824E-01 -0.30240658099E-01  0.32383690861E-01  0.49156515769E-01  0.51100000000E-03 0.  1.
         11    1    4    4    0    0  0.10192119689E-01 -0.56408991534E-01  0.56770635097E-01  0.80678496268E-01  0.51100000000E-03 0. -1.
</event>
<event>
 8    1  0.1066842E+005  0.1043930E+01  0.7957747E-01            NaN
         13   -1    0    0    0    0  0.00000000000E+00  0.00000000000E+00  0.74505805969E-08  0.10566000000E+00  0.10566000000E+00 0. -1.
     999900   -1    0    0    0    0 -0.00000000000E+00 -0.00000000000E+00 -0.74505805969E-08  0.93827000000E+00  0.93827000000E+00 0.  1.
     999902    2    1    2    0    0 -0.22557543863E-01  0.18297128761E-01 -0.50522488119E-03  0.10148803363E+01  0.10144644962E+01 0.  0.
     999903    2    3    3    0    0  0.33717119135E-01 -0.11640729337E+00  0.91943318744E-03  0.12285222654E+00  0.20107763066E-01 0.  0.
         14    1    1    2    0    0  0.22557543863E-01 -0.18297128761E-01  0.50522488119E-03  0.29049663650E-01  0.00000000000E+00 0. -1.
     999901    1    3    3    0    0 -0.56274662997E-01  0.13470442213E+00 -0.14246580686E-02  0.89202810981E+00  0.88000000000E+00 0. -1.
        -11    1    4    4    0    0  0.23270469778E-01 -0.10415799500E+00  0.14387354438E-02  0.10673674984E+00  0.51100000000E-03 0.  1.
         11    1    4    4    0    0  0.10446649356E-01 -0.12249298373E-01 -0.51930225637E-03  0.16115476699E-01  0.51100000000E-03 0. -1.
</event>
<event>
 8    1  0.1066842E+005  0.1043930E+01  0.7957747E-01            NaN
         13   -1    0    0    0    0  0.00000000000E+00  0.00000000000E+00  0.74505805969E-08  0.10566000000E+00  0.10566000000E+00 0. -1.
     999900   -1    0    0    0    0 -0.00000000000E+00 -0.00000000000E+00 -0.74505805969E-08  0.93827000000E+00  0.93827000000E+00 0. -1.
     999902    2    1    2    0    0 -0.61298333029E-04 -0.15018020037E-01 -0.17847894380E-01  0.10206042199E+01  0.10203376312E+01 0.  0.
     999903    2    3    3    0    0 -0.79535699329E-02 -0.45972647276E-01  0.11925891899E+00  0.12941470292E+00  0.18674367485E-01 0.  0.
         14    1    1    2    0    0  0.61298333029E-04  0.15018020037E-01  0.17847894380E-01  0.23325780097E-01  0.00000000000E+00 0. -1.
     999901    1    3    3    0    0  0.78922715999E-02  0.30954627239E-01 -0.13710681338E+00  0.89118951698E+00  0.88000000000E+00 0. -1.
        -11    1    4    4    0    0  0.52104585570E-02 -0.23374778690E-01  0.52154665698E-01  0.57392503276E-01  0.51100000000E-03 0. -1.
         11    1    4    4    0    0 -0.13164028490E-01 -0.22597868586E-01  0.67104253297E-01  0.72022199649E-01  0.51100000000E-03 0.  1.
</event>
<event>
 8    1  0.1066842E+005  0.1043930E+01  0.7957747E-01            NaN
         13   -1    0    0    0    0  0.00000000000E+00  0.00000000000E+00  0.74505805969E-08  0.10566000000E+00  0.10566000000E+00 0. -1.
     999900   -1    0    0    0    0 -0.00000000000E+00 -0.00000000000E+00 -0.74505805969E-08  0.93827000000E+00  0.93827000000E+00 0. -1.
     999902    2    1    2    0    0  0.22244867142E-01  0.11903390889E-02  0.49120406020E-02  0.10211181793E+01  0.10208633390E+01 0.  0.
     999903    2    3    3    0    0  0.76945989282E-01 -0.86889902155E-01  0.62097466096E-01  0.13318771211E+00  0.20305935030E-01 0.  0.
         14    1    1    2    0    0 -0.22244867142E-01 -0.11903390889E-02 -0.49120406020E-02  0.22811820712E-01  0.00000000000E+00 0. -1.
     999901    1    3    3    0    0 -0.54701122140E-01  0.88080241244E-01 -0.57185425494E-01  0.88793046718E+00  0.88000000000E+00 0.  1.
        -11    1    4    4    0    0  0.27149888870E-01 -0.23051105070E-01  0.10326277354E-01  0.37085887283E-01  0.51100000000E-03 0. -1.
         11    1    4    4    0    0  0.49796100412E-01 -0.63838797085E-01  0.51771188743E-01  0.96101824824E-01  0.51100000000E-03 0.  1.
</event>
<event>
 8    1  0.1066842E+005  0.1043930E+01  0.7957747E-01            NaN
         13   -1    0    0    0    0  0.00000000000E+00  0.00000000000E+00  0.74505805969E-08  0.10566000000E+00  0.10566000000E+00 0. -1.
     999900   -1    0    0    0    0 -0.00000000000E+00 -0.00000000000E+00 -0.74505805969E-08  0.93827000000E+00  0.93827000000E+00 0.  1.
     999902    2    1    2    0    0  0.21305835897E-01  0.84656812117E-02 -0.72205687687E-02  0.10198937146E+01  0.10196104384E+01 0.  0.
     999903    2    3    3    0    0 -0.65628137867E-01  0.88958864131E-01 -0.65593178890E-01  0.13003752966E+00  0.19661180440E-01 0.  0.
         14    1    1    2    0    0 -0.21305835897E-01 -0.84656812117E-02  0.72205687687E-02  0.24036285383E-01  0.00000000000E+00 0. -1.
     999901    1    3    3    0    0  0.86933973764E-01 -0.80493182919E-01  0.58372610122E-01  0.88985618496E+00  0.88000000000E+00 0.  1.
        -11    1    4    4    0    0 -0.22593136396E-01  0.46749625851E-01 -0.27986067800E-01  0.58986934497E-01  0.51100000000E-03 0. -1.
         11    1    4    4    0    0 -0.43035001471E-01  0.42209238280E-01 -0.37607111090E-01  0.71050595165E-01  0.51100000000E-03 0.  1.
</event>
<event>
 8    1  0.1066842E+005  0.1043930E+01  0.7957747E-01            NaN
         13   -1    0    0    0    0  0.00000000000E+00  0.00000000000E+00  0.74505805969E-08  0.10566000000E+00  0.10566000000E+00 0.  1.
     999900   -1    0    0    0    0 -0.00000000000E+00 -0.00000000000E+00 -0.74505805969E-08  0.93827000000E+00  0.93827000000E+00 0.  1.
     999902    2    1    2    0    0  0.21813242772E-01 -0.20922059211E-02 -0.18677170808E-02  0.10219372000E+01  0.10217005224E+01 0.  0.
     999903    2    3    3    0    0 -0.71345335300E-01 -0.78289676138E-01  0.73658615506E-01  0.13054009315E+00  0.19892059306E-01 0.  0.
         14    1    1    2    0    0 -0.21813242772E-01  0.20922059211E-02  0.18677170808E-02  0.21992800025E-01  0.00000000000E+00 0. -1.
     999901    1    3    3    0    0  0.93158578072E-01  0.76197470217E-01 -0.75526332587E-01  0.89139710682E+00  0.88000000000E+00 0.  1.
        -11    1    4    4    0    0 -0.33527529322E-01 -0.48933887896E-01  0.47421578451E-01  0.75945294988E-01  0.51100000000E-03 0.  1.
         11    1    4    4    0    0 -0.37817805978E-01 -0.29355788241E-01  0.26237037056E-01  0.54594798166E-01  0.51100000000E-03 0. -1.
</event>
<event>
 8    1  0.1066842E+005  0.1043930E+01  0.7957747E-01            NaN
         13   -1    0    0    0    0  0.00000000000E+00  0.00000000000E+00  0.74505805969E-08  0.10566000000E+00  0.10566000000E+00 0. -1.
     999900   -1    0    0    0    0 -0.00000000000E+00 -0.00000000000E+00 -0.74505805969E-08  0.93827000000E+00  0.93827000000E+00 0.  1.
     999902    2    1    2    0    0 -0.21261963421E-01 -0.82139586972E-02 -0.81049033848E-02  0.10197384795E+01  0.10194514882E+01 0.  0.
     999903    2    3    3    0    0 -0.12556807548E-01 -0.53122257034E-01  0.11618548559E+00  0.12982801444E+00  0.19406150179E-01 0.  0.
         14    1    1    2    0    0  0.21261963421E-01  0.82139586972E-02  0.81049033848E-02  0.24191520516E-01  0.00000000000E+00 0. -1.
     999901    1    3    3    0    0 -0.87051558732E-02  0.44908298336E-01 -0.12429038897E+00  0.88991046504E+00  0.88000000000E+00 0.  1.
        -11    1    4    4    0    0 -0.17209282259E-01 -0.41768955445E-01  0.83984683755E-01  0.95365052620E-01  0.51100000000E-03 0. -1.
         11    1    4    4    0    0  0.46524747115E-02 -0.11353301588E-01  0.32200801833E-01  0.34462961823E-01  0.51100000000E-03 0.  1.
</event>
<event>
 8    1  0.1066842E+005  0.1043930E+01  0.7957747E-01            NaN
         13   -1    0    0    0    0  0.00000000000E+00  0.00000000000E+00  0.74505805969E-08  0.10566000000E+00  0.10566000000E+00 0. -1.
     999900   -1    0    0    0    0 -0.00000000000E+00 -0.00000000000E+00 -0.74505805969E-08  0.93827000000E+00  0.93827000000E+00 0.  1.
     999902    2    1    2    0    0 -0.17122422801E-01  0.36415898358E-02  0.16353372316E-01  0.10199743884E+01  0.10196930331E+01 0.  0.
     999903    2    3    3    0    0  0.26122769299E-01 -0.12474355127E+00  0.11874750484E-01  0.12959640738E+00  0.20269840871E-01 0.  0.
         14    1    1    2    0    0  0.17122422801E-01 -0.36415898358E-02 -0.16353372316E-01  0.23955611560E-01  0.00000000000E+00 0.  1.
     999901    1    3    3    0    0 -0.43245192100E-01  0.12838514110E+00  0.44786218328E-02  0.89037798106E+00  0.88000000000E+00 0.  1.
        -11    1    4    4    0    0 -0.10220451538E-02 -0.40784377514E-01  0.29630768044E-02  0.40907835076E-01  0.51100000000E-03 0. -1.
         11    1    4    4    0    0  0.27144814453E-01 -0.83959173754E-01  0.89116736792E-02  0.88688572307E-01  0.51100000000E-03 0.  1.
</event>
<event>
 8    1  0.1066842E+005  0.1043930E+01  0.7957747E-01            NaN
         13   -1    0    0    0    0  0.00000000000E+00  0.00000000000E+00  0.74505805969E-08  0.10566000000E+00  0.10566000000E+00 0.  1.
     999900   -1    0    0    0    0 -0.00000000000E+00 -0.00000000000E+00 -0.74505805969E-08  0.93827000000E+00  0.93827000000E+00 0. -1.
     999902    2    1    2    0    0  0.62293325286E-02  0.16882516381E-01 -0.15659649920E-01  0.10200752609E+01  0.10197962979E+01 0.  0.
     999903    2    3    3    0    0  0.52999788289E-02 -0.10409060101E+00  0.70787145243E-01  0.12760206395E+00  0.20211971687E-01 0.  0.
         14    1    1    2    0    0 -0.62293325286E-02 -0.16882516381E-01  0.15659649920E-01  0.23854739125E-01  0.00000000000E+00 0.  1.
     999901    1    3    3    0    0  0.92935369965E-03  0.12097311739E+00 -0.86446795163E-01  0.89247319692E+00  0.88000000000E+00 0. -1.
        -11    1    4    4    0    0 -0.34074430045E-02 -0.22868886844E-01  0.24583188360E-01  0.33751902528E-01  0.51100000000E-03 0.  1.
         11    1    4    4    0    0  0.87074218334E-02 -0.81221714165E-01  0.46203956882E-01  0.93850161425E-01  0.51100000000E-03 0. -1.
</event>
<event>
 8    1  0.1066842E+005  0.1043930E+01  0.7957747E-01            NaN
         13   -1    0    0    0    0  0.00000000000E+00  0.00000000000E+00  0.74505805969E-08  0.10566000000E+00  0.10566000000E+00 0. -1.
     999900   -1    0    0    0    0 -0.00000000000E+00 -0.00000000000E+00 -0.74505805969E-08  0.93827000000E+00  0.93827000000E+00 0. -1.
     999902    2    1    2    0    0  0.33605494900E-02 -0.18937109405E-01 -0.13770074947E-01  0.10202757748E+01  0.10200015364E+01 0.  0.
     999903    2    3    3    0    0 -0.85373109482E-01 -0.24066787730E-01  0.92147906015E-01  0.12947916810E+00  0.20145478241E-01 0.  0.
         14    1    1    2    0    0 -0.33605494900E-02  0.18937109405E-01  0.13770074947E-01  0.23654225194E-01  0.00000000000E+00 0. -1.
     999901    1    3    3    0    0  0.88733658972E-01  0.51296783240E-02 -0.10591798096E+00  0.89079660671E+00  0.88000000000E+00 0. -1.
        -11    1    4    4    0    0 -0.27929475265E-01 -0.68615973765E-02  0.44032354635E-01  0.52595118431E-01  0.51100000000E-03 0.  1.
         11    1    4    4    0    0 -0.57443634218E-01 -0.17205190353E-01  0.48115551381E-01  0.76884049665E-01  0.51100000000E-03 0. -1.
</event>
<event>
 8    1  0.1066842E+005  0.1043930E+01  0.7957747E-01            NaN
         13   -1    0    0    0    0  0.00000000000E+00  0.00000000000E+00  0.74505805969E-08  0.10566000000E+00  0.10566000000E+00 0. -1.
     999900   -1    0    0    0    0 -0.00000000000E+00 -0.00000000000E+00 -0.74505805969E-08  0.93827000000E+00  0.93827000000E+00 0.  1.
     999902    2    1    2    0    0  0.14402177478E-01  0.17658821014E-01  0.30505616469E-02  0.10209395106E+01  0.10206806169E+01 0.  0.
     999903    2    3    3    0    0 -0.10464632032E+00  0.72575061632E-01 -0.22479129037E-01  0.13086080431E+00  0.20031149117E-01 0.  0.
         14    1    1    2    0    0 -0.14402177478E-01 -0.17658821014E-01 -0.30505616469E-02  0.22990489383E-01  0.00000000000E+00 0.  1.
     999901    1    3    3    0    0  0.11904849780E+00 -0.54916240618E-01  0.25529690684E-01  0.89007870631E+00  0.88000000000E+00 0. -1.
        -11    1    4    4    0    0 -0.58493851733E-01  0.45334286888E-01 -0.22203184272E-01  0.77265585943E-01  0.51100000000E-03 0. -1.
         11    1    4    4    0    0 -0.46152468588E-01  0.27240774744E-01 -0.27594476443E-03  0.53595218368E-01  0.51100000000E-03 0.  1.
</event>
<event>
 8    1  0.1066842E+005  0.1043930E+01  0.7957747E-01            NaN
         13   -1    0    0    0    0  0.00000000000E+00  0.00000000000E+00  0.74505805969E-08  0.10566000000E+00  0.10566000000E+00 0.  1.
     999900   -1    0    0    0    0 -0.00000000000E+00 -0.00000000000E+00 -0.74505805969E-08  0.93827000000E+00  0.93827000000E+00 0. -1.
     999902    2    1    2    0    0  0.41537052006E-02 -0.21776459223E-01  0.70356323541E-02  0.10206712905E+01  0.10204062504E+01 0.  0.
     999903    2    3    3    0    0 -0.87145598393E-02 -0.80254232146E-01 -0.10245120365E+00  0.13186725734E+00  0.19391727573E-01 0.  0.
         14    1    1    2    0    0 -0.41537052006E-02  0.21776459223E-01 -0.70356323541E-02  0.23258709461E-01  0.00000000000E+00 0. -1.
     999901    1    3    3    0    0  0.12868265040E-01  0.58477772923E-01  0.10948683601E+00  0.88880403320E+00  0.88000000000E+00 0.  1.
        -11    1    4    4    0    0  0.29747789362E-02 -0.37624349811E-01 -0.36767161458E-01  0.52692753687E-01  0.51100000000E-03 0.  1.
         11    1    4    4    0    0 -0.11689338776E-01 -0.42629882335E-01 -0.65684042194E-01  0.79174503654E-01  0.51100000000E-03 0. -1.
</event>
<event>
 8    1  0.1066842E+005  0.1043930E+01  0.7957747E-01            NaN
         13   -1    0    0    0    0  0.00000000000E+00  0.00000000000E+00  0.74505805969E-08  0.10566000000E+00  0.10566000000E+00 0.  1.
     999900   -1    0    0    0    0 -0.00000000000E+00 -0.00000000000E+00 -0.74505805969E-08  0.93827000000E+00  0.93827000000E+00 0. -1.
     999902    2    1    2    0    0 -0.24632638860E-02  0.22879762039E-01 -0.64645518378E-02  0.10200272468E+01  0.10197471464E+01 0.  0.
     999903    2    3    3    0    0 -0.74778567322E-01  0.10425690122E+00  0.27379577762E-01  0.13267322106E+00  0.19778946545E-01 0.  0.
         14    1    1    2    0    0  0.24632638860E-02 -0.22879762039E-01  0.64645518378E-02  0.23902753197E-01  0.00000000000E+00 0. -1.
     999901    1    3    3    0    0  0.72315303436E-01 -0.81377139178E-01 -0.33844129600E-01  0.88735402574E+00  0.88000000000E+00 0.  1.
        -11    1    4    4    0    0 -0.36866009962E-01  0.66701967983E-01  0.12149800676E-01  0.77175993682E-01  0.51100000000E-03 0. -1.
         11    1    4    4    0    0 -0.37912557360E-01  0.37554933234E-01  0.15229777086E-01  0.55497227380E-01  0.51100000000E-03 0.  1.
</event>
<event>
 7    1  0.1066842E+005  0.1043930E+01  0.7957747E-01            NaN
         13   -1    0    0    0    0  0.00000000000E+00  0.00000000000E+00  0.74505805969E-08  0.10566000000E+00  0.10566000000E+00 0. -1.
     999900   -1    0    0    0    0 -0.00000000000E+00 -0.00000000000E+00 -0.74505805969E-08  0.93827000000E+00  0.93827000000E+00 0.  1.
     999903    2    1    2    0    0 -0.58405848188E-01  0.92348765128E-01  0.23640518356E-01  0.11367942805E+00  0.20605842126E-01 0.  0.
         14    1    1    2    0    0  0.30057715062E-02  0.68925683600E-02  0.39963189547E-01  0.40664464582E-01  0.00000000000E+00 0. -1.
     999901    1    1    2    0    0  0.55400076682E-01 -0.99241333488E-01 -0.63603707903E-01  0.88958610737E+00  0.88000000000E+00 0. -1.
        -11    1    3    3    0    0 -0.10851804373E-01  0.67384689170E-02  0.61923855532E-02  0.14204766149E-01  0.51100000000E-03 0.  1.
         11    1    3    3    0    0 -0.47554043815E-01  0.85610296211E-01  0.17448132803E-01  0.99474661898E-01  0.51100000000E-03 0. -1.
</event>
<event>
 8    1  0.1066842E+005  0.1043930E+01  0.7957747E-01            NaN
         13   -1    0    0    0    0  0.00000000000E+00  0.00000000000E+00  0.74505805969E-08  0.10566000000E+00  0.10566000000E+00 0.  1.
     999900   -1    0    0    0    0 -0.00000000000E+00 -0.00000000000E+00 -0.74505805969E-08  0.93827000000E+00  0.93827000000E+00 0. -1.
     999902    2    1    2    0    0 -0.79364671550E-02 -0.20951760271E-01  0.18667167410E-02  0.10214478204E+01  0.10212003728E+01 0.  0.
     999903    2    3    3    0    0 -0.88022072749E-01  0.70824864200E-01 -0.62283136988E-01  0.13074480772E+00  0.21236028626E-01 0.  0.
         14    1    1    2    0    0  0.79364671550E-02  0.20951760271E-01 -0.18667167410E-02  0.22482179626E-01  0.00000000000E+00 0.  1.
     999901    1    3    3    0    0  0.80085605594E-01 -0.91776624472E-01  0.64149853729E-01  0.89070301266E+00  0.88000000000E+00 0.  1.
        -11    1    4    4    0    0 -0.66760848819E-01  0.41194783775E-01 -0.44008180577E-01  0.89949998466E-01  0.51100000000E-03 0. -1.
         11    1    4    4    0    0 -0.21261223930E-01  0.29630080425E-01 -0.18274956411E-01  0.40794809251E-01  0.51100000000E-03 0.  1.
</event>
<event>
 8    1  0.1066842E+005  0.1043930E+01  0.7957747E-01            NaN
         13   -1    0    0    0    0  0.00000000000E+00  0.00000000000E+00  0.74505805969E-08  0.10566000000E+00  0.10566000000E+00 0. -1.
     999900   -1    0    0    0    0 -0.00000000000E+00 -0.00000000000E+00 -0.74505805969E-08  0.93827000000E+00  0.93827000000E+00 0. -1.
     999902    2    1    2    0    0  0.67279986908E-02 -0.41411258424E-02  0.23388458151E-01  0.10192432654E+01  0.10189442572E+01 0.  0.
     999903    2    3    3    0    0  0.91468549900E-01 -0.83557692353E-01  0.39659621637E-01  0.13146361775E+00  0.19010881912E-01 0.  0.
         14    1    1    2    0    0 -0.67279986908E-02  0.41411258424E-02 -0.23388458151E-01  0.24686734581E-01  0.00000000000E+00 0.  1.
     999901    1    3    3    0    0 -0.84740551209E-01  0.79416566511E-01 -0.16271163486E-01  0.88777964767E+00  0.88000000000E+00 0. -1.
        -11    1    4    4    0    0  0.64027830213E-01 -0.46154767757E-01  0.23973504361E-01  0.82491306578E-01  0.51100000000E-03 0.  1.
         11    1    4    4    0    0  0.27440719686E-01 -0.37402924596E-01  0.15686117276E-01  0.48972311171E-01  0.51100000000E-03 0. -1.
</event>
<event>
 8    1  0.1066842E+005  0.1043930E+01  0.7957747E-01            NaN
         13   -1    0    0    0    0  0.00000000000E+00  0.00000000000E+00  0.74505805969E-08  0.10566000000E+00  0.10566000000E+00 0. -1.
     999900   -1    0    0    0    0 -0.00000000000E+00 -0.00000000000E+00 -0.74505805969E-08  0.93827000000E+00  0.93827000000E+00 0. -1.
     999902    2    1    2    0    0 -0.15859856880E-01 -0.61955732907E-02 -0.16719253520E-01  0.10200667725E+01  0.10197876086E+01 0.  0.
     999903    2    3    3    0    0 -0.38693468518E-02 -0.42178316140E-01  0.11989618824E+00  0.12871818241E+00  0.19982300465E-01 0.  0.
         14    1    1    2    0    0  0.15859856880E-01  0.61955732907E-02  0.16719253520E-01  0.23863227504E-01  0.00000000000E+00 0. -1.
     999901    1    3    3    0    0 -0.11990510029E-01  0.35982742849E-01 -0.13661544176E+00  0.89134859008E+00  0.88000000000E+00 0. -1.
        -11    1    4    4    0    0  0.37801961518E-02 -0.28706504001E-01  0.95676384603E-01  0.99962917857E-01  0.51100000000E-03 0.  1.
         11    1    4    4    0    0 -0.76495430036E-02 -0.13471812139E-01  0.24219803638E-01  0.28755264556E-01  0.51100000000E-03 0. -1.
</event>
<event>
 8    1  0.1066842E+005  0.1043930E+01  0.7957747E-01            NaN
         13   -1    0    0    0    0  0.00000000000E+00  0.00000000000E+00  0.74505805969E-08  0.10566000000E+00  0.10566000000E+00 0. -1.
     999900   -1    0    0    0    0 -0.00000000000E+00 -0.00000000000E+00 -0.74505805969E-08  0.93827000000E+00  0.93827000000E+00 0.  1.
     999902    2    1    2    0    0 -0.16725919881E-01 -0.12065394388E-01  0.12477551151E-01  0.10198256556E+01  0.10195407536E+01 0.  0.
     999903    2    3    3    0    0  0.40212810560E-01  0.11955480676E+00 -0.77887509389E-02  0.12798675791E+00  0.20236689656E-01 0.  0.
         14    1    1    2    0    0  0.16725919881E-01  0.12065394388E-01 -0.12477551151E-01  0.24104344429E-01  0.00000000000E+00 0.  1.
     999901    1    3    3    0    0 -0.56938730441E-01 -0.13162020115E+00  0.20266302090E-01  0.89183889766E+00  0.88000000000E+00 0.  1.
        -11    1    4    4    0    0  0.19085907776E-01  0.30548710376E-01 -0.57727658879E-02  0.36483990027E-01  0.51100000000E-03 0.  1.
         11    1    4    4    0    0  0.21126902784E-01  0.89006096381E-01 -0.20159850510E-02  0.91502767887E-01  0.51100000000E-03 0. -1.
</event>
<event>
 8    1  0.1066842E+005  0.1043930E+01  0.7957747E-01            NaN
         13   -1    0    0    0    0  0.00000000000E+00  0.00000000000E+00  0.74505805969E-08  0.10566000000E+00  0.10566000000E+00 0. -1.
     999900   -1    0    0    0    0 -0.00000000000E+00 -0.00000000000E+00 -0.74505805969E-08  0.93827000000E+00  0.93827000000E+00 0.  1.
     999902    2    1    2    0    0 -0.19800552659E-01  0.11289783180E-01 -0.21135305065E-02  0.10210392136E+01  0.10207825859E+01 0.  0.
     999903    2    3    3    0    0  0.36677877192E-01  0.71592735603E-02  0.12294588902E+00  0.13039521484E+00  0.22151716706E-01 0.  0.
         14    1    1    2    0    0  0.19800552659E-01 -0.11289783180E-01  0.21135305065E-02  0.22890786379E-01  0.00000000000E+00 0.  1.
     999901    1    3    3    0    0 -0.56478429851E-01  0.41305096195E-02 -0.12505941953E+00  0.89064399878E+00  0.88000000000E+00 0.  1.
        -11    1    4    4    0    0  0.18672594413E-01 -0.70352635056E-02  0.67621432750E-01  0.70505886299E-01  0.51100000000E-03 0.  1.
         11    1    4    4    0    0  0.18005282779E-01  0.14194537066E-01  0.55324456272E-01  0.59889328543E-01  0.51100000000E-03 0. -1.
</event>
<event>
 8    1  0.1066842E+005  0.1043930E+01  0.7957747E-01            NaN
         13   -1    0    0    0    0  0.00000000000E+00  0.00000000000E+00  0.74505805969E-08  0.10566000000E+00  0.10566000000E+00 0.  1.
     999900   -1    0    0    0    0 -0.00000000000E+00 -0.00000000000E+00 -0.74505805969E-08  0.93827000000E+00  0.93827000000E+00 0. -1.
     999902    2    1    2    0    0 -0.10102046094E-01 -0.21614077239E-01 -0.30561424868E-02  0.10198767325E+01  0.10195930511E+01 0.  0.
     999903    2    3    3    0    0  0.10286721047E+00 -0.71343891083E-01  0.31155803254E-01  0.13060424078E+00  0.20375717139E-01 0.  0.
         14    1    1    2    0    0  0.10102046094E-01  0.21614077239E-01  0.30561424868E-02  0.24053267492E-01  0.00000000000E+00 0. -1.
     999901    1    3    3    0    0 -0.11296925656E+00  0.49729813845E-01 -0.34211945741E-01  0.88927249173E+00  0.88000000000E+00 0. -1.
        -11    1    4    4    0    0  0.41881927847E-01 -0.17620176526E-01  0.84811185988E-02  0.46225068899E-01  0.51100000000E-03 0.  1.
         11    1    4    4    0    0  0.60985282620E-01 -0.53723714557E-01  0.22674684655E-01  0.84379171881E-01  0.51100000000E-03 0. -1.
</event>
<event>
 8    1  0.1066842E+005  0.1043930E+01  0.7957747E-01            NaN
         13   -1    0    0    0    0  0.00000000000E+00  0.00000000000E+00  0.74505805969E-08  0.10566000000E+00  0.10566000000E+00 0. -1.
     999900   -1    0    0    0    0 -0.00000000000E+00 -0.00000000000E+00 -0.74505805969E-08  0.93827000000E+00  0.93827000000E+00 0. -1.
     999902    2    1    2    0    0 -0.84075859769E-02  0.22499933020E-01 -0.51355945494E-02  0.10193676544E+01  0.10190716884E+01 0.  0.
     999903    2    3    3    0    0 -0.18948586440E-01  0.11473698649E+00 -0.60628662449E-01  0.13274582564E+00  0.20542505178E-01 0.  0.
         14    1    1    2    0    0  0.84075859769E-02 -0.22499933020E-01  0.51355945494E-02  0.24562345556E-01  0.00000000000E+00 0.  1.
     999901    1    3    3    0    0  0.10541000463E-01 -0.92237053467E-01  0.55493067899E-01  0.88662182880E+00  0.88000000000E+00 0.  1.
        -11    1    4    4    0    0 -0.23318491420E-01  0.93267653985E-01 -0.48083384405E-01  0.10749362911E+00  0.51100000000E-03 0.  1.
         11    1    4    4    0    0  0.43699049804E-02  0.21469332501E-01 -0.12545278044E-01  0.25252196533E-01  0.51100000000E-03 0. -1.
</event>
<event>
 8    1  0.1066842E+005  0.1043930E+01  0.7957747E-01            NaN
         13   -1    0    0    0    0  0.00000000000E+00  0.00000000000E+00  0.74505805969E-08  0.10566000000E+00  0.10566000000E+00 0. -1.
     999900   -1    0    0    0    0 -0.00000000000E+00 -0.00000000000E+00 -0.74505805969E-08  0.93827000000E+00  0.93827000000E+00 0.  1.
     999902    2    1    2    0    0 -0.53217868298E-02  0.12412798391E-01 -0.22448705950E-01  0.10177318440E+01  0.10173945955E+01 0.  0.
     999903    2    3    3    0    0 -0.82815511938E-01 -0.71664614057E-01  0.60046164002E-01  0.12650813904E+00  0.20113217206E-01 0.  0.
         14    1    1    2    0    0  0.53217868298E-02 -0.12412798391E-01  0.22448705950E-01  0.26198156000E-01  0.00000000000E+00 0. -1.
     999901    1    3    3    0    0  0.77493725108E-01  0.84077412448E-01 -0.82494869952E-01  0.89122370496E+00  0.88000000000E+00 0.  1.
        -11    1    4    4    0    0 -0.15023514275E-01 -0.20684555897E-01  0.71789397924E-02  0.26558522763E-01  0.51100000000E-03 0.  1.
         11    1    4    4    0    0 -0.67791997663E-01 -0.50980058160E-01  0.52867224209E-01  0.99949616276E-01  0.51100000000E-03 0. -1.
</event>
<event>
 8    1  0.1066842E+005  0.1043930E+01  0.7957747E-01            NaN
         13   -1    0    0    0    0  0.00000000000E+00  0.00000000000E+00  0.74505805969E-08  0.10566000000E+00  0.10566000000E+00 0. -1.
     999900   -1    0    0    0    0 -0.00000000000E+00 -0.00000000000E+00 -0.74505805969E-08  0.93827000000E+00  0.93827000000E+00 0. -1.
     999902    2    1    2    0    0  0.27364834767E-02 -0.22794960545E-01 -0.18516128943E-02  0.10208968274E+01  0.10206369605E+01 0.  0.
     999903    2    3    3    0    0  0.94557099280E-01 -0.10395689783E-01 -0.88686659928E-01  0.13178204700E+00  0.21261911277E-01 0.  0.
         14    1    1    2    0    0 -0.27364834767E-02  0.22794960545E-01  0.18516128943E-02  0.23033172564E-01  0.00000000000E+00 0.  1.
     999901    1    3    3    0    0 -0.91820615803E-01 -0.12399270762E-01  0.86835047034E-01  0.88911478044E+00  0.88000000000E+00 0.  1.
        -11    1    4    4    0    0  0.55506663406E-01 -0.53931386934E-02 -0.37505747183E-01  0.67208762971E-01  0.51100000000E-03 0. -1.
         11    1    4    4    0    0  0.39050435874E-01 -0.50025510895E-02 -0.51180912745E-01  0.64573284025E-01  0.51100000000E-03 0.  1.
</event>
<event>
 8    1  0.1066842E+005  0.1043930E+01  0.7957747E-01            NaN
         13   -1    0    0    0    0  0.00000000000E+00  0.00000000000E+00  0.74505805969E-08  0.10566000000E+00  0.10566000000E+00 0. -1.
     999900   -1    0    0    0    0 -0.00000000000E+00 -0.00000000000E+00 -0.74505805969E-08  0.93827000000E+00  0.93827000000E+00 0. -1.
     999902    2    1    2    0    0 -0.17969630292E-02  0.22157066799E-01  0.70388874370E-02  0.10206123967E+01  0.10203459971E+01 0.  0.
     999903    2    3    3    0    0 -0.38877620124E-01  0.81417422775E-01 -0.94331002532E-01  0.13203903482E+00  0.19892274903E-01 0.  0.
         14    1    1    2    0    0  0.17969630292E-02 -0.22157066799E-01 -0.70388874370E-02  0.23317603256E-01  0.00000000000E+00 0.  1.
     999901    1    3    3    0    0  0.37080657095E-01 -0.59260355976E-01  0.10136988997E+00  0.88857336192E+00  0.88000000000E+00 0.  1.
        -11    1    4    4    0    0 -0.26051541707E-01  0.71702407085E-01 -0.77559966948E-01  0.10879213023E+00  0.51100000000E-03 0.  1.
         11    1    4    4    0    0 -0.12826078417E-01  0.97150156900E-02 -0.16771035584E-01  0.23246904589E-01  0.51100000000E-03 0. -1.
</event>
<event>
 8    1  0.1066842E+005  0.1043930E+01  0.7957747E-01            NaN
         13   -1    0    0    0    0  0.00000000000E+00  0.00000000000E+00  0.74505805969E-08  0.10566000000E+00  0.10566000000E+00 0. -1.
     999900   -1    0    0    0    0 -0.00000000000E+00 -0.00000000000E+00 -0.74505805969E-08  0.93827000000E+00  0.93827000000E+00 0.  1.
     999902    2    1    2    0    0  0.33813108410E-03  0.17622695207E-01  0.16178130632E-01  0.10200049999E+01  0.10197243717E+01 0.  0.
     999903    2    3    3    0    0  0.35569704782E-01 -0.12141894705E+00 -0.40636396348E-02  0.12816220471E+00  0.20031798431E-01 0.  0.
         14    1    1    2    0    0 -0.33813108410E-03 -0.17622695207E-01 -0.16178130632E-01  0.23925000099E-01  0.00000000000E+00 0.  1.
     999901    1    3    3    0    0 -0.35231573698E-01  0.13904164226E+00  0.20241770266E-01  0.89184279519E+00  0.88000000000E+00 0.  1.
        -11    1    4    4    0    0  0.83526979578E-02 -0.21105871966E-01  0.66820097698E-02  0.23667187627E-01  0.51100000000E-03 0. -1.
         11    1    4    4    0    0  0.27217006824E-01 -0.10031307508E+00 -0.10745649405E-01  0.10449501708E+00  0.51100000000E-03 0.  1.
</event>
<event>
 8    1  0.1066842E+005  0.1043930E+01  0.7957747E-01            NaN
         13   -1    0    0    0    0  0.00000000000E+00  0.00000000000E+00  0.74505805969E-08  0.10566000000E+00  0.10566000000E+00 0. -1.
     999900   -1    0    0    0    0 -0.00000000000E+00 -0.00000000000E+00 -0.74505805969E-08  0.93827000000E+00  0.93827000000E+00 0. -1.
     999902    2    1    2    0    0 -0.15679468623E-01 -0.11915782608E-01  0.10896815092E-01  0.10214228413E+01  0.10211748374E+01 0.  0.
     999903    2    3    3    0    0 -0.59328017080E-01 -0.10922011823E+00  0.47789184098E-01  0.13421690336E+00  0.16778652914E-01 0.  0.
         14    1    1    2    0    0  0.15679468623E-01  0.11915782608E-01 -0.10896815092E-01  0.22507158652E-01  0.00000000000E+00 0.  1.
     999901    1    3    3    0    0  0.43648548457E-01  0.97304335622E-01 -0.36892369007E-01  0.88720593799E+00  0.88000000000E+00 0.  1.
        -11    1    4    4    0    0 -0.17834739267E-01 -0.34486858529E-01  0.23357697307E-01  0.45312961505E-01  0.51100000000E-03 0.  1.
         11    1    4    4    0    0 -0.41493277813E-01 -0.74733259701E-01  0.24431486791E-01  0.88903941853E-01  0.51100000000E-03 0. -1.
</event>
<event>
 8    1  0.1066842E+005  0.1043930E+01  0.7957747E-01            NaN
         13   -1    0    0    0    0  0.00000000000E+00  0.00000000000E+00  0.74505805969E-08  0.10566000000E+00  0.10566000000E+00 0. -1.
     999900   -1    0    0    0    0 -0.00000000000E+00 -0.00000000000E+00 -0.74505805969E-08  0.93827000000E+00  0.93827000000E+00 0.  1.
     999902    2    1    2    0    0  0.16882648679E-01  0.18218550055E-02  0.19367661528E-01  0.10181724905E+01  0.10178466344E+01 0.  0.
     999903    2    3    3    0    0  0.39203449923E-01 -0.13925071372E-01 -0.11839379014E+00  0.12703591207E+00  0.19753868315E-01 0.  0.
         14    1    1    2    0    0 -0.16882648679E-01 -0.18218550055E-02 -0.19367661528E-01  0.25757509490E-01  0.00000000000E+00 0.  1.
     999901    1    3    3    0    0 -0.22320801243E-01  0.15746926378E-01  0.13776145167E+00  0.89113657844E+00  0.88000000000E+00 0. -1.
        -11    1    4    4    0    0  0.35288447375E-01 -0.79070123829E-02 -0.77629684191E-01  0.85641253795E-01  0.51100000000E-03 0.  1.
         11    1    4    4    0    0  0.39150025476E-02 -0.60180589892E-02 -0.40764105953E-01  0.41394658280E-01  0.51100000000E-03 0. -1.
</event>
<event>
 8    1  0.1066842E+005  0.1043930E+01  0.7957747E-01            NaN
         13   -1    0    0    0    0  0.00000000000E+00  0.00000000000E+00  0.74505805969E-08  0.10566000000E+00  0.10566000000E+00 0.  1.
     999900   -1    0    0    0    0 -0.00000000000E+00 -0.00000000000E+00 -0.74505805969E-08  0.93827000000E+00  0.93827000000E+00 0.  1.
     999902    2    1    2    0    0  0.10558067208E-01  0.40031428878E-02  0.21980164167E-01  0.10192191612E+01  0.10189195616E+01 0.  0.
     999903    2    3    3    0    0  0.11023747510E+00  0.47758895694E-01  0.50845704620E-01  0.13204174397E+00  0.20408905849E-01 0.  0.
         14    1    1    2    0    0 -0.10558067208E-01 -0.40031428878E-02 -0.21980164167E-01  0.24710838775E-01  0.00000000000E+00 0.  1.
     999901    1    3    3    0    0 -0.99679407893E-01 -0.43755752806E-01 -0.28865540452E-01  0.88717741725E+00  0.88000000000E+00 0.  1.
        -11    1    4    4    0    0  0.51748810340E-01  0.28066432501E-01  0.34341481963E-01  0.68156162666E-01  0.51100000000E-03 0.  1.
         11    1    4    4    0    0  0.58488664760E-01  0.19692463192E-01  0.16504222657E-01  0.63885581304E-01  0.51100000000E-03 0. -1.
</event>
<event>
 8    1  0.1066842E+005  0.1043930E+01  0.7957747E-01            NaN
         13   -1    0    0    0    0  0.00000000000E+00  0.00000000000E+00  0.74505805969E-08  0.10566000000E+00  0.10566000000E+00 0.  1.
     999900   -1    0    0    0    0 -0.00000000000E+00 -0.00000000000E+00 -0.74505805969E-08  0.93827000000E+00  0.93827000000E+00 0. -1.
     999902    2    1    2    0    0 -0.11711385252E-01 -0.20041882771E-01 -0.74877779596E-02  0.10195394193E+01  0.10192476279E+01 0.  0.
     999903    2    3    3    0    0 -0.23271546297E-01  0.10484329179E+00  0.66103790837E-01  0.12760575406E+00  0.19489397262E-01 0.  0.
         14    1    1    2    0    0  0.11711385252E-01  0.20041882771E-01  0.74877779596E-02  0.24390580729E-01  0.00000000000E+00 0.  1.
     999901    1    3    3    0    0  0.11560161045E-01 -0.12488517456E+00 -0.73591568796E-01  0.89193366522E+00  0.88000000000E+00 0. -1.
        -11    1    4    4    0    0 -0.78472860436E-02  0.33119550641E-01  0.10738632073E-01  0.35694031331E-01  0.51100000000E-03 0.  1.
         11    1    4    4    0    0 -0.15424260253E-01  0.71723741144E-01  0.55365158764E-01  0.91911722724E-01  0.51100000000E-03 0. -1.
</event>
<event>
 8    1  0.1066842E+005  0.1043930E+01  0.7957747E-01            NaN
         13   -1    0    0    0    0  0.00000000000E+00  0.00000000000E+00  0.74505805969E-08  0.10566000000E+00  0.10566000000E+00 0. -1.
     999900   -1    0    0    0    0 -0.00000000000E+00 -0.00000000000E+00 -0.74505805969E-08  0.93827000000E+00  0.93827000000E+00 0. -1.
     999902    2    1    2    0    0 -0.78692669218E-02 -0.57310330415E-02  0.21246956597E-01  0.10205590080E+01  0.10202913729E+01 0.  0.
     999903    2    3    3    0    0 -0.10458199024E+00  0.19286210704E-02  0.80095827546E-01  0.13327370398E+00  0.20135201016E-01 0.  0.
         14    1    1    2    0    0  0.78692669218E-02  0.57310330415E-02 -0.21246956597E-01  0.23370991982E-01  0.00000000000E+00 0.  1.
     999901    1    3    3    0    0  0.96712723318E-01 -0.76596541119E-02 -0.58848870950E-01  0.88728530404E+00  0.88000000000E+00 0. -1.
        -11    1    4    4    0    0 -0.60369734205E-01 -0.11138529540E-02  0.58103076731E-01  0.83797220258E-01  0.51100000000E-03 0. -1.
         11    1    4    4    0    0 -0.44212256034E-01  0.30424740244E-02  0.21992750816E-01  0.49476483720E-01  0.51100000000E-03 0.  1.
</event>
<event>
 8    1  0.1066842E+005  0.1043930E+01  0.7957747E-01            NaN
         13   -1    0    0    0    0  0.00000000000E+00  0.00000000000E+00  0.74505805969E-08  0.10566000000E+00  0.10566000000E+00 0. -1.
     999900   -1    0    0    0    0 -0.00000000000E+00 -0.00000000000E+00 -0.74505805969E-08  0.93827000000E+00  0.93827000000E+00 0.  1.
     999902    2    1    2    0    0  0.14477907494E-02 -0.23699818827E-01 -0.45536994652E-02  0.10197532821E+01  0.10194666462E+01 0.  0.
     999903    2    3    3    0    0 -0.21796640206E-01 -0.12853040292E+00  0.15633940088E-01  0.13299666625E+00  0.21178648511E-01 0.  0.
         14    1    1    2    0    0 -0.14477907494E-02  0.23699818827E-01  0.45536994652E-02  0.24176717919E-01  0.00000000000E+00 0. -1.
     999901    1    3    3    0    0  0.23244430955E-01  0.10483058409E+00 -0.20187639554E-01  0.88675661583E+00  0.88000000000E+00 0. -1.
        -11    1    4    4    0    0 -0.15454659612E-01 -0.41576232179E-01 -0.33365452201E-03  0.44359914701E-01  0.51100000000E-03 0. -1.
         11    1    4    4    0    0 -0.63419805932E-02 -0.86954170737E-01  0.15967594610E-01  0.88636751548E-01  0.51100000000E-03 0.  1.
</event>
<event>
 8    1  0.1066842E+005  0.1043930E+01  0.7957747E-01            NaN
         13   -1    0    0    0    0  0.00000000000E+00  0.00000000000E+00  0.74505805969E-08  0.10566000000E+00  0.10566000000E+00 0. -1.
     999900   -1    0    0    0    0 -0.00000000000E+00 -0.00000000000E+00 -0.74505805969E-08  0.93827000000E+00  0.93827000000E+00 0. -1.
     999902    2    1    2    0    0 -0.18716873876E-01 -0.11401006528E-01 -0.85526150154E-02  0.10204044492E+01  0.10201332209E+01 0.  0.
     999903    2    3    3    0    0 -0.35585728473E-02  0.22497166883E-01 -0.12811582058E+00  0.13154325621E+00  0.19266001469E-01 0.  0.
         14    1    1    2    0    0  0.18716873876E-01  0.11401006528E-01  0.85526150154E-02  0.23525550815E-01  0.00000000000E+00 0.  1.
     999901    1    3    3    0    0 -0.15158301029E-01 -0.33898173410E-01  0.11956320557E+00  0.88886119297E+00  0.88000000000E+00 0.  1.
        -11    1    4    4    0    0 -0.11383205475E-01  0.14913376353E-01 -0.74380597651E-01  0.76711932507E-01  0.51100000000E-03 0.  1.
         11    1    4    4    0    0  0.78246326278E-02  0.75837905297E-02 -0.53735222931E-01  0.54831323703E-01  0.51100000000E-03 0. -1.
</event>
<event>
 8    1  0.1066842E+005  0.1043930E+01  0.7957747E-01            NaN
         13   -1    0    0    0    0  0.00000000000E+00  0.00000000000E+00  0.74505805969E-08  0.10566000000E+00  0.10566000000E+00 0. -1.
     999900   -1    0    0    0    0 -0.00000000000E+00 -0.00000000000E+00 -0.74505805969E-08  0.93827000000E+00  0.93827000000E+00 0.  1.
     999902    2    1    2    0    0  0.44697166200E-02 -0.21443699834E-01 -0.87238773919E-02  0.10203521149E+01  0.10200796644E+01 0.  0.
     999903    2    3    3    0    0  0.16542586109E-01  0.11130173772E+00  0.57037508116E-01  0.12788829759E+00  0.20985837027E-01 0.  0.
         14    1    1    2    0    0 -0.44697166200E-02  0.21443699834E-01  0.87238773919E-02  0.23577885104E-01  0.00000000000E+00 0. -1.
     999901    1    3    3    0    0 -0.12072869489E-01 -0.13274543755E+00 -0.65761385508E-01  0.89246381730E+00  0.88000000000E+00 0. -1.
        -11    1    4    4    0    0  0.15167111368E-01  0.40293940107E-01  0.26653423485E-01  0.50639006517E-01  0.51100000000E-03 0. -1.
         11    1    4    4    0    0  0.13754747413E-02  0.71007797610E-01  0.30384084631E-01  0.77249291078E-01  0.51100000000E-03 0.  1.
</event>
<event>
 8    1  0.1066842E+005  0.1043930E+01  0.7957747E-01            NaN
         13   -1    0    0    0    0  0.00000000000E+00  0.00000000000E+00  0.74505805969E-08  0.10566000000E+00  0.10566000000E+00 0.  1.
     999900   -1    0    0    0    0 -0.00000000000E+00 -0.00000000000E+00 -0.74505805969E-08  0.93827000000E+00  0.93827000000E+00 0.  1.
     999902    2    1    2    0    0  0.13126897226E-01 -0.35876059140E-02 -0.19476884846E-01  0.10201700465E+01  0.10198933221E+01 0.  0.
     999903    2    3    3    0    0  0.38007700951E-01  0.12317294578E+00 -0.65816967255E-02  0.13064569173E+00  0.20219251530E-01 0.  0.
         14    1    1    2    0    0 -0.13126897226E-01  0.35876059140E-02  0.19476884846E-01  0.23759953499E-01  0.00000000000E+00 0.  1.
     999901    1    3    3    0    0 -0.24880803726E-01 -0.12676055169E+00 -0.12895188121E-01  0.88952435477E+00  0.88000000000E+00 0.  1.
        -11    1    4    4    0    0 -0.82843314186E-03  0.13953891302E-01  0.30848958381E-02  0.14323934071E-01  0.51100000000E-03 0. -1.
         11    1    4    4    0    0  0.38836134093E-01  0.10921905447E+00 -0.96665925636E-02  0.11632175766E+00  0.51100000000E-03 0.  1.
</event>
<event>
 8    1  0.1066842E+005  0.1043930E+01  0.7957747E-01            NaN
         13   -1    0    0    0    0  0.00000000000E+00  0.00000000000E+00  0.74505805969E-08  0.10566000000E+00  0.10566000000E+00 0.  1.
     999900   -1    0    0    0    0 -0.00000000000E+00 -0.00000000000E+00 -0.74505805969E-08  0.93827000000E+00  0.93827000000E+00 0. -1.
     999902    2    1    2    0    0 -0.20592660556E-01  0.39206230281E-02  0.11509110120E-01  0.10200158082E+01  0.10197354365E+01 0.  0.
     999903    2    3    3    0    0  0.52094090940E-01 -0.91278745161E-01  0.73390649971E-01  0.12974865250E+00  0.20072909423E-01 0.  0.
         14    1    1    2    0    0  0.20592660556E-01 -0.39206230281E-02 -0.11509110120E-01  0.23914191800E-01  0.00000000000E+00 0.  1.
     999901    1    3    3    0    0 -0.72686751496E-01  0.95199368189E-01 -0.61881539851E-01  0.89026715570E+00  0.88000000000E+00 0.  1.
        -11    1    4    4    0    0  0.34745356016E-01 -0.54107292222E-01  0.33414134309E-01  0.72467953806E-01  0.51100000000E-03 0.  1.
         11    1    4    4    0    0  0.17348734925E-01 -0.37171452939E-01  0.39976515662E-01  0.57280698691E-01  0.51100000000E-03 0. -1.
</event>
<event>
 8    1  0.1066842E+005  0.1043930E+01  0.7957747E-01            NaN
         13   -1    0    0    0    0  0.00000000000E+00  0.00000000000E+00  0.74505805969E-08  0.10566000000E+00  0.10566000000E+00 0.  1.
     999900   -1    0    0    0    0 -0.00000000000E+00 -0.00000000000E+00 -0.74505805969E-08  0.93827000000E+00  0.93827000000E+00 0. -1.
     999902    2    1    2    0    0 -0.75244299481E-02 -0.12288765034E-01 -0.10494279606E-01  0.10261041565E+01  0.10259493064E+01 0.  0.
     999903    2    3    3    0    0  0.13310682218E+00 -0.86409123896E-02 -0.87118962645E-02  0.13492873449E+00  0.18378649975E-01 0.  0.
         14    1    1    2    0    0  0.75244299481E-02  0.12288765034E-01  0.10494279606E-01  0.17825843502E-01  0.00000000000E+00 0.  1.
     999901    1    3    3    0    0 -0.14063125213E+00 -0.36478526448E-02 -0.17823833419E-02  0.89117542201E+00  0.88000000000E+00 0.  1.
        -11    1    4    4    0    0  0.90128259815E-01 -0.11597752254E-01 -0.12276510203E-01  0.91698336399E-01  0.51100000000E-03 0. -1.
         11    1    4    4    0    0  0.42978562369E-01  0.29568398647E-02  0.35646139386E-02  0.43230398088E-01  0.51100000000E-03 0.  1.
</event>
<event>
 8    1  0.1066842E+005  0.1043930E+01  0.7957747E-01            NaN
         13   -1    0    0    0    0  0.00000000000E+00  0.00000000000E+00  0.74505805969E-08  0.10566000000E+00  0.10566000000E+00 0. -1.
     999900   -1    0    0    0    0 -0.00000000000E+00 -0.00000000000E+00 -0.74505805969E-08  0.93827000000E+00  0.93827000000E+00 0.  1.
     999902    2    1    2    0    0  0.12327355638E-01  0.10211760043E-01  0.17999005487E-01  0.10198424941E+01  0.10195579949E+01 0.  0.
     999903    2    3    3    0    0  0.10952649801E+00  0.68514071462E-01 -0.15514216296E-01  0.13194049007E+00  0.21848804486E-01 0.  0.
         14    1    1    2    0    0 -0.12327355638E-01 -0.10211760043E-01 -0.17999005487E-01  0.24087505864E-01  0.00000000000E+00 0.  1.
     999901    1    3    3    0    0 -0.97199142371E-01 -0.58302311419E-01  0.33513221783E-01  0.88790200407E+00  0.88000000000E+00 0. -1.
        -11    1    4    4    0    0  0.71134275748E-01  0.50315462527E-01 -0.13195385988E-02  0.87142029232E-01  0.51100000000E-03 0. -1.
         11    1    4    4    0    0  0.38392222261E-01  0.18198608935E-01 -0.14194677697E-01  0.44798460836E-01  0.51100000000E-03 0.  1.
</event>
<event>
 8    1  0.1066842E+005  0.1043930E+01  0.7957747E-01            NaN
         13   -1    0    0    0    0  0.00000000000E+00  0.00000000000E+00  0.74505805969E-08  0.10566000000E+00  0.10566000000E+00 0.  1.
     999900   -1    0    0    0    0 -0.00000000000E+00 -0.00000000000E+00 -0.74505805969E-08  0.93827000000E+00  0.93827000000E+00 0.  1.
     999902    2    1    2    0    0  0.14783192018E-01  0.11637713680E-01 -0.15456300958E-01  0.10195809469E+01  0.10192901603E+01 0.  0.
     999903    2    3    3    0    0  0.89106606688E-01  0.57119989695E-01  0.73944026844E-01  0.13076992877E+00  0.20745471462E-01 0.  0.
         14    1    1    2    0    0 -0.14783192018E-01 -0.11637713680E-01  0.15456300958E-01  0.24349053067E-01  0.00000000000E+00 0.  1.
     999901    1    3    3    0    0 -0.74323414669E-01 -0.45482276014E-01 -0.89400327802E-01  0.88881101816E+00  0.88000000000E+00 0.  1.
        -11    1    4    4    0    0  0.58375230317E-01  0.33823555685E-01  0.35183336892E-01  0.76090924226E-01  0.51100000000E-03 0. -1.
         11    1    4    4    0    0  0.30731376370E-01  0.23296434010E-01  0.38760689952E-01  0.54679004542E-01  0.51100000000E-03 0.  1.
</event>
<event>
 8    1  0.1066842E+005  0.1043930E+01  0.7957747E-01            NaN
         13   -1    0    0    0    0  0.00000000000E+00  0.00000000000E+00  0.74505805969E-08  0.10566000000E+00  0.10566000000E+00 0. -1.
     999900   -1    0    0    0    0 -0.00000000000E+00 -0.00000000000E+00 -0.74505805969E-08  0.93827000000E+00  0.93827000000E+00 0. -1.
     999902    2    1    2    0    0  0.16093622935E-01 -0.10407407624E-01  0.14086305575E-01  0.10201446508E+01  0.10198673275E+01 0.  0.
     999903    2    3    3    0    0 -0.80413294142E-01  0.52047581499E-01  0.85188940547E-01  0.12982459855E+00  0.20543178491E-01 0.  0.
         14    1    1    2    0    0 -0.16093622935E-01  0.10407407624E-01 -0.14086305575E-01  0.23785349216E-01  0.00000000000E+00 0.  1.
     999901    1    3    3    0    0  0.96506917076E-01 -0.62454989123E-01 -0.71102634972E-01  0.89032005223E+00  0.88000000000E+00 0. -1.
        -11    1    4    4    0    0 -0.64191562984E-01  0.47863339421E-01  0.77312589624E-01  0.11130567665E+00  0.51100000000E-03 0. -1.
         11    1    4    4    0    0 -0.16221731158E-01  0.41842420778E-02  0.78763509230E-02  0.18518921901E-01  0.51100000000E-03 0.  1.
</event>
<event>
 8    1  0.1066842E+005  0.1043930E+01  0.7957747E-01            NaN
         13   -1    0    0    0    0  0.00000000000E+00  0.00000000000E+00  0.74505805969E-08  0.10566000000E+00  0.10566000000E+00 0. -1.
     999900   -1    0    0    0    0 -0.00000000000E+00 -0.00000000000E+00 -0.74505805969E-08  0.93827000000E+00  0.93827000000E+00 0.  1.
     999902    2    1    2    0    0  0.74530362429E-02  0.98201376814E-02  0.20864993936E-01  0.10196950908E+01  0.10194070567E+01 0.  0.
     999903    2    3    3    0    0  0.48541989414E-02 -0.80662334249E-01 -0.96362234812E-01  0.12731845793E+00  0.19857845253E-01 0.  0.
         14    1    1    2    0    0 -0.74530362429E-02 -0.98201376814E-02 -0.20864993936E-01  0.24234909227E-01  0.00000000000E+00 0.  1.
     999901    1    3    3    0    0  0.25988373015E-02  0.90482471930E-01  0.11722722875E+00  0.89237663284E+00  0.88000000000E+00 0. -1.
        -11    1    4    4    0    0  0.71563001000E-02 -0.43405836483E-01 -0.65387415940E-01  0.78810243980E-01  0.51100000000E-03 0. -1.
         11    1    4    4    0    0 -0.23021011586E-02 -0.37256497766E-01 -0.30974818872E-01  0.48508213951E-01  0.51100000000E-03 0.  1.
</event>
<event>
 8    1  0.1066842E+005  0.1043930E+01  0.7957747E-01            NaN
         13   -1    0    0    0    0  0.00000000000E+00  0.00000000000E+00  0.74505805969E-08  0.10566000000E+00  0.10566000000E+00 0.  1.
     999900   -1    0    0    0    0 -0.00000000000E+00 -0.00000000000E+00 -0.74505805969E-08  0.93827000000E+00  0.93827000000E+00 0. -1.
     999902    2    1    2    0    0  0.12244546686E-01  0.95892790963E-02 -0.20866845844E-01  0.10179048496E+01  0.10175720979E+01 0.  0.
     999903    2    3    3    0    0 -0.30883457444E-01  0.92636424471E-01 -0.84580713392E-01  0.13065273775E+00  0.19517830832E-01 0.  0.
         14    1    1    2    0    0 -0.12244546686E-01 -0.95892790963E-02  0.20866845844E-01  0.26025150386E-01  0.00000000000E+00 0.  1.
     999901    1    3    3    0    0  0.43128004130E-01 -0.83047145374E-01  0.63713867548E-01  0.88725211187E+00  0.88000000000E+00 0. -1.
        -11    1    4    4    0    0 -0.23114808881E-01  0.86776590655E-01 -0.75291612482E-01  0.11719026882E+00  0.51100000000E-03 0. -1.
         11    1    4    4    0    0 -0.77686485630E-02  0.58598338154E-02 -0.92891009099E-02  0.13462468925E-01  0.51100000000E-03 0.  1.
</event>
<event>
 8    1  0.1066842E+005  0.1043930E+01  0.7957747E-01            NaN
         13   -1    0    0    0    0  0.00000000000E+00  0.00000000000E+00  0.74505805969E-08  0.10566000000E+00  0.10566000000E+00 0. -1.
     999900   -1    0    0    0    0 -0.00000000000E+00 -0.00000000000E+00 -0.74505805969E-08  0.93827000000E+00  0.93827000000E+00 0.  1.
     999902    2    1    2    0    0  0.74780251478E-02 -0.17640191430E-01 -0.13925734328E-01  0.10202440698E+01  0.10199690871E+01 0.  0.
     999903    2    3    3    0    0 -0.88186442400E-01  0.80870402302E-01  0.40256045607E-01  0.12794832693E+00  0.20817169962E-01 0.  0.
         14    1    1    2    0    0 -0.74780251478E-02  0.17640191430E-01  0.13925734328E-01  0.23685930220E-01  0.00000000000E+00 0. -1.
     999901    1    3    3    0    0  0.95664467548E-01 -0.98510593731E-01 -0.54181779935E-01  0.89229574285E+00  0.88000000000E+00 0.  1.
        -11    1    4    4    0    0 -0.18478017134E-01  0.19385840845E-01  0.33819600405E-03  0.26788494545E-01  0.51100000000E-03 0. -1.
         11    1    4    4    0    0 -0.69708425266E-01  0.61484561456E-01  0.39917849603E-01  0.10115983239E+00  0.51100000000E-03 0.  1.
</event>
<event>
 8    1  0.1066842E+005  0.1043930E+01  0.7957747E-01            NaN
         13   -1    0    0    0    0  0.00000000000E+00  0.00000000000E+00  0.74505805969E-08  0.10566000000E+00  0.10566000000E+00 0. -1.
     999900   -1    0    0    0    0 -0.00000000000E+00 -0.00000000000E+00 -0.74505805969E-08  0.93827000000E+00  0.93827000000E+00 0. -1.
     999902    2    1    2    0    0 -0.19014239950E-01 -0.66660984802E-02 -0.11704290673E-01  0.10206283132E+01  0.10203622812E+01 0.  0.
     999903    2    3    3    0    0 -0.12748034620E-01  0.12730327592E+00  0.13887104609E-01  0.13009926920E+00  0.19087475650E-01 0.  0.
         14    1    1    2    0    0  0.19014239950E-01  0.66660984802E-02  0.11704290673E-01  0.23301686848E-01  0.00000000000E+00 0. -1.
     999901    1    3    3    0    0 -0.62662053301E-02 -0.13396937440E+00 -0.25591395282E-01  0.89052904395E+00  0.88000000000E+00 0. -1.
        -11    1    4    4    0    0 -0.10248291832E-01  0.47846668938E-01  0.12855472458E-01  0.50595014646E-01  0.51100000000E-03 0. -1.
         11    1    4    4    0    0 -0.24997427879E-02  0.79456606979E-01  0.10316321511E-02  0.79504254556E-01  0.51100000000E-03 0.  1.
</event>
<event>
 8    1  0.1066842E+005  0.1043930E+01  0.7957747E-01            NaN
         13   -1    0    0    0    0  0.00000000000E+00  0.00000000000E+00  0.74505805969E-08  0.10566000000E+00  0.10566000000E+00 0. -1.
     999900   -1    0    0    0    0 -0.00000000000E+00 -0.00000000000E+00 -0.74505805969E-08  0.93827000000E+00  0.93827000000E+00 0. -1.
     999902    2    1    2    0    0  0.63175666783E-02 -0.21572866322E-01 -0.61850320077E-02  0.10206157376E+01  0.10203494152E+01 0.  0.
     999903    2    3    3    0    0 -0.14938739027E-01 -0.98359362962E-02 -0.12665227710E+00  0.13207651889E+00  0.32916500132E-01 0.  0.
         14    1    1    2    0    0 -0.63175666783E-02  0.21572866322E-01  0.61850320077E-02  0.23314262395E-01  0.00000000000E+00 0. -1.
     999901    1    3    3    0    0  0.21256305706E-01 -0.11736930026E-01  0.12046724509E+00  0.88853921872E+00  0.88000000000E+00 0.  1.
        -11    1    4    4    0    0 -0.32035833800E-02  0.12083454161E-01 -0.38351545561E-01  0.40340735973E-01  0.51100000000E-03 0. -1.
         11    1    4    4    0    0 -0.11735155647E-01 -0.21919390457E-01 -0.88300731537E-01  0.91735782915E-01  0.51100000000E-03 0.  1.
</event>
<event>
 8    1  0.1066842E+005  0.1043930E+01  0.7957747E-01            NaN
         13   -1    0    0    0    0  0.00000000000E+00  0.00000000000E+00  0.74505805969E-08  0.10566000000E+00  0.10566000000E+00 0. -1.
     999900   -1    0    0    0    0 -0.00000000000E+00 -0.00000000000E+00 -0.74505805969E-08  0.93827000000E+00  0.93827000000E+00 0.  1.
     999902    2    1    2    0    0 -0.68693929152E-02  0.20174634184E-01  0.11003603160E-01  0.10199449274E+01  0.10196628714E+01 0.  0.
     999903    2    3    3    0    0 -0.90063268790E-02  0.12961781208E+00  0.20982533234E-01  0.13310674900E+00  0.19880865123E-01 0.  0.
         14    1    1    2    0    0  0.68693929152E-02 -0.20174634184E-01 -0.11003603160E-01  0.23985072566E-01  0.00000000000E+00 0.  1.
     999901    1    3    3    0    0  0.21369339638E-02 -0.10944317789E+00 -0.99789300738E-02  0.88683817843E+00  0.88000000000E+00 0. -1.
        -11    1    4    4    0    0  0.12335451090E-02  0.98526432025E-01  0.18655619675E-01  0.10028595469E+00  0.51100000000E-03 0. -1.
         11    1    4    4    0    0 -0.10239871988E-01  0.31091380053E-01  0.23269135587E-02  0.32820794318E-01  0.51100000000E-03 0.  1.
</event>
<event>
 8    1  0.1066842E+005  0.1043930E+01  0.7957747E-01            NaN
         13   -1    0    0    0    0  0.00000000000E+00  0.00000000000E+00  0.74505805969E-08  0.10566000000E+00  0.10566000000E+00 0.  1.
     999900   -1    0    0    0    0 -0.00000000000E+00 -0.00000000000E+00 -0.74505805969E-08  0.93827000000E+00  0.93827000000E+00 0.  1.
     999902    2    1    2    0    0  0.19717145502E-01  0.40937800137E-02 -0.38648883731E-02  0.10234248245E+01  0.10232193846E+01 0.  0.
     999903    2    3    3    0    0 -0.10698657343E+00  0.86885080525E-03 -0.73862985983E-01  0.13159302069E+00  0.20349461928E-01 0.  0.
         14    1    1    2    0    0 -0.19717145502E-01 -0.40937800137E-02  0.38648883731E-02  0.20505175534E-01  0.00000000000E+00 0.  1.
     999901    1    3    3    0    0  0.12670371893E+00  0.32249292085E-02  0.69998097610E-01  0.89183180378E+00  0.88000000000E+00 0. -1.
        -11    1    4    4    0    0 -0.71343198578E-01 -0.38870197913E-02 -0.59070145538E-01  0.92706548426E-01  0.51100000000E-03 0.  1.
         11    1    4    4    0    0 -0.35643374848E-01  0.47558705965E-02 -0.14792840445E-01  0.38886472264E-01  0.51100000000E-03 0. -1.
</event>
<event>
 8    1  0.1066842E+005  0.1043930E+01  0.7957747E-01            NaN
         13   -1    0    0    0    0  0.00000000000E+00  0.00000000000E+00  0.74505805969E-08  0.10566000000E+00  0.10566000000E+00 0.  1.
     999900   -1    0    0    0    0 -0.00000000000E+00 -0.00000000000E+00 -0.74505805969E-08  0.93827000000E+00  0.93827000000E+00 0. -1.
     999902    2    1    2    0    0 -0.36316580714E-02  0.14554556515E-01 -0.18151535613E-01  0.10203821275E+01  0.10201103782E+01 0.  0.
     999903    2    3    3    0    0 -0.22983042106E-01  0.40608811651E-01  0.11878344361E+00  0.12920061464E+00  0.20149355786E-01 0.  0.
         14    1    1    2    0    0  0.36316580714E-02 -0.14554556515E-01  0.18151535613E-01  0.23547872533E-01  0.00000000000E+00 0. -1.
     999901    1    3    3    0    0  0.19351384035E-01 -0.26054255136E-01 -0.13693497922E+00  0.89118151283E+00  0.88000000000E+00 0. -1.
        -11    1    4    4    0    0 -0.21129095141E-01  0.16966446479E-01  0.62657463963E-01  0.68267985754E-01  0.51100000000E-03 0. -1.
         11    1    4    4    0    0 -0.18539469650E-02  0.23642365172E-01  0.56125979648E-01  0.60932628884E-01  0.51100000000E-03 0.  1.
</event>
<event>
 8    1  0.1066842E+005  0.1043930E+01  0.7957747E-01            NaN
         13   -1    0    0    0    0  0.00000000000E+00  0.00000000000E+00  0.74505805969E-08  0.10566000000E+00  0.10566000000E+00 0.  1.
     999900   -1    0    0    0    0 -0.00000000000E+00 -0.00000000000E+00 -0.74505805969E-08  0.93827000000E+00  0.93827000000E+00 0.  1.
     999902    2    1    2    0    0  0.33066277789E-03  0.11546669106E-01 -0.20210271757E-01  0.10206514693E+01  0.10203859720E+01 0.  0.
     999903    2    3    3    0    0  0.10823956142E+00 -0.60115891786E-01 -0.37618116921E-01  0.13099823008E+00  0.20388488480E-01 0.  0.
         14    1    1    2    0    0 -0.33066277789E-03 -0.11546669106E-01  0.20210271757E-01  0.23278530663E-01  0.00000000000E+00 0.  1.
     999901    1    3    3    0    0 -0.10790889864E+00  0.71662560893E-01  0.17407845164E-01  0.88965323925E+00  0.88000000000E+00 0.  1.
        -11    1    4    4    0    0  0.42429450227E-01 -0.17869565520E-01 -0.22893365103E-01  0.51419324239E-01  0.51100000000E-03 0. -1.
         11    1    4    4    0    0  0.65810111195E-01 -0.42246326266E-01 -0.14724751818E-01  0.79578905846E-01  0.51100000000E-03 0.  1.
</event>
<event>
 8    1  0.1066842E+005  0.1043930E+01  0.7957747E-01            NaN
         13   -1    0    0    0    0  0.00000000000E+00  0.00000000000E+00  0.74505805969E-08  0.10566000000E+00  0.10566000000E+00 0.  1.
     999900   -1    0    0    0    0 -0.00000000000E+00 -0.00000000000E+00 -0.74505805969E-08  0.93827000000E+00  0.93827000000E+00 0.  1.
     999902    2    1    2    0    0 -0.19989385467E-01 -0.15300375398E-01  0.41131803639E-02  0.10184232309E+01  0.10181037678E+01 0.  0.
     999903    2    3    3    0    0  0.98555412720E-01 -0.37823423926E-01  0.69279314211E-01  0.12780166034E+00  0.19744878698E-01 0.  0.
         14    1    1    2    0    0  0.19989385467E-01  0.15300375398E-01 -0.41131803639E-02  0.25506769129E-01  0.00000000000E+00 0. -1.
     999901    1    3    3    0    0 -0.11854479819E+00  0.22523048527E-01 -0.65166133847E-01  0.89062157053E+00  0.88000000000E+00 0.  1.
        -11    1    4    4    0    0  0.64699877618E-01 -0.20312412982E-01  0.54178882417E-01  0.86800234481E-01  0.51100000000E-03 0.  1.
         11    1    4    4    0    0  0.33855535102E-01 -0.17511010944E-01  0.15100431793E-01  0.41001425861E-01  0.51100000000E-03 0. -1.
</event>
<event>
 8    1  0.1066842E+005  0.1043930E+01  0.7957747E-01            NaN
         13   -1    0    0    0    0  0.00000000000E+00  0.00000000000E+00  0.74505805969E-08  0.10566000000E+00  0.10566000000E+00 0.  1.
     999900   -1    0    0    0    0 -0.00000000000E+00 -0.00000000000E+00 -0.74505805969E-08  0.93827000000E+00  0.93827000000E+00 0. -1.
     999902    2    1    2    0    0 -0.21679471701E-01  0.17420033787E-02  0.10413501226E-01  0.10198162057E+01  0.10195310776E+01 0.  0.
     999903    2    3    3    0    0 -0.10439186948E+00  0.78070146802E-01 -0.11127113442E-01  0.13238658914E+00  0.20243174007E-01 0.  0.
         14    1    1    2    0    0  0.21679471701E-01 -0.17420033787E-02 -0.10413501226E-01  0.24113794326E-01  0.00000000000E+00 0. -1.
     999901    1    3    3    0    0  0.82712397783E-01 -0.76328143423E-01  0.21540614668E-01  0.88742961654E+00  0.88000000000E+00 0. -1.
        -11    1    4    4    0    0 -0.46329530577E-01  0.27353803418E-01 -0.12670129221E-01  0.55276118355E-01  0.51100000000E-03 0. -1.
         11    1    4    4    0    0 -0.58062338907E-01  0.50716343384E-01  0.15430157794E-02  0.77110470783E-01  0.51100000000E-03 0.  1.
</event>
<event>
 8    1  0.1066842E+005  0.1043930E+01  0.7957747E-01            NaN
         13   -1    0    0    0    0  0.00000000000E+00  0.00000000000E+00  0.74505805969E-08  0.10566000000E+00  0.10566000000E+00 0.  1.
     999900   -1    0    0    0    0 -0.00000000000E+00 -0.00000000000E+00 -0.74505805969E-08  0.93827000000E+00  0.93827000000E+00 0.  1.
     999902    2    1    2    0    0  0.63474721370E-03  0.23869083568E-01  0.22716038894E-02  0.10199446662E+01  0.10196626039E+01 0.  0.
     999903    2    3    3    0    0  0.14298784975E-01 -0.24814689146E-01 -0.12469688257E+00  0.12939550290E+00  0.19330276745E-01 0.  0.
         14    1    1    2    0    0 -0.63474721370E-03 -0.23869083568E-01 -0.22716038894E-02  0.23985333823E-01  0.00000000000E+00 0. -1.
     999901    1    3    3    0    0 -0.13664037761E-01  0.48683772713E-01  0.12696848646E+00  0.89054916327E+00  0.88000000000E+00 0. -1.
        -11    1    4    4    0    0  0.80893069092E-02 -0.24380608157E-01 -0.74378515432E-01  0.78691013586E-01  0.51100000000E-03 0. -1.
         11    1    4    4    0    0  0.62094780658E-02 -0.43408098852E-03 -0.50318367140E-01  0.50704489316E-01  0.51100000000E-03 0.  1.
</event>
<event>
 8    1  0.1066842E+005  0.1043930E+01  0.7957747E-01            NaN
         13   -1    0    0    0    0  0.00000000000E+00  0.00000000000E+00  0.74505805969E-08  0.10566000000E+00  0.10566000000E+00 0. -1.
     999900   -1    0    0    0    0 -0.00000000000E+00 -0.00000000000E+00 -0.74505805969E-08  0.93827000000E+00  0.93827000000E+00 0. -1.
     999902    2    1    2    0    0  0.17769671734E-01  0.16444093545E-01 -0.28491302891E-02  0.10195519978E+01  0.10192605110E+01 0.  0.
     999903    2    3    3    0    0 -0.24867878102E-02 -0.35984716105E-01  0.12208154997E+00  0.12895288538E+00  0.20587809441E-01 0.  0.
         14    1    1    2    0    0 -0.17769671734E-01 -0.16444093545E-01  0.28491302891E-02  0.24378002163E-01  0.00000000000E+00 0. -1.
     999901    1    3    3    0    0  0.20256459545E-01  0.52428809650E-01 -0.12493068026E+00  0.89059911245E+00  0.88000000000E+00 0. -1.
        -11    1    4    4    0    0 -0.36000349225E-02  0.11233188525E-02  0.19281728113E-01  0.19653708472E-01  0.51100000000E-03 0.  1.
         11    1    4    4    0    0  0.11132471123E-02 -0.37108034958E-01  0.10279982186E+00  0.10929917691E+00  0.51100000000E-03 0. -1.
</event>
<event>
 8    1  0.1066842E+005  0.1043930E+01  0.7957747E-01            NaN
         13   -1    0    0    0    0  0.00000000000E+00  0.00000000000E+00  0.74505805969E-08  0.10566000000E+00  0.10566000000E+00 0. -1.
     999900   -1    0    0    0    0 -0.00000000000E+00 -0.00000000000E+00 -0.74505805969E-08  0.93827000000E+00  0.93827000000E+00 0.  1.
     999902    2    1    2    0    0  0.21848584621E-01 -0.17643447778E-02  0.90421339087E-02  0.10202185313E+01  0.10199429483E+01 0.  0.
     999903    2    3    3    0    0 -0.12204171505E+00  0.42086774814E-02  0.32386367160E-01  0.12820673285E+00  0.21821924572E-01 0.  0.
         14    1    1    2    0    0 -0.21848584621E-01  0.17643447778E-02 -0.90421339087E-02  0.23711468704E-01  0.00000000000E+00 0.  1.
     999901    1    3    3    0    0  0.14389029967E+00 -0.59730222592E-02 -0.23344233251E-01  0.89201179844E+00  0.88000000000E+00 0.  1.
        -11    1    4    4    0    0 -0.68392487422E-01  0.88368607056E-02  0.91908036959E-02  0.69572655811E-01  0.51100000000E-03 0.  1.
         11    1    4    4    0    0 -0.53649227630E-01 -0.46281832242E-02  0.23195563464E-01  0.58634077043E-01  0.51100000000E-03 0. -1.
</event>
<event>
 8    1  0.1066842E+005  0.1043930E+01  0.7957747E-01            NaN
         13   -1    0    0    0    0  0.00000000000E+00  0.00000000000E+00  0.74505805969E-08  0.10566000000E+00  0.10566000000E+00 0. -1.
     999900   -1    0    0    0    0 -0.00000000000E+00 -0.00000000000E+00 -0.74505805969E-08  0.93827000000E+00  0.93827000000E+00 0.  1.
     999902    2    1    2    0    0  0.21962301612E-01 -0.90448516104E-02  0.16111270813E-02  0.10201235353E+01  0.10198457135E+01 0.  0.
     999903    2    3    3    0    0  0.86382934535E-01 -0.12686063785E-01 -0.97350079243E-01  0.13222906139E+00  0.19609669941E-01 0.  0.
         14    1    1    2    0    0 -0.21962301612E-01  0.90448516104E-02 -0.16111270813E-02  0.23806464736E-01  0.00000000000E+00 0. -1.
     999901    1    3    3    0    0 -0.64420632923E-01  0.36412121745E-02  0.98961206325E-01  0.88789447387E+00  0.88000000000E+00 0. -1.
        -11    1    4    4    0    0  0.19842739886E-01 -0.39985940785E-02 -0.11577781023E-01  0.23324433866E-01  0.51100000000E-03 0.  1.
         11    1    4    4    0    0  0.66540194649E-01 -0.86874697063E-02 -0.85772298221E-01  0.10890462753E+00  0.51100000000E-03 0. -1.
</event>
<event>
 8    1  0.1066842E+005  0.1043930E+01  0.7957747E-01            NaN
         13   -1    0    0    0    0  0.00000000000E+00  0.00000000000E+00  0.74505805969E-08  0.10566000000E+00  0.10566000000E+00 0.  1.
     999900   -1    0    0    0    0 -0.00000000000E+00 -0.00000000000E+00 -0.74505805969E-08  0.93827000000E+00  0.93827000000E+00 0.  1.
     999902    2    1    2    0    0  0.20447281327E-01 -0.12256637734E-01 -0.33087196911E-02  0.10198620938E+01  0.10195780629E+01 0.  0.
     999903    2    3    3    0    0  0.32071407071E-01  0.12422964106E+00  0.60621369747E-02  0.12921545370E+00  0.14082084357E-01 0.  0.
         14    1    1    2    0    0 -0.20447281327E-01  0.12256637734E-01  0.33087196911E-02  0.24067906186E-01  0.00000000000E+00 0. -1.
     999901    1    3    3    0    0 -0.11624125744E-01 -0.13648627879E+00 -0.93708566659E-02  0.89064664012E+00  0.88000000000E+00 0.  1.
        -11    1    4    4    0    0  0.15181400962E-01  0.33535486765E-01  0.21277008252E-02  0.36876714056E-01  0.51100000000E-03 0.  1.
         11    1    4    4    0    0  0.16890006109E-01  0.90694154295E-01  0.39344361496E-02  0.92338739641E-01  0.51100000000E-03 0. -1.
</event>
<event>
 8    1  0.1066842E+005  0.1043930E+01  0.7957747E-01            NaN
         13   -1    0    0    0    0  0.00000000000E+00  0.00000000000E+00  0.74505805969E-08  0.10566000000E+00  0.10566000000E+00 0. -1.
     999900   -1    0    0    0    0 -0.00000000000E+00 -0.00000000000E+00 -0.74505805969E-08  0.93827000000E+00  0.93827000000E+00 0. -1.
     999902    2    1    2    0    0 -0.12205608074E-01  0.20365200358E-01 -0.45803719244E-04  0.10201872042E+01  0.10199108840E+01 0.  0.
     999903    2    3    3    0    0 -0.12152581013E+00 -0.21752476342E-01 -0.40559549517E-01  0.13149931250E+00  0.20132048475E-01 0.  0.
         14    1    1    2    0    0  0.12205608074E-01 -0.20365200358E-01  0.45803719244E-04  0.23742795793E-01  0.00000000000E+00 0.  1.
     999901    1    3    3    0    0  0.10932020206E+00  0.42117676700E-01  0.40513745798E-01  0.88868789171E+00  0.88000000000E+00 0. -1.
        -11    1    4    4    0    0 -0.80939285291E-01 -0.17374107109E-01 -0.17507968500E-01  0.84615705299E-01  0.51100000000E-03 0.  1.
         11    1    4    4    0    0 -0.40586524840E-01 -0.43783692323E-02 -0.23051581017E-01  0.46883607201E-01  0.51100000000E-03 0. -1.
</event>
<event>
 8    1  0.1066842E+005  0.1043930E+01  0.7957747E-01            NaN
         13   -1    0    0    0    0  0.00000000000E+00  0.00000000000E+00  0.74505805969E-08  0.10566000000E+00  0.10566000000E+00 0.  1.
     999900   -1    0    0    0    0 -0.00000000000E+00 -0.00000000000E+00 -0.74505805969E-08  0.93827000000E+00  0.93827000000E+00 0. -1.
     999902    2    1    2    0    0 -0.21826240456E-01  0.55541761072E-02  0.70519244623E-02  0.10203299304E+01  0.10200569610E+01 0.  0.
     999903    2    3    3    0    0 -0.47825402376E-01 -0.12000132039E+00 -0.78276519103E-02  0.13091352576E+00  0.19735579158E-01 0.  0.
         14    1    1    2    0    0  0.21826240456E-01 -0.55541761072E-02 -0.70519244623E-02  0.23600069561E-01  0.00000000000E+00 0.  1.
     999901    1    3    3    0    0  0.25999161920E-01  0.12555549650E+00  0.14879576373E-01  0.88941640468E+00  0.88000000000E+00 0.  1.
        -11    1    4    4    0    0 -0.28886642040E-01 -0.71088712519E-01  0.50532834536E-02  0.76901494983E-01  0.51100000000E-03 0.  1.
         11    1    4    4    0    0 -0.18938760336E-01 -0.48912607870E-01 -0.12880935364E-01  0.54012030776E-01  0.51100000000E-03 0. -1.
</event>
<event>
 8    1  0.1066842E+005  0.1043930E+01  0.7957747E-01            NaN
         13   -1    0    0    0    0  0.00000000000E+00  0.00000000000E+00  0.74505805969E-08  0.10566000000E+00  0.10566000000E+00 0.  1.
     999900   -1    0    0    0    0 -0.00000000000E+00 -0.00000000000E+00 -0.74505805969E-08  0.93827000000E+00  0.93827000000E+00 0. -1.
     999902    2    1    2    0    0 -0.15958186387E-01 -0.15137691289E-01  0.60709455315E-02  0.10211118101E+01  0.10208568259E+01 0.  0.
     999903    2    3    3    0    0 -0.93986281655E-01 -0.92602329195E-01 -0.13267791971E-01  0.13405874487E+00  0.19674863688E-01 0.  0.
         14    1    1    2    0    0  0.15958186387E-01  0.15137691289E-01 -0.60709455315E-02  0.22818189892E-01  0.00000000000E+00 0.  1.
     999901    1    3    3    0    0  0.78028095268E-01  0.77464637906E-01  0.19338737503E-01  0.88705306524E+00  0.88000000000E+00 0. -1.
        -11    1    4    4    0    0 -0.51168225989E-01 -0.45033938981E-01  0.22459924475E-02  0.68202262529E-01  0.51100000000E-03 0.  1.
         11    1    4    4    0    0 -0.42818055665E-01 -0.47568390213E-01 -0.15513784419E-01  0.65856482342E-01  0.51100000000E-03 0. -1.
</event>
<event>
 7    1  0.1066842E+005  0.1043930E+01  0.7957747E-01            NaN
         13   -1    0    0    0    0  0.00000000000E+00  0.00000000000E+00  0.74505805969E-08  0.10566000000E+00  0.10566000000E+00 0.  1.
     999900   -1    0    0    0    0 -0.00000000000E+00 -0.00000000000E+00 -0.74505805969E-08  0.93827000000E+00  0.93827000000E+00 0.  1.
     999903    2    1    2    0    0 -0.10506542377E+00  0.34782639825E-01  0.15875395098E-01  0.11361937419E+00  0.20217782165E-01 0.  0.
         14    1    1    2    0    0  0.32483576434E-01  0.56083175291E-02  0.30872812276E-01  0.45163774214E-01  0.00000000000E+00 0. -1.
     999901    1    1    2    0    0  0.72581847340E-01 -0.40390957354E-01 -0.46748207374E-01  0.88514685160E+00  0.88000000000E+00 0.  1.
        -11    1    3    3    0    0 -0.39562927504E-01  0.22988897001E-01  0.96914272536E-02  0.46774987988E-01  0.51100000000E-03 0. -1.
         11    1    3    3    0    0 -0.65502496269E-01  0.11793742823E-01  0.61839678441E-02  0.66844386201E-01  0.51100000000E-03 0.  1.
</event>
<event>
 8    1  0.1066842E+005  0.1043930E+01  0.7957747E-01            NaN
         13   -1    0    0    0    0  0.00000000000E+00  0.00000000000E+00  0.74505805969E-08  0.10566000000E+00  0.10566000000E+00 0.  1.
     999900   -1    0    0    0    0 -0.00000000000E+00 -0.00000000000E+00 -0.74505805969E-08  0.93827000000E+00  0.93827000000E+00 0. -1.
     999902    2    1    2    0    0  0.10225347839E-01  0.16911343419E-01  0.13207547482E-01  0.10201604694E+01  0.10198835192E+01 0.  0.
     999903    2    3    3    0    0 -0.13240069668E-01  0.12610724789E+00  0.34492127906E-01  0.13284575367E+00  0.19492305353E-01 0.  0.
         14    1    1    2    0    0 -0.10225347839E-01 -0.16911343419E-01 -0.13207547482E-01  0.23769530604E-01  0.00000000000E+00 0. -1.
     999901    1    3    3    0    0  0.23465417507E-01 -0.10919590447E+00 -0.21284580424E-01  0.88731471572E+00  0.88000000000E+00 0. -1.
        -11    1    4    4    0    0 -0.13815523912E-01  0.42807126234E-01  0.11744240221E-01  0.46492010677E-01  0.51100000000E-03 0. -1.
         11    1    4    4    0    0  0.57545424403E-03  0.83300121651E-01  0.22747887686E-01  0.86353742998E-01  0.51100000000E-03 0.  1.
</event>
<event>
 8    1  0.1066842E+005  0.1043930E+01  0.7957747E-01            NaN
         13   -1    0    0    0    0  0.00000000000E+00  0.00000000000E+00  0.74505805969E-08  0.10566000000E+00  0.10566000000E+00 0.  1.
     999900   -1    0    0    0    0 -0.00000000000E+00 -0.00000000000E+00 -0.74505805969E-08  0.93827000000E+00  0.93827000000E+00 0.  1.
     999902    2    1    2    0    0 -0.20156572904E-01 -0.34378411153E-02  0.80991776161E-02  0.10219367542E+01  0.10217000669E+01 0.  0.
     999903    2    3    3    0    0  0.93807773461E-01 -0.86043926960E-01  0.21218764562E-01  0.13065466573E+00  0.20419353065E-01 0.  0.
         14    1    1    2    0    0  0.20156572904E-01  0.34378411153E-02 -0.80991776161E-02  0.21993245800E-01  0.00000000000E+00 0. -1.
     999901    1    3    3    0    0 -0.11396434637E+00  0.82606085845E-01 -0.13119586946E-01  0.89128208847E+00  0.88000000000E+00 0.  1.
        -11    1    4    4    0    0  0.32873959007E-01 -0.43370813557E-01  0.63766584748E-02  0.54796419078E-01  0.51100000000E-03 0. -1.
         11    1    4    4    0    0  0.60933814454E-01 -0.42673113403E-01  0.14842106087E-01  0.75858246654E-01  0.51100000000E-03 0.  1.
</event>
<event>
 8    1  0.1066842E+005  0.1043930E+01  0.7957747E-01            NaN
         13   -1    0    0    0    0  0.00000000000E+00  0.00000000000E+00  0.74505805969E-08  0.10566000000E+00  0.10566000000E+00 0. -1.
     999900   -1    0    0    0    0 -0.00000000000E+00 -0.00000000000E+00 -0.74505805969E-08  0.93827000000E+00  0.93827000000E+00 0.  1.
     999902    2    1    2    0    0  0.19642351499E-02  0.17149081777E-01  0.15853429833E-01  0.10204932668E+01  0.10202241063E+01 0.  0.
     999903    2    3    3    0    0 -0.36224513093E-01 -0.60650124724E-01  0.10911050829E+00  0.13133187554E+00  0.18769803874E-01 0.  0.
         14    1    1    2    0    0 -0.19642351499E-02 -0.17149081777E-01 -0.15853429833E-01  0.23436733198E-01  0.00000000000E+00 0.  1.
     999901    1    3    3    0    0  0.38188748243E-01  0.77799206501E-01 -0.93257078452E-01  0.88916139126E+00  0.88000000000E+00 0.  1.
        -11    1    4    4    0    0 -0.26429236500E-01 -0.30957882001E-01  0.72831555268E-01  0.83436152618E-01  0.51100000000E-03 0.  1.
         11    1    4    4    0    0 -0.97952765928E-02 -0.29692242723E-01  0.36278953017E-01  0.47895722924E-01  0.51100000000E-03 0. -1.
</event>
<event>
 8    1  0.1066842E+005  0.1043930E+01  0.7957747E-01            NaN
         13   -1    0    0    0    0  0.00000000000E+00  0.00000000000E+00  0.74505805969E-08  0.10566000000E+00  0.10566000000E+00 0.  1.
     999900   -1    0    0    0    0 -0.00000000000E+00 -0.00000000000E+00 -0.74505805969E-08  0.93827000000E+00  0.93827000000E+00 0.  1.
     999902    2    1    2    0    0  0.72407593332E-02  0.11912722695E-01  0.17631832791E-01  0.10214528319E+01  0.10212054958E+01 0.  0.
     999903    2    3    3    0    0  0.82834856852E-01 -0.47769778516E-01 -0.86011464092E-01  0.13015131081E+00  0.19945588506E-01 0.  0.
         14    1    1    2    0    0 -0.72407593332E-02 -0.11912722695E-01 -0.17631832791E-01  0.22477168089E-01  0.00000000000E+00 0. -1.
     999901    1    3    3    0    0 -0.75594097519E-01  0.59682501211E-01  0.10364329688E+00  0.89130152110E+00  0.88000000000E+00 0. -1.
        -11    1    4    4    0    0  0.60410249396E-01 -0.28253478889E-01 -0.68694333359E-01  0.95743563011E-01  0.51100000000E-03 0.  1.
         11    1    4    4    0    0  0.22424607456E-01 -0.19516299627E-01 -0.17317130733E-01  0.34407747798E-01  0.51100000000E-03 0. -1.
</event>
<event>
 8    1  0.1066842E+005  0.1043930E+01  0.7957747E-01            NaN
         13   -1    0    0    0    0  0.00000000000E+00  0.00000000000E+00  0.74505805969E-08  0.10566000000E+00  0.10566000000E+00 0. -1.
     999900   -1    0    0    0    0 -0.00000000000E+00 -0.00000000000E+00 -0.74505805969E-08  0.93827000000E+00  0.93827000000E+00 0.  1.
     999902    2    1    2    0    0  0.85909689016E-02 -0.20950421607E-01  0.15465311227E-02  0.10212338181E+01  0.10209815839E+01 0.  0.
     999903    2    3    3    0    0 -0.38184050443E-01 -0.55450064170E-01 -0.11169001325E+00  0.13207655267E+00  0.20900367940E-01 0.  0.
         14    1    1    2    0    0 -0.85909689016E-02  0.20950421607E-01 -0.15465311227E-02  0.22696181853E-01  0.00000000000E+00 0.  1.
     999901    1    3    3    0    0  0.46775019344E-01  0.34499642563E-01  0.11323654437E+00  0.88915726548E+00  0.88000000000E+00 0. -1.
        -11    1    4    4    0    0 -0.28148673051E-01 -0.22764843403E-01 -0.60853025244E-01  0.70809163899E-01  0.51100000000E-03 0.  1.
         11    1    4    4    0    0 -0.10035377391E-01 -0.32685220767E-01 -0.50836988008E-01  0.61267388770E-01  0.51100000000E-03 0. -1.
</event>
<event>
 8    1  0.1066842E+005  0.1043930E+01  0.7957747E-01            NaN
         13   -1    0    0    0    0  0.00000000000E+00  0.00000000000E+00  0.74505805969E-08  0.10566000000E+00  0.10566000000E+00 0. -1.
     999900   -1    0    0    0    0 -0.00000000000E+00 -0.00000000000E+00 -0.74505805969E-08  0.93827000000E+00  0.93827000000E+00 0. -1.
     999902    2    1    2    0    0 -0.43163564456E-02  0.22239695472E-01 -0.59510799841E-02  0.10205067137E+01  0.10202378656E+01 0.  0.
     999903    2    3    3    0    0  0.14888520770E-01 -0.10705705703E+00 -0.66965040223E-01  0.12876169362E+00  0.20307033754E-01 0.  0.
         14    1    1    2    0    0  0.43163564456E-02 -0.22239695472E-01  0.59510799841E-02  0.23423286291E-01  0.00000000000E+00 0. -1.
     999901    1    3    3    0    0 -0.19204877216E-01  0.12929675250E+00  0.61013960239E-01  0.89174502009E+00  0.88000000000E+00 0. -1.
        -11    1    4    4    0    0  0.11498863500E-01 -0.34130607679E-01 -0.30280616950E-01  0.47056339915E-01  0.51100000000E-03 0. -1.
         11    1    4    4    0    0  0.33896572702E-02 -0.72926449352E-01 -0.36684423273E-01  0.81705353701E-01  0.51100000000E-03 0.  1.
</event>
<event>
 8    1  0.1066842E+005  0.1043930E+01  0.7957747E-01            NaN
         13   -1    0    0    0    0  0.00000000000E+00  0.00000000000E+00  0.74505805969E-08  0.10566000000E+00  0.10566000000E+00 0. -1.
     999900   -1    0    0    0    0 -0.00000000000E+00 -0.00000000000E+00 -0.74505805969E-08  0.93827000000E+00  0.93827000000E+00 0. -1.
     999902    2    1    2    0    0  0.44524179001E-02  0.19401516710E-01  0.16238109757E-01  0.10182411097E+01  0.10179170096E+01 0.  0.
     999903    2    3    3    0    0  0.42885617634E-01 -0.30691412611E-01  0.11731137354E+00  0.13020833044E+00  0.20275895686E-01 0.  0.
         14    1    1    2    0    0 -0.44524179001E-02 -0.19401516710E-01 -0.16238109757E-01  0.25688890289E-01  0.00000000000E+00 0.  1.
     999901    1    3    3    0    0 -0.38433199734E-01  0.50092929321E-01 -0.10107326378E+00  0.88803277927E+00  0.88000000000E+00 0. -1.
        -11    1    4    4    0    0  0.25775977561E-01 -0.29639698124E-01  0.84527359810E-01  0.93209701220E-01  0.51100000000E-03 0.  1.
         11    1    4    4    0    0  0.17109640073E-01 -0.10517144868E-02  0.32784013731E-01  0.36998629219E-01  0.51100000000E-03 0. -1.
</event>
<event>
 8    1  0.1066842E+005  0.1043930E+01  0.7957747E-01            NaN
         13   -1    0    0    0    0  0.00000000000E+00  0.00000000000E+00  0.74505805969E-08  0.10566000000E+00  0.10566000000E+00 0. -1.
     999900   -1    0    0    0    0 -0.00000000000E+00 -0.00000000000E+00 -0.74505805969E-08  0.93827000000E+00  0.93827000000E+00 0.  1.
     999902    2    1    2    0    0 -0.21559788291E-01 -0.56923072897E-02  0.78779925432E-02  0.10202806956E+01  0.10200065726E+01 0.  0.
     999903    2    3    3    0    0 -0.92775361084E-01  0.48360821222E-01 -0.78966589813E-01  0.13149760618E+00  0.10481482239E-01 0.  0.
         14    1    1    2    0    0  0.21559788291E-01  0.56923072897E-02 -0.78779925432E-02  0.23649304428E-01  0.00000000000E+00 0.  1.
     999901    1    3    3    0    0  0.71215572793E-01 -0.54053128512E-01  0.86844582356E-01  0.88878308940E+00  0.88000000000E+00 0. -1.
        -11    1    4    4    0    0 -0.49926422325E-01  0.20718726361E-01 -0.37824938113E-01  0.65976513491E-01  0.51100000000E-03 0.  1.
         11    1    4    4    0    0 -0.42848938759E-01  0.27642094861E-01 -0.41141651701E-01  0.65521092686E-01  0.51100000000E-03 0. -1.
</event>
<event>
 8    1  0.1066842E+005  0.1043930E+01  0.7957747E-01            NaN
         13   -1    0    0    0    0  0.00000000000E+00  0.00000000000E+00  0.74505805969E-08  0.10566000000E+00  0.10566000000E+00 0. -1.
     999900   -1    0    0    0    0 -0.00000000000E+00 -0.00000000000E+00 -0.74505805969E-08  0.93827000000E+00  0.93827000000E+00 0.  1.
     999902    2    1    2    0    0  0.14072792465E-01  0.22105379973E-02 -0.13040705640E-01  0.10246170518E+01  0.10244350213E+01 0.  0.
     999903    2    3    3    0    0 -0.84044601611E-01 -0.87338210389E-01 -0.52953485593E-01  0.13375284698E+00  0.19856847316E-01 0.  0.
         14    1    1    2    0    0 -0.14072792465E-01 -0.22105379973E-02  0.13040705640E-01  0.19312948237E-01  0.00000000000E+00 0.  1.
     999901    1    3    3    0    0  0.98117394076E-01  0.89548748386E-01  0.39912779953E-01  0.89086420478E+00  0.88000000000E+00 0.  1.
        -11    1    4    4    0    0 -0.62057841280E-01 -0.74440273574E-01 -0.46272907354E-01  0.10739633639E+00  0.51100000000E-03 0.  1.
         11    1    4    4    0    0 -0.21986760331E-01 -0.12897936815E-01 -0.66805782390E-02  0.26356510591E-01  0.51100000000E-03 0. -1.
</event>
<event>
 8    1  0.1066842E+005  0.1043930E+01  0.7957747E-01            NaN
         13   -1    0    0    0    0  0.00000000000E+00  0.00000000000E+00  0.74505805969E-08  0.10566000000E+00  0.10566000000E+00 0. -1.
     999900   -1    0    0    0    0 -0.00000000000E+00 -0.00000000000E+00 -0.74505805969E-08  0.93827000000E+00  0.93827000000E+00 0. -1.
     999902    2    1    2    0    0 -0.93128039262E-02  0.17476017105E-01  0.20840255279E-01  0.10151818569E+01  0.10147747272E+01 0.  0.
     999903    2    3    3    0    0  0.10989247470E+00  0.52956595841E-01  0.25541704209E-01  0.12642380573E+00  0.21209501700E-01 0.  0.
         14    1    1    2    0    0  0.93128039262E-02 -0.17476017105E-01 -0.20840255279E-01  0.28748143087E-01  0.00000000000E+00 0.  1.
     999901    1    3    3    0    0 -0.11920527863E+00 -0.35480578736E-01 -0.47014489295E-02  0.88875805118E+00  0.88000000000E+00 0. -1.
        -11    1    4    4    0    0  0.45165533930E-01  0.17080870410E-01  0.19811583293E-01  0.52196183220E-01  0.51100000000E-03 0. -1.
         11    1    4    4    0    0  0.64726940772E-01  0.35875725431E-01  0.57301209159E-02  0.74227622511E-01  0.51100000000E-03 0.  1.
</event>
<event>
 8    1  0.1066842E+005  0.1043930E+01  0.7957747E-01            NaN
         13   -1    0    0    0    0  0.00000000000E+00  0.00000000000E+00  0.74505805969E-08  0.10566000000E+00  0.10566000000E+00 0. -1.
     999900   -1    0    0    0    0 -0.00000000000E+00 -0.00000000000E+00 -0.74505805969E-08  0.93827000000E+00  0.93827000000E+00 0.  1.
     999902    2    1    2    0    0  0.13426523840E-01 -0.16506256022E-01  0.17719581828E-01  0.10162404422E+01  0.10158631427E+01 0.  0.
     999903    2    3    3    0    0  0.75585108846E-01 -0.80544468608E-01  0.66474069883E-01  0.13038403033E+00  0.19510850743E-01 0.  0.
         14    1    1    2    0    0 -0.13426523840E-01  0.16506256022E-01 -0.17719581828E-01  0.27689557787E-01  0.00000000000E+00 0.  1.
     999901    1    3    3    0    0 -0.62158585006E-01  0.64038212586E-01 -0.48754488055E-01  0.88585641188E+00  0.88000000000E+00 0. -1.
        -11    1    4    4    0    0  0.48716102887E-01 -0.38291080778E-01  0.33697864565E-01  0.70535613309E-01  0.51100000000E-03 0.  1.
         11    1    4    4    0    0  0.26869005958E-01 -0.42253387829E-01  0.32776205319E-01  0.59848417025E-01  0.51100000000E-03 0. -1.
</event>
<event>
 8    1  0.1066842E+005  0.1043930E+01  0.7957747E-01            NaN
         13   -1    0    0    0    0  0.00000000000E+00  0.00000000000E+00  0.74505805969E-08  0.10566000000E+00  0.10566000000E+00 0. -1.
     999900   -1    0    0    0    0 -0.00000000000E+00 -0.00000000000E+00 -0.74505805969E-08  0.93827000000E+00  0.93827000000E+00 0.  1.
     999902    2    1    2    0    0 -0.10058151550E-01  0.21601990478E-02  0.21151350175E-01  0.10204095305E+01  0.10201384207E+01 0.  0.
     999903    2    3    3    0    0 -0.98262015884E-01  0.85132752372E-01 -0.68950372039E-02  0.13167393080E+00  0.19684339493E-01 0.  0.
         14    1    1    2    0    0  0.10058151550E-01 -0.21601990478E-02 -0.21151350175E-01  0.23520469527E-01  0.00000000000E+00 0.  1.
     999901    1    3    3    0    0  0.88203864334E-01 -0.82972553324E-01  0.28046387379E-01  0.88873559968E+00  0.88000000000E+00 0. -1.
        -11    1    4    4    0    0 -0.70078137791E-01  0.62735152630E-01  0.37409901377E-02  0.94132358411E-01  0.51100000000E-03 0.  1.
         11    1    4    4    0    0 -0.28183878092E-01  0.22397599742E-01 -0.10636027342E-01  0.37541572385E-01  0.51100000000E-03 0. -1.
</event>
<event>
 8    1  0.1066842E+005  0.1043930E+01  0.7957747E-01            NaN
         13   -1    0    0    0    0  0.00000000000E+00  0.00000000000E+00  0.74505805969E-08  0.10566000000E+00  0.10566000000E+00 0.  1.
     999900   -1    0    0    0    0 -0.00000000000E+00 -0.00000000000E+00 -0.74505805969E-08  0.93827000000E+00  0.93827000000E+00 0.  1.
     999902    2    1    2    0    0  0.21117324104E-01 -0.35984317709E-02 -0.89910600861E-02  0.10206979263E+01  0.10204334998E+01 0.  0.
     999903    2    3    3    0    0 -0.35318936599E-01  0.12005104862E+00  0.27168023386E-01  0.12952918532E+00  0.19494276006E-01 0.  0.
         14    1    1    2    0    0 -0.21117324104E-01  0.35984317709E-02  0.89910600861E-02  0.23232073734E-01  0.00000000000E+00 0.  1.
     999901    1    3    3    0    0  0.56436260702E-01 -0.12364948039E+00 -0.36159083472E-01  0.89116874095E+00  0.88000000000E+00 0. -1.
        -11    1    4    4    0    0 -0.79855705363E-02  0.59846602627E-01  0.16096464799E-01  0.62487938698E-01  0.51100000000E-03 0. -1.
         11    1    4    4    0    0 -0.27333366062E-01  0.60204445995E-01  0.11071558587E-01  0.67041246621E-01  0.51100000000E-03 0.  1.
</event>
<event>
 8    1  0.1066842E+005  0.1043930E+01  0.7957747E-01            NaN
         13   -1    0    0    0    0  0.00000000000E+00  0.00000000000E+00  0.74505805969E-08  0.10566000000E+00  0.10566000000E+00 0. -1.
     999900   -1    0    0    0    0 -0.00000000000E+00 -0.00000000000E+00 -0.74505805969E-08  0.93827000000E+00  0.93827000000E+00 0.  1.
     999902    2    1    2    0    0  0.52973736398E-02 -0.22546729967E-01 -0.95896338492E-03  0.10207494735E+01  0.10204862325E+01 0.  0.
     999903    2    3    3    0    0 -0.10370682298E+00 -0.22092943465E-01 -0.74184269504E-01  0.13100565288E+00  0.20395390690E-01 0.  0.
         14    1    1    2    0    0 -0.52973736398E-02  0.22546729967E-01  0.95896338492E-03  0.23180526536E-01  0.00000000000E+00 0. -1.
     999901    1    3    3    0    0  0.10900419662E+00 -0.45378650259E-03  0.73225306119E-01  0.88974382058E+00  0.88000000000E+00 0. -1.
        -11    1    4    4    0    0 -0.76634374715E-01 -0.24121615582E-01 -0.60661414229E-01  0.10067148565E+00  0.51100000000E-03 0. -1.
         11    1    4    4    0    0 -0.27072448270E-01  0.20286721173E-02 -0.13522855275E-01  0.30334167232E-01  0.51100000000E-03 0.  1.
</event>
<event>
 8    1  0.1066842E+005  0.1043930E+01  0.7957747E-01            NaN
         13   -1    0    0    0    0  0.00000000000E+00  0.00000000000E+00  0.74505805969E-08  0.10566000000E+00  0.10566000000E+00 0. -1.
     999900   -1    0    0    0    0 -0.00000000000E+00 -0.00000000000E+00 -0.74505805969E-08  0.93827000000E+00  0.93827000000E+00 0. -1.
     999902    2    1    2    0    0 -0.16742036897E-02  0.26032887872E-01 -0.13704533322E-02  0.10178073594E+01  0.10174720775E+01 0.  0.
     999903    2    3    3    0    0 -0.50467286490E-01 -0.10755982728E-01  0.11481817401E+00  0.12806920520E+00  0.23576896926E-01 0.  0.
         14    1    1    2    0    0  0.16742036897E-02 -0.26032887872E-01  0.13704533322E-02  0.26122640588E-01  0.00000000000E+00 0.  1.
     999901    1    3    3    0    0  0.48793082800E-01  0.36788870600E-01 -0.11618862734E+00  0.88973815421E+00  0.88000000000E+00 0. -1.
        -11    1    4    4    0    0 -0.48123942222E-01 -0.33064690818E-02  0.10468992778E+00  0.11526963456E+00  0.51100000000E-03 0.  1.
         11    1    4    4    0    0 -0.23433442682E-02 -0.74495136461E-02  0.10128246235E-01  0.12799570646E-01  0.51100000000E-03 0. -1.
</event>
<event>
 8    1  0.1066842E+005  0.1043930E+01  0.7957747E-01            NaN
         13   -1    0    0    0    0  0.00000000000E+00  0.00000000000E+00  0.74505805969E-08  0.10566000000E+00  0.10566000000E+00 0. -1.
     999900   -1    0    0    0    0 -0.00000000000E+00 -0.00000000000E+00 -0.74505805969E-08  0.93827000000E+00  0.93827000000E+00 0.  1.
     999902    2    1    2    0    0  0.20697809585E-01  0.49012870628E-02  0.73104997422E-02  0.10214385496E+01  0.10211908956E+01 0.  0.
     999903    2    3    3    0    0 -0.13502054282E-01  0.14842470448E-02 -0.12766265452E+00  0.13048453322E+00  0.23322769843E-01 0.  0.
         14    1    1    2    0    0 -0.20697809585E-01 -0.49012870628E-02 -0.73104997422E-02  0.22491450441E-01  0.00000000000E+00 0.  1.
     999901    1    3    3    0    0  0.34199863866E-01  0.34170400180E-02  0.13497315426E+00  0.89095401633E+00  0.88000000000E+00 0. -1.
        -11    1    4    4    0    0  0.73140493603E-03  0.94632283467E-02 -0.30091352231E-01  0.31556904855E-01  0.51100000000E-03 0. -1.
         11    1    4    4    0    0 -0.14233459218E-01 -0.79789813019E-02 -0.97571302287E-01  0.98927628370E-01  0.51100000000E-03 0.  1.
</event>
<event>
 8    1  0.1066842E+005  0.1043930E+01  0.7957747E-01            NaN
         13   -1    0    0    0    0  0.00000000000E+00  0.00000000000E+00  0.74505805969E-08  0.10566000000E+00  0.10566000000E+00 0. -1.
     999900   -1    0    0    0    0 -0.00000000000E+00 -0.00000000000E+00 -0.74505805969E-08  0.93827000000E+00  0.93827000000E+00 0. -1.
     999902    2    1    2    0    0 -0.49235807173E-02 -0.10974613676E-01 -0.20422539575E-01  0.10202284407E+01  0.10199530907E+01 0.  0.
     999903    2    3    3    0    0 -0.73818159249E-01  0.10300142986E+00 -0.22612625360E-01  0.13020495899E+00  0.19585334589E-01 0.  0.
         14    1    1    2    0    0  0.49235807173E-02  0.10974613676E-01  0.20422539575E-01  0.23701559340E-01  0.00000000000E+00 0. -1.
     999901    1    3    3    0    0  0.68894578532E-01 -0.11397604354E+00  0.21900857847E-02  0.89002348167E+00  0.88000000000E+00 0.  1.
        -11    1    4    4    0    0 -0.25842125338E-01  0.44737659053E-01 -0.17520645468E-01  0.54557380052E-01  0.51100000000E-03 0. -1.
         11    1    4    4    0    0 -0.47976033911E-01  0.58263770808E-01 -0.50919798922E-02  0.75647578936E-01  0.51100000000E-03 0.  1.
</event>
<event>
 8    1  0.1066842E+005  0.1043930E+01  0.7957747E-01            NaN
         13   -1    0    0    0    0  0.00000000000E+00  0.00000000000E+00  0.74505805969E-08  0.10566000000E+00  0.10566000000E+00 0. -1.
     999900   -1    0    0    0    0 -0.00000000000E+00 -0.00000000000E+00 -0.74505805969E-08  0.93827000000E+00  0.93827000000E+00 0. -1.
     999902    2    1    2    0    0  0.13814234646E-02  0.10019487763E-01 -0.21646871087E-01  0.10200367898E+01  0.10197569157E+01 0.  0.
     999903    2    3    3    0    0 -0.93820812801E-01 -0.16777565127E-01 -0.89037944854E-01  0.13193594831E+00  0.19887363477E-01 0.  0.
         14    1    1    2    0    0 -0.13814234646E-02 -0.10019487763E-01  0.21646871087E-01  0.23893210200E-01  0.00000000000E+00 0. -1.
     999901    1    3    3    0    0  0.95202236266E-01  0.26797052890E-01  0.67391073767E-01  0.88810084149E+00  0.88000000000E+00 0.  1.
        -11    1    4    4    0    0 -0.35617746318E-01 -0.15442876580E-01 -0.40886943402E-01  0.56383592929E-01  0.51100000000E-03 0.  1.
         11    1    4    4    0    0 -0.58203066484E-01 -0.13346885464E-02 -0.48151001451E-01  0.75552355380E-01  0.51100000000E-03 0. -1.
</event>
<event>
 8    1  0.1066842E+005  0.1043930E+01  0.7957747E-01            NaN
         13   -1    0    0    0    0  0.00000000000E+00  0.00000000000E+00  0.74505805969E-08  0.10566000000E+00  0.10566000000E+00 0. -1.
     999900   -1    0    0    0    0 -0.00000000000E+00 -0.00000000000E+00 -0.74505805969E-08  0.93827000000E+00  0.93827000000E+00 0. -1.
     999902    2    1    2    0    0 -0.11423299168E-01 -0.12336652149E-02  0.20819569270E-01  0.10201504256E+01  0.10198732385E+01 0.  0.
     999903    2    3    3    0    0  0.10970299029E+00  0.27400357622E-01  0.61926573233E-01  0.13044189410E+00  0.19866091428E-01 0.  0.
         14    1    1    2    0    0  0.11423299168E-01  0.12336652149E-02 -0.20819569270E-01  0.23779574393E-01  0.00000000000E+00 0.  1.
     999901    1    3    3    0    0 -0.12112628945E+00 -0.28634022837E-01 -0.41107003964E-01  0.88970853151E+00  0.88000000000E+00 0. -1.
        -11    1    4    4    0    0  0.45376609206E-01  0.17501267192E-01  0.35410183867E-01  0.60162058300E-01  0.51100000000E-03 0. -1.
         11    1    4    4    0    0  0.64326381080E-01  0.98990904301E-02  0.26516389367E-01  0.70279835801E-01  0.51100000000E-03 0.  1.
</event>
<event>
 8    1  0.1066842E+005  0.1043930E+01  0.7957747E-01            NaN
         13   -1    0    0    0    0  0.00000000000E+00  0.00000000000E+00  0.74505805969E-08  0.10566000000E+00  0.10566000000E+00 0. -1.
     999900   -1    0    0    0    0 -0.00000000000E+00 -0.00000000000E+00 -0.74505805969E-08  0.93827000000E+00  0.93827000000E+00 0.  1.
     999902    2    1    2    0    0  0.92340877396E-02 -0.12641684238E-01 -0.17803441605E-01  0.10202225520E+01  0.10199470636E+01 0.  0.
     999903    2    3    3    0    0 -0.77609151563E-01 -0.23820542439E-01 -0.10200525678E+00  0.13187765235E+00  0.19900857550E-01 0.  0.
         14    1    1    2    0    0 -0.92340877396E-02  0.12641684238E-01  0.17803441605E-01  0.23707447981E-01  0.00000000000E+00 0. -1.
     999901    1    3    3    0    0  0.86843239302E-01  0.11178858201E-01  0.84201815175E-01  0.88834489967E+00  0.88000000000E+00 0. -1.
        -11    1    4    4    0    0 -0.39931402785E-01 -0.15938728151E-01 -0.39043377825E-01  0.58079311776E-01  0.51100000000E-03 0. -1.
         11    1    4    4    0    0 -0.37677748778E-01 -0.78818142888E-02 -0.62961878955E-01  0.73798340578E-01  0.51100000000E-03 0.  1.
</event>
<event>
 8    1  0.1066842E+005  0.1043930E+01  0.7957747E-01            NaN
         13   -1    0    0    0    0  0.00000000000E+00  0.00000000000E+00  0.74505805969E-08  0.10566000000E+00  0.10566000000E+00 0.  1.
     999900   -1    0    0    0    0 -0.00000000000E+00 -0.00000000000E+00 -0.74505805969E-08  0.93827000000E+00  0.93827000000E+00 0. -1.
     999902    2    1    2    0    0 -0.61099673930E-02 -0.73009204224E-02  0.21318263351E-01  0.10205825485E+01  0.10203154585E+01 0.  0.
     999903    2    3    3    0    0  0.85512324889E-01 -0.69731918041E-01 -0.64724023508E-01  0.12946215872E+00  0.19908621731E-01 0.  0.
         14    1    1    2    0    0  0.61099673930E-02  0.73009204224E-02 -0.21318263351E-01  0.23347451528E-01  0.00000000000E+00 0. -1.
     999901    1    3    3    0    0 -0.91622292282E-01  0.62430997619E-01  0.86042286860E-01  0.89112038975E+00  0.88000000000E+00 0. -1.
        -11    1    4    4    0    0  0.45546915030E-01 -0.33215806945E-01 -0.22072797382E-01  0.60541562625E-01  0.51100000000E-03 0.  1.
         11    1    4    4    0    0  0.39965409859E-01 -0.36516111096E-01 -0.42651226127E-01  0.68920596094E-01  0.51100000000E-03 0. -1.
</event>
<event>
 8    1  0.1066842E+005  0.1043930E+01  0.7957747E-01            NaN
         13   -1    0    0    0    0  0.00000000000E+00  0.00000000000E+00  0.74505805969E-08  0.10566000000E+00  0.10566000000E+00 0. -1.
     999900   -1    0    0    0    0 -0.00000000000E+00 -0.00000000000E+00 -0.74505805969E-08  0.93827000000E+00  0.93827000000E+00 0. -1.
     999902    2    1    2    0    0 -0.21092514923E-01  0.97700058580E-02 -0.77947678922E-02  0.10194125449E+01  0.10191176728E+01 0.  0.
     999903    2    3    3    0    0  0.93952309691E-01 -0.58357498656E-01  0.58793737757E-01  0.12682602377E+00  0.19887246167E-01 0.  0.
         14    1    1    2    0    0  0.21092514923E-01 -0.97700058580E-02  0.77947678922E-02  0.24517455144E-01  0.00000000000E+00 0.  1.
     999901    1    3    3    0    0 -0.11504482461E+00  0.68127504514E-01 -0.66588505649E-01  0.89258652109E+00  0.88000000000E+00 0.  1.
        -11    1    4    4    0    0  0.67875328942E-01 -0.51111384614E-01  0.48699515303E-01  0.97935375773E-01  0.51100000000E-03 0. -1.
         11    1    4    4    0    0  0.26076980749E-01 -0.72461140424E-02  0.10094222454E-01  0.28890647996E-01  0.51100000000E-03 0.  1.
</event>
<event>
 8    1  0.1066842E+005  0.1043930E+01  0.7957747E-01            NaN
         13   -1    0    0    0    0  0.00000000000E+00  0.00000000000E+00  0.74505805969E-08  0.10566000000E+00  0.10566000000E+00 0. -1.
     999900   -1    0    0    0    0 -0.00000000000E+00 -0.00000000000E+00 -0.74505805969E-08  0.93827000000E+00  0.93827000000E+00 0. -1.
     999902    2    1    2    0    0  0.86719514115E-02 -0.21012966267E-01 -0.66274472500E-02  0.10202515172E+01  0.10199767094E+01 0.  0.
     999903    2    3    3    0    0 -0.38877691685E-01 -0.12426704360E+00  0.15448539761E-01  0.13266505813E+00  0.20188789768E-01 0.  0.
         14    1    1    2    0    0 -0.86719514115E-02  0.21012966267E-01  0.66274472500E-02  0.23678482841E-01  0.00000000000E+00 0. -1.
     999901    1    3    3    0    0  0.47549643096E-01  0.10325407733E+00 -0.22075987011E-01  0.88758645903E+00  0.88000000000E+00 0.  1.
        -11    1    4    4    0    0 -0.21246580357E-01 -0.59401330811E-01 -0.23329085090E-02  0.63131916350E-01  0.51100000000E-03 0.  1.
         11    1    4    4    0    0 -0.17631111328E-01 -0.64865712791E-01  0.17781448270E-01  0.69533141782E-01  0.51100000000E-03 0. -1.
</event>
<event>
 8    1  0.1066842E+005  0.1043930E+01  0.7957747E-01            NaN
         13   -1    0    0    0    0  0.00000000000E+00  0.00000000000E+00  0.74505805969E-08  0.10566000000E+00  0.10566000000E+00 0.  1.
     999900   -1    0    0    0    0 -0.00000000000E+00 -0.00000000000E+00 -0.74505805969E-08  0.93827000000E+00  0.93827000000E+00 0. -1.
     999902    2    1    2    0    0 -0.12361780019E-01  0.20226147875E-01  0.54100513097E-02  0.10196158206E+01  0.10193258764E+01 0.  0.
     999903    2    3    3    0    0  0.11302677454E+00 -0.81145032971E-02  0.57522858380E-01  0.12875038367E+00  0.20661198702E-01 0.  0.
         14    1    1    2    0    0  0.12361780019E-01 -0.20226147875E-01 -0.54100513097E-02  0.24314179367E-01  0.00000000000E+00 0. -1.
     999901    1    3    3    0    0 -0.12538855456E+00  0.28340651172E-01 -0.52112807070E-01  0.89086543697E+00  0.88000000000E+00 0. -1.
        -11    1    4    4    0    0  0.73241882613E-01 -0.13259039805E-01  0.30852203175E-01  0.80574779348E-01  0.51100000000E-03 0.  1.
         11    1    4    4    0    0  0.39784891925E-01  0.51445365076E-02  0.26670655205E-01  0.48175604318E-01  0.51100000000E-03 0. -1.
</event>
<event>
 8    1  0.1066842E+005  0.1043930E+01  0.7957747E-01            NaN
         13   -1    0    0    0    0  0.00000000000E+00  0.00000000000E+00  0.74505805969E-08  0.10566000000E+00  0.10566000000E+00 0.  1.
     999900   -1    0    0    0    0 -0.00000000000E+00 -0.00000000000E+00 -0.74505805969E-08  0.93827000000E+00  0.93827000000E+00 0. -1.
     999902    2    1    2    0    0  0.22380221972E-02 -0.21745442672E-01  0.48704552345E-02  0.10215336977E+01  0.10212881578E+01 0.  0.
     999903    2    3    3    0    0  0.12024930178E+00  0.10737975205E-01 -0.48022470384E-01  0.13148903812E+00  0.20199277078E-01 0.  0.
         14    1    1    2    0    0 -0.22380221972E-02  0.21745442672E-01 -0.48704552345E-02  0.22396302251E-01  0.00000000000E+00 0. -1.
     999901    1    3    3    0    0 -0.11801127958E+00 -0.32483417877E-01  0.52892925618E-01  0.89004465962E+00  0.88000000000E+00 0.  1.
        -11    1    4    4    0    0  0.37074266209E-01  0.58307178707E-02 -0.54671980310E-02  0.37929538109E-01  0.51100000000E-03 0.  1.
         11    1    4    4    0    0  0.83175035573E-01  0.49072573348E-02 -0.42555272353E-01  0.93559500015E-01  0.51100000000E-03 0. -1.
</event>
<event>
 7    1  0.1066842E+005  0.1043930E+01  0.7957747E-01            NaN
         13   -1    0    0    0    0  0.00000000000E+00  0.00000000000E+00  0.74505805969E-08  0.10566000000E+00  0.10566000000E+00 0. -1.
     999900   -1    0    0    0    0 -0.00000000000E+00 -0.00000000000E+00 -0.74505805969E-08  0.93827000000E+00  0.93827000000E+00 0. -1.
     999903    2    1    2    0    0  0.38500771317E-01  0.82957776292E-01 -0.53339335673E-01  0.10768614494E+00  0.19670257808E-01 0.  0.
         14    1    1    2    0    0  0.31165038486E-01  0.31149576576E-01 -0.43585414903E-02  0.44278128107E-01  0.00000000000E+00 0.  1.
     999901    1    1    2    0    0 -0.69665809803E-01 -0.11410735287E+00  0.57697877163E-01  0.89196572696E+00  0.88000000000E+00 0. -1.
        -11    1    3    3    0    0  0.62105029336E-02  0.26449955593E-02 -0.20657562054E-02  0.70777692741E-02  0.51100000000E-03 0. -1.
         11    1    3    3    0    0  0.32290268383E-01  0.80312780733E-01 -0.51273579467E-01  0.10060837566E+00  0.51100000000E-03 0.  1.
</event>
<event>
 8    1  0.1066842E+005  0.1043930E+01  0.7957747E-01            NaN
         13   -1    0    0    0    0  0.00000000000E+00  0.00000000000E+00  0.74505805969E-08  0.10566000000E+00  0.10566000000E+00 0.  1.
     999900   -1    0    0    0    0 -0.00000000000E+00 -0.00000000000E+00 -0.74505805969E-08  0.93827000000E+00  0.93827000000E+00 0.  1.
     999902    2    1    2    0    0 -0.29164257606E-02 -0.24575852233E-01 -0.43729152041E-02  0.10187983379E+01  0.10184883175E+01 0.  0.
     999903    2    3    3    0    0 -0.83081222896E-02 -0.12717148568E+00  0.29434478102E-01  0.13217673077E+00  0.19044369019E-01 0.  0.
         14    1    1    2    0    0  0.29164257606E-02  0.24575852233E-01  0.43729152041E-02  0.25131662094E-01  0.00000000000E+00 0. -1.
     999901    1    3    3    0    0  0.53916965290E-02  0.10259563344E+00 -0.33807393306E-01  0.88662160713E+00  0.88000000000E+00 0. -1.
        -11    1    4    4    0    0  0.17154634774E-02 -0.39759796157E-01  0.17147909397E-01  0.43337006392E-01  0.51100000000E-03 0.  1.
         11    1    4    4    0    0 -0.10023585767E-01 -0.87411689521E-01  0.12286568705E-01  0.88839724381E-01  0.51100000000E-03 0. -1.
</event>
<event>
 8    1  0.1066842E+005  0.1043930E+01  0.7957747E-01            NaN
         13   -1    0    0    0    0  0.00000000000E+00  0.00000000000E+00  0.74505805969E-08  0.10566000000E+00  0.10566000000E+00 0.  1.
     999900   -1    0    0    0    0 -0.00000000000E+00 -0.00000000000E+00 -0.74505805969E-08  0.93827000000E+00  0.93827000000E+00 0.  1.
     999902    2    1    2    0    0 -0.18199503383E-01 -0.90548433932E-02 -0.12671209251E-01  0.10199764688E+01  0.10196951629E+01 0.  0.
     999903    2    3    3    0    0 -0.57731324480E-01  0.60262341981E-03 -0.11794697100E+00  0.13276791523E+00  0.19559201564E-01 0.  0.
         14    1    1    2    0    0  0.18199503383E-01  0.90548433932E-02  0.12671209251E-01  0.23953531183E-01  0.00000000000E+00 0. -1.
     999901    1    3    3    0    0  0.39531821098E-01 -0.96574668130E-02  0.10527576175E+00  0.88720855359E+00  0.88000000000E+00 0. -1.
        -11    1    4    4    0    0 -0.11500091600E-01 -0.78093717777E-02 -0.29345222115E-01  0.32475245594E-01  0.51100000000E-03 0.  1.
         11    1    4    4    0    0 -0.46231232880E-01  0.84119951975E-02 -0.88601748883E-01  0.10029266964E+00  0.51100000000E-03 0. -1.
</event>
<event>
 8    1  0.1066842E+005  0.1043930E+01  0.7957747E-01            NaN
         13   -1    0    0    0    0  0.00000000000E+00  0.00000000000E+00  0.74505805969E-08  0.10566000000E+00  0.10566000000E+00 0.  1.
     999900   -1    0    0    0    0 -0.00000000000E+00 -0.00000000000E+00 -0.74505805969E-08  0.93827000000E+00  0.93827000000E+00 0.  1.
     999902    2    1    2    0    0 -0.41315944626E-02 -0.18714061667E-01 -0.14256902115E-01  0.10200439071E+01  0.10197642016E+01 0.  0.
     999903    2    3    3    0    0 -0.81519305638E-01  0.61024359924E-01 -0.79452870793E-01  0.13066345528E+00  0.19768919363E-01 0.  0.
         14    1    1    2    0    0  0.41315944626E-02  0.18714061667E-01  0.14256902115E-01  0.23886092916E-01  0.00000000000E+00 0.  1.
     999901    1    3    3    0    0  0.77387711175E-01 -0.79738421591E-01  0.65195968677E-01  0.88938045180E+00  0.88000000000E+00 0. -1.
        -11    1    4    4    0    0 -0.64828408225E-01  0.39649630224E-01 -0.64587777241E-01  0.99732932273E-01  0.51100000000E-03 0. -1.
         11    1    4    4    0    0 -0.16690897413E-01  0.21374729700E-01 -0.14865093552E-01  0.30930523007E-01  0.51100000000E-03 0.  1.
</event>
<event>
 8    1  0.1066842E+005  0.1043930E+01  0.7957747E-01            NaN
         13   -1    0    0    0    0  0.00000000000E+00  0.00000000000E+00  0.74505805969E-08  0.10566000000E+00  0.10566000000E+00 0. -1.
     999900   -1    0    0    0    0 -0.00000000000E+00 -0.00000000000E+00 -0.74505805969E-08  0.93827000000E+00  0.93827000000E+00 0. -1.
     999902    2    1    2    0    0  0.17620435137E-01  0.81858276393E-02 -0.13054148570E-01  0.10205227724E+01  0.10202542971E+01 0.  0.
     999903    2    3    3    0    0  0.41446475961E-01  0.84296549385E-01 -0.92376793970E-01  0.13336291970E+00  0.20699702393E-01 0.  0.
         14    1    1    2    0    0 -0.17620435137E-01 -0.81858276393E-02  0.13054148570E-01  0.23407227590E-01  0.00000000000E+00 0. -1.
     999901    1    3    3    0    0 -0.23826040824E-01 -0.76110721745E-01  0.79322645399E-01  0.88715985271E+00  0.88000000000E+00 0.  1.
        -11    1    4    4    0    0  0.33279598690E-01  0.52444271462E-01 -0.70001182039E-01  0.93586109578E-01  0.51100000000E-03 0.  1.
         11    1    4    4    0    0  0.81668772713E-02  0.31852277923E-01 -0.22375611931E-01  0.39776810123E-01  0.51100000000E-03 0. -1.
</event>
<event>
 8    1  0.1066842E+005  0.1043930E+01  0.7957747E-01            NaN
         13   -1    0    0    0    0  0.00000000000E+00  0.00000000000E+00  0.74505805969E-08  0.10566000000E+00  0.10566000000E+00 0.  1.
     999900   -1    0    0    0    0 -0.00000000000E+00 -0.00000000000E+00 -0.74505805969E-08  0.93827000000E+00  0.93827000000E+00 0.  1.
     999902    2    1    2    0    0 -0.17657568985E-01  0.11341510445E-01 -0.10009714126E-01  0.10206788930E+01  0.10204140280E+01 0.  0.
     999903    2    3    3    0    0  0.58090824922E-01 -0.29900006865E-01  0.10867515827E+00  0.12853272732E+00  0.21019458074E-01 0.  0.
         14    1    1    2    0    0  0.17657568985E-01 -0.11341510445E-01  0.10009714126E-01  0.23251107038E-01  0.00000000000E+00 0.  1.
     999901    1    3    3    0    0 -0.75748393907E-01  0.41241517310E-01 -0.11868487239E+00  0.89214616564E+00  0.88000000000E+00 0.  1.
        -11    1    4    4    0    0  0.11654553620E-01 -0.10857290786E-01  0.13301245859E-01  0.20757977881E-01  0.51100000000E-03 0. -1.
         11    1    4    4    0    0  0.46436271302E-01 -0.19042716079E-01  0.95373912409E-01  0.10777474944E+00  0.51100000000E-03 0.  1.
</event>
<event>
 8    1  0.1066842E+005  0.1043930E+01  0.7957747E-01            NaN
         13   -1    0    0    0    0  0.00000000000E+00  0.00000000000E+00  0.74505805969E-08  0.10566000000E+00  0.10566000000E+00 0.  1.
     999900   -1    0    0    0    0 -0.00000000000E+00 -0.00000000000E+00 -0.74505805969E-08  0.93827000000E+00  0.93827000000E+00 0. -1.
     999902    2    1    2    0    0  0.20226362530E-01  0.61700806256E-03 -0.12089567874E-01  0.10203578959E+01  0.10200855805E+01 0.  0.
     999903    2    3    3    0    0  0.48489032744E-01  0.10082874510E+00 -0.67833538301E-01  0.13246794720E+00  0.20706182203E-01 0.  0.
         14    1    1    2    0    0 -0.20226362530E-01 -0.61700806256E-03  0.12089567874E-01  0.23572104096E-01  0.00000000000E+00 0.  1.
     999901    1    3    3    0    0 -0.28262670214E-01 -0.10021173704E+00  0.55743970427E-01  0.88788994870E+00  0.88000000000E+00 0.  1.
        -11    1    4    4    0    0  0.19083888715E-01  0.20196193755E-01 -0.13597165263E-01  0.30939054201E-01  0.51100000000E-03 0. -1.
         11    1    4    4    0    0  0.29405144030E-01  0.80632551349E-01 -0.54236373038E-01  0.10152889300E+00  0.51100000000E-03 0.  1.
</event>
<event>
 8    1  0.1066842E+005  0.1043930E+01  0.7957747E-01            NaN
         13   -1    0    0    0    0  0.00000000000E+00  0.00000000000E+00  0.74505805969E-08  0.10566000000E+00  0.10566000000E+00 0. -1.
     999900   -1    0    0    0    0 -0.00000000000E+00 -0.00000000000E+00 -0.74505805969E-08  0.93827000000E+00  0.93827000000E+00 0. -1.
     999902    2    1    2    0    0 -0.20049494700E-01 -0.10463060698E-01 -0.28331428717E-02  0.10211377957E+01  0.10208833985E+01 0.  0.
     999903    2    3    3    0    0 -0.95752640163E-01 -0.81573916737E-01 -0.41870922933E-01  0.13417011405E+00  0.20629428645E-01 0.  0.
         14    1    1    2    0    0  0.20049494700E-01  0.10463060698E-01  0.28331428717E-02  0.22792204268E-01  0.00000000000E+00 0. -1.
     999901    1    3    3    0    0  0.75703145464E-01  0.71110856039E-01  0.39037780061E-01  0.88696768168E+00  0.88000000000E+00 0. -1.
        -11    1    4    4    0    0 -0.49832107068E-01 -0.36867927539E-01 -0.10718730876E-01  0.62909739218E-01  0.51100000000E-03 0. -1.
         11    1    4    4    0    0 -0.45920533095E-01 -0.44705989198E-01 -0.31152192057E-01  0.71260374830E-01  0.51100000000E-03 0.  1.
</event>
<event>
 8    1  0.1066842E+005  0.1043930E+01  0.7957747E-01            NaN
         13   -1    0    0    0    0  0.00000000000E+00  0.00000000000E+00  0.74505805969E-08  0.10566000000E+00  0.10566000000E+00 0. -1.
     999900   -1    0    0    0    0 -0.00000000000E+00 -0.00000000000E+00 -0.74505805969E-08  0.93827000000E+00  0.93827000000E+00 0. -1.
     999902    2    1    2    0    0 -0.14382069824E-01 -0.18045871393E-01  0.61647875213E-02  0.10200448161E+01  0.10197651322E+01 0.  0.
     999903    2    3    3    0    0 -0.73319386654E-01 -0.12731471099E-01 -0.10598017023E+00  0.13095632681E+00  0.19492055640E-01 0.  0.
         14    1    1    2    0    0  0.14382069824E-01  0.18045871393E-01 -0.61647875213E-02  0.23885183942E-01  0.00000000000E+00 0.  1.
     999901    1    3    3    0    0  0.58937316830E-01 -0.53144002946E-02  0.11214495775E+00  0.88908848925E+00  0.88000000000E+00 0.  1.
        -11    1    4    4    0    0 -0.39884705137E-01 -0.27109554954E-02 -0.71335386222E-01  0.81774919333E-01  0.51100000000E-03 0.  1.
         11    1    4    4    0    0 -0.33434681517E-01 -0.10020515603E-01 -0.34644784010E-01  0.49181407475E-01  0.51100000000E-03 0. -1.
</event>
<event>
 8    1  0.1066842E+005  0.1043930E+01  0.7957747E-01            NaN
         13   -1    0    0    0    0  0.00000000000E+00  0.00000000000E+00  0.74505805969E-08  0.10566000000E+00  0.10566000000E+00 0.  1.
     999900   -1    0    0    0    0 -0.00000000000E+00 -0.00000000000E+00 -0.74505805969E-08  0.93827000000E+00  0.93827000000E+00 0.  1.
     999902    2    1    2    0    0 -0.14155824402E-01 -0.19248073217E-03 -0.22165162863E-01  0.10176294514E+01  0.10172895269E+01 0.  0.
     999903    2    3    3    0    0  0.12337007777E+00 -0.68571806528E-02  0.15973401809E-01  0.12610696590E+00  0.19509491696E-01 0.  0.
         14    1    1    2    0    0  0.14155824402E-01  0.19248073217E-03  0.22165162863E-01  0.26300548627E-01  0.00000000000E+00 0.  1.
     999901    1    3    3    0    0 -0.13752590217E+00  0.66646999206E-02 -0.38138564672E-01  0.89152248548E+00  0.88000000000E+00 0.  1.
        -11    1    4    4    0    0  0.80199352499E-02  0.34876451883E-02 -0.17815513976E-02  0.89396910883E-02  0.51100000000E-03 0.  1.
         11    1    4    4    0    0  0.11535014252E+00 -0.10344825841E-01  0.17754953207E-01  0.11716727481E+00  0.51100000000E-03 0. -1.
</event>
<event>
 8    1  0.1066842E+005  0.1043930E+01  0.7957747E-01            NaN
         13   -1    0    0    0    0  0.00000000000E+00  0.00000000000E+00  0.74505805969E-08  0.10566000000E+00  0.10566000000E+00 0.  1.
     999900   -1    0    0    0    0 -0.00000000000E+00 -0.00000000000E+00 -0.74505805969E-08  0.93827000000E+00  0.93827000000E+00 0. -1.
     999902    2    1    2    0    0  0.66830908331E-02  0.20087917133E-01  0.11606438919E-01  0.10197867288E+01  0.10195008949E+01 0.  0.
     999903    2    3    3    0    0 -0.32509309446E-02  0.11665125795E+00 -0.58058021531E-01  0.13171223837E+00  0.18955087443E-01 0.  0.
         14    1    1    2    0    0 -0.66830908331E-02 -0.20087917133E-01 -0.11606438919E-01  0.24143271158E-01  0.00000000000E+00 0. -1.
     999901    1    3    3    0    0  0.99340217777E-02 -0.96563340812E-01  0.69664460451E-01  0.88807449047E+00  0.88000000000E+00 0. -1.
        -11    1    4    4    0    0 -0.10072229189E-01  0.70017944858E-01 -0.29824843334E-01  0.76770728822E-01  0.51100000000E-03 0. -1.
         11    1    4    4    0    0  0.68212982442E-02  0.46633313087E-01 -0.28233178197E-01  0.54941509547E-01  0.51100000000E-03 0.  1.
</event>
<event>
 8    1  0.1066842E+005  0.1043930E+01  0.7957747E-01            NaN
         13   -1    0    0    0    0  0.00000000000E+00  0.00000000000E+00  0.74505805969E-08  0.10566000000E+00  0.10566000000E+00 0.  1.
     999900   -1    0    0    0    0 -0.00000000000E+00 -0.00000000000E+00 -0.74505805969E-08  0.93827000000E+00  0.93827000000E+00 0.  1.
     999902    2    1    2    0    0 -0.13808743580E-01  0.10823630670E-01 -0.15628754508E-01  0.10204333971E+01  0.10201628437E+01 0.  0.
     999903    2    3    3    0    0  0.52433163500E-01  0.19679708994E-01  0.11402927682E+00  0.12842575954E+00  0.18814147888E-01 0.  0.
         14    1    1    2    0    0  0.13808743580E-01 -0.10823630670E-01  0.15628754508E-01  0.23496602895E-01  0.00000000000E+00 0.  1.
     999901    1    3    3    0    0 -0.66241907080E-01 -0.88560783241E-02 -0.12965803133E+00  0.89200763756E+00  0.88000000000E+00 0.  1.
        -11    1    4    4    0    0  0.34193435686E-01  0.19529475350E-01  0.63694962843E-01  0.74885918997E-01  0.51100000000E-03 0.  1.
         11    1    4    4    0    0  0.18239727814E-01  0.15023364451E-03  0.50334313981E-01  0.53539840547E-01  0.51100000000E-03 0. -1.
</event>
<event>
 8    1  0.1066842E+005  0.1043930E+01  0.7957747E-01            NaN
         13   -1    0    0    0    0  0.00000000000E+00  0.00000000000E+00  0.74505805969E-08  0.10566000000E+00  0.10566000000E+00 0.  1.
     999900   -1    0    0    0    0 -0.00000000000E+00 -0.00000000000E+00 -0.74505805969E-08  0.93827000000E+00  0.93827000000E+00 0.  1.
     999902    2    1    2    0    0  0.14124689821E-01  0.11843158892E-01 -0.16828266741E-01  0.10189708767E+01  0.10186651509E+01 0.  0.
     999903    2    3    3    0    0 -0.48346673528E-01  0.24210840801E-01  0.11312857880E+00  0.12715003565E+00  0.21106647573E-01 0.  0.
         14    1    1    2    0    0 -0.14124689821E-01 -0.11843158892E-01  0.16828266741E-01  0.24959123314E-01  0.00000000000E+00 0.  1.
     999901    1    3    3    0    0  0.62471363349E-01 -0.12367681909E-01 -0.12995684554E+00  0.89182084103E+00  0.88000000000E+00 0.  1.
        -11    1    4    4    0    0 -0.32510332365E-02  0.10305594964E-01  0.19498451862E-01  0.22298548174E-01  0.51100000000E-03 0.  1.
         11    1    4    4    0    0 -0.45095640292E-01  0.13905245837E-01  0.93630126940E-01  0.10485148748E+00  0.51100000000E-03 0. -1.
</event>
<event>
 8    1  0.1066842E+005  0.1043930E+01  0.7957747E-01            NaN
         13   -1    0    0    0    0  0.00000000000E+00  0.00000000000E+00  0.74505805969E-08  0.10566000000E+00  0.10566000000E+00 0. -1.
     999900   -1    0    0    0    0 -0.00000000000E+00 -0.00000000000E+00 -0.74505805969E-08  0.93827000000E+00  0.93827000000E+00 0.  1.
     999902    2    1    2    0    0 -0.19688665650E-02 -0.65464251516E-02 -0.23289609388E-01  0.10196578344E+01  0.10193689034E+01 0.  0.
     999903    2    3    3    0    0  0.79066434062E-01  0.90648961021E-01  0.40627882692E-01  0.12831103946E+00  0.18557016629E-01 0.  0.
         14    1    1    2    0    0  0.19688665650E-02  0.65464251516E-02  0.23289609388E-01  0.24272165607E-01  0.00000000000E+00 0. -1.
     999901    1    3    3    0    0 -0.81035300627E-01 -0.97195386173E-01 -0.63917492080E-01  0.89134679493E+00  0.88000000000E+00 0.  1.
        -11    1    4    4    0    0  0.45001964594E-01  0.64759192123E-01  0.28220972939E-01  0.83759263466E-01  0.51100000000E-03 0. -1.
         11    1    4    4    0    0  0.34064469468E-01  0.25889768898E-01  0.12406909753E-01  0.44551775995E-01  0.51100000000E-03 0.  1.
</event>
<event>
 8    1  0.1066842E+005  0.1043930E+01  0.7957747E-01            NaN
         13   -1    0    0    0    0  0.00000000000E+00  0.00000000000E+00  0.74505805969E-08  0.10566000000E+00  0.10566000000E+00 0. -1.
     999900   -1    0    0    0    0 -0.00000000000E+00 -0.00000000000E+00 -0.74505805969E-08  0.93827000000E+00  0.93827000000E+00 0. -1.
     999902    2    1    2    0    0 -0.21009979119E-01  0.10860769980E-01  0.29642737039E-03  0.10202770210E+01  0.10200028118E+01 0.  0.
     999903    2    3    3    0    0 -0.44128186284E-01  0.41344556048E-01 -0.11552623982E+00  0.13186348949E+00  0.19621382058E-01 0.  0.
         14    1    1    2    0    0  0.21009979119E-01 -0.10860769980E-01 -0.29642737039E-03  0.23652979016E-01  0.00000000000E+00 0. -1.
     999901    1    3    3    0    0  0.23118207164E-01 -0.30483786068E-01  0.11582266719E+00  0.88841353150E+00  0.88000000000E+00 0.  1.
        -11    1    4    4    0    0 -0.19276910094E-01  0.16635870124E-01 -0.29505106205E-01  0.38976452516E-01  0.51100000000E-03 0.  1.
         11    1    4    4    0    0 -0.24851276190E-01  0.24708685924E-01 -0.86021133610E-01  0.92887036969E-01  0.51100000000E-03 0. -1.
</event>
<event>
 8    1  0.1066842E+005  0.1043930E+01  0.7957747E-01            NaN
         13   -1    0    0    0    0  0.00000000000E+00  0.00000000000E+00  0.74505805969E-08  0.10566000000E+00  0.10566000000E+00 0. -1.
     999900   -1    0    0    0    0 -0.00000000000E+00 -0.00000000000E+00 -0.74505805969E-08  0.93827000000E+00  0.93827000000E+00 0.  1.
     999902    2    1    2    0    0 -0.58947122350E-02 -0.22879346304E-01 -0.63363291611E-02  0.10194685776E+01  0.10191750681E+01 0.  0.
     999903    2    3    3    0    0 -0.10070034597E+00  0.65539981873E-01 -0.44387509750E-01  0.12915740831E+00  0.16593257578E-01 0.  0.
         14    1    1    2    0    0  0.58947122350E-02  0.22879346304E-01  0.63363291611E-02  0.24461422421E-01  0.00000000000E+00 0. -1.
     999901    1    3    3    0    0  0.94805633734E-01 -0.88419328177E-01  0.38051180589E-01  0.89031116927E+00  0.88000000000E+00 0.  1.
        -11    1    4    4    0    0 -0.47619761544E-01  0.21267061461E-01 -0.18164578877E-01  0.55228096468E-01  0.51100000000E-03 0.  1.
         11    1    4    4    0    0 -0.53080584425E-01  0.44272920411E-01 -0.26222930874E-01  0.73929311841E-01  0.51100000000E-03 0. -1.
</event>
<event>
 8    1  0.1066842E+005  0.1043930E+01  0.7957747E-01            NaN
         13   -1    0    0    0    0  0.00000000000E+00  0.00000000000E+00  0.74505805969E-08  0.10566000000E+00  0.10566000000E+00 0.  1.
     999900   -1    0    0    0    0 -0.00000000000E+00 -0.00000000000E+00 -0.74505805969E-08  0.93827000000E+00  0.93827000000E+00 0.  1.
     999902    2    1    2    0    0 -0.19684772171E-01  0.13267994328E-01  0.32291850458E-02  0.10199725885E+01  0.10196911904E+01 0.  0.
     999903    2    3    3    0    0 -0.94555010894E-01 -0.66671476970E-01 -0.58228251858E-01  0.13105589486E+00  0.19984552427E-01 0.  0.
         14    1    1    2    0    0  0.19684772171E-01 -0.13267994328E-01 -0.32291850458E-02  0.23957411483E-01  0.00000000000E+00 0. -1.
     999901    1    3    3    0    0  0.74870238722E-01  0.79939471298E-01  0.61457436903E-01  0.88891669366E+00  0.88000000000E+00 0. -1.
        -11    1    4    4    0    0 -0.25764372654E-01 -0.28884896567E-01 -0.15550550684E-01  0.41715954928E-01  0.51100000000E-03 0.  1.
         11    1    4    4    0    0 -0.68790638240E-01 -0.37786580402E-01 -0.42677701174E-01  0.89339939928E-01  0.51100000000E-03 0. -1.
</event>
<event>
 8    1  0.1066842E+005  0.1043930E+01  0.7957747E-01            NaN
         13   -1    0    0    0    0  0.00000000000E+00  0.00000000000E+00  0.74505805969E-08  0.10566000000E+00  0.10566000000E+00 0. -1.
     999900   -1    0    0    0    0 -0.00000000000E+00 -0.00000000000E+00 -0.74505805969E-08  0.93827000000E+00  0.93827000000E+00 0.  1.
     999902    2    1    2    0    0 -0.15903482938E-01  0.15472155462E-01 -0.10228696611E-01  0.10194977549E+01  0.10192049537E+01 0.  0.
     999903    2    3    3    0    0  0.11237230806E+00 -0.44935703553E-01 -0.36014409052E-01  0.12777543776E+00  0.19564553741E-01 0.  0.
         14    1    1    2    0    0  0.15903482938E-01 -0.15472155462E-01  0.10228696611E-01  0.24432245058E-01  0.00000000000E+00 0.  1.
     999901    1    3    3    0    0 -0.12827579100E+00  0.60407859016E-01  0.25785712441E-01  0.89172231718E+00  0.88000000000E+00 0. -1.
        -11    1    4    4    0    0  0.67039717917E-01 -0.35725280523E-01 -0.27150069803E-01  0.80672218626E-01  0.51100000000E-03 0. -1.
         11    1    4    4    0    0  0.45332590146E-01 -0.92104230303E-02 -0.88643392492E-02  0.47103219137E-01  0.51100000000E-03 0.  1.
</event>
<event>
 8    1  0.1066842E+005  0.1043930E+01  0.7957747E-01            NaN
         13   -1    0    0    0    0  0.00000000000E+00  0.00000000000E+00  0.74505805969E-08  0.10566000000E+00  0.10566000000E+00 0. -1.
     999900   -1    0    0    0    0 -0.00000000000E+00 -0.00000000000E+00 -0.74505805969E-08  0.93827000000E+00  0.93827000000E+00 0. -1.
     999902    2    1    2    0    0  0.21476477782E-01  0.12776929995E-01 -0.23150574335E-02  0.10188332168E+01  0.10185240670E+01 0.  0.
     999903    2    3    3    0    0 -0.96948718912E-01  0.39074351001E-01 -0.71280205736E-01  0.12783811394E+00  0.18326391963E-01 0.  0.
         14    1    1    2    0    0 -0.21476477782E-01 -0.12776929995E-01  0.23150574335E-02  0.25096783238E-01  0.00000000000E+00 0.  1.
     999901    1    3    3    0    0  0.11842519669E+00 -0.26297421006E-01  0.68965148302E-01  0.89099510282E+00  0.88000000000E+00 0.  1.
        -11    1    4    4    0    0 -0.59779936153E-01  0.33477762925E-01 -0.46959380457E-01  0.83065311116E-01  0.51100000000E-03 0. -1.
         11    1    4    4    0    0 -0.37168782759E-01  0.55965880756E-02 -0.24320825278E-01  0.44772802828E-01  0.51100000000E-03 0.  1.
</event>
<event>
 8    1  0.1066842E+005  0.1043930E+01  0.7957747E-01            NaN
         13   -1    0    0    0    0  0.00000000000E+00  0.00000000000E+00  0.74505805969E-08  0.10566000000E+00  0.10566000000E+00 0.  1.
     999900   -1    0    0    0    0 -0.00000000000E+00 -0.00000000000E+00 -0.74505805969E-08  0.93827000000E+00  0.93827000000E+00 0. -1.
     999902    2    1    2    0    0  0.99134915324E-02  0.68830922767E-02  0.20507490160E-01  0.10201348025E+01  0.10198572468E+01 0.  0.
     999903    2    3    3    0    0 -0.13246764136E-01 -0.13938117449E-06  0.13106941997E+00  0.13288753329E+00  0.17447833408E-01 0.  0.
         14    1    1    2    0    0 -0.99134915324E-02 -0.68830922767E-02 -0.20507490160E-01  0.23795197547E-01  0.00000000000E+00 0. -1.
     999901    1    3    3    0    0  0.23160255669E-01  0.68832316579E-02 -0.11056192981E+00  0.88724726917E+00  0.88000000000E+00 0. -1.
        -11    1    4    4    0    0 -0.15880443320E-01  0.33810088315E-02  0.79791247258E-01  0.81428029331E-01  0.51100000000E-03 0.  1.
         11    1    4    4    0    0  0.26336791837E-02 -0.33811482127E-02  0.51278172715E-01  0.51459503954E-01  0.51100000000E-03 0. -1.
</event>
<event>
 8    1  0.1066842E+005  0.1043930E+01  0.7957747E-01            NaN
         13   -1    0    0    0    0  0.00000000000E+00  0.00000000000E+00  0.74505805969E-08  0.10566000000E+00  0.10566000000E+00 0.  1.
     999900   -1    0    0    0    0 -0.00000000000E+00 -0.00000000000E+00 -0.74505805969E-08  0.93827000000E+00  0.93827000000E+00 0.  1.
     999902    2    1    2    0    0  0.15087121448E-01  0.17705294493E-01 -0.87988098789E-02  0.10190599831E+01  0.10187564632E+01 0.  0.
     999903    2    3    3    0    0  0.10590965230E+00  0.60398299871E-01  0.45337757004E-01  0.13170312549E+00  0.20625032763E-01 0.  0.
         14    1    1    2    0    0 -0.15087121448E-01 -0.17705294493E-01  0.87988098789E-02  0.24870016928E-01  0.00000000000E+00 0.  1.
     999901    1    3    3    0    0 -0.90822530854E-01 -0.42693005378E-01 -0.54136566883E-01  0.88735685758E+00  0.88000000000E+00 0.  1.
        -11    1    4    4    0    0  0.44818404173E-02  0.71495949941E-02 -0.12551574993E-03  0.84546127829E-02  0.51100000000E-03 0.  1.
         11    1    4    4    0    0  0.10142781188E+00  0.53248704877E-01  0.45463272754E-01  0.12324851271E+00  0.51100000000E-03 0. -1.
</event>
<event>
 8    1  0.1066842E+005  0.1043930E+01  0.7957747E-01            NaN
         13   -1    0    0    0    0  0.00000000000E+00  0.00000000000E+00  0.74505805969E-08  0.10566000000E+00  0.10566000000E+00 0. -1.
     999900   -1    0    0    0    0 -0.00000000000E+00 -0.00000000000E+00 -0.74505805969E-08  0.93827000000E+00  0.93827000000E+00 0.  1.
     999902    2    1    2    0    0  0.20878385570E-01 -0.57473474852E-02 -0.18696445854E-02  0.10221944402E+01  0.10219633257E+01 0.  0.
     999903    2    3    3    0    0  0.27844545200E-01  0.75596792721E-01  0.10294286603E+00  0.13222193566E+00  0.19879960688E-01 0.  0.
         14    1    1    2    0    0 -0.20878385570E-01  0.57473474852E-02  0.18696445854E-02  0.21735559758E-01  0.00000000000E+00 0. -1.
     999901    1    3    3    0    0 -0.69661596295E-02 -0.81344140206E-01 -0.10481251061E+00  0.88997250458E+00  0.88000000000E+00 0.  1.
        -11    1    4    4    0    0  0.91546782759E-02  0.61054089183E-02  0.13682407033E-01  0.17565692005E-01  0.51100000000E-03 0.  1.
         11    1    4    4    0    0  0.18689866924E-01  0.69491383803E-01  0.89260458996E-01  0.11465624366E+00  0.51100000000E-03 0. -1.
</event>
<event>
 8    1  0.1066842E+005  0.1043930E+01  0.7957747E-01            NaN
         13   -1    0    0    0    0  0.00000000000E+00  0.00000000000E+00  0.74505805969E-08  0.10566000000E+00  0.10566000000E+00 0. -1.
     999900   -1    0    0    0    0 -0.00000000000E+00 -0.00000000000E+00 -0.74505805969E-08  0.93827000000E+00  0.93827000000E+00 0.  1.
     999902    2    1    2    0    0  0.16121140727E-01 -0.12360131357E-03 -0.17754128158E-01  0.10199484337E+01  0.10196664611E+01 0.  0.
     999903    2    3    3    0    0  0.10831438044E+00  0.15118071743E-01 -0.73501679897E-01  0.13324685393E+00  0.19790554034E-01 0.  0.
         14    1    1    2    0    0 -0.16121140727E-01  0.12360131357E-03  0.17754128158E-01  0.23981566301E-01  0.00000000000E+00 0. -1.
     999901    1    3    3    0    0 -0.92193239718E-01 -0.15241673057E-01  0.55747551739E-01  0.88670157977E+00  0.88000000000E+00 0. -1.
        -11    1    4    4    0    0  0.83291913521E-01  0.12999653908E-01 -0.46131227188E-01  0.96098309573E-01  0.51100000000E-03 0.  1.
         11    1    4    4    0    0  0.25022466923E-01  0.21184178345E-02 -0.27370452709E-01  0.37148544353E-01  0.51100000000E-03 0. -1.
</event>
<event>
 8    1  0.1066842E+005  0.1043930E+01  0.7957747E-01            NaN
         13   -1    0    0    0    0  0.00000000000E+00  0.00000000000E+00  0.74505805969E-08  0.10566000000E+00  0.10566000000E+00 0.  1.
     999900   -1    0    0    0    0 -0.00000000000E+00 -0.00000000000E+00 -0.74505805969E-08  0.93827000000E+00  0.93827000000E+00 0. -1.
     999902    2    1    2    0    0  0.23752264086E-01 -0.31157880674E-02  0.84972610869E-03  0.10199591798E+01  0.10196774629E+01 0.  0.
     999903    2    3    3    0    0 -0.81280721521E-01 -0.98108396187E-01 -0.39192636410E-02  0.12862407623E+00  0.17233086389E-01 0.  0.
         14    1    1    2    0    0 -0.23752264086E-01  0.31157880674E-02 -0.84972610869E-03  0.23970820156E-01  0.00000000000E+00 0. -1.
     999901    1    3    3    0    0  0.10503298561E+00  0.94992608119E-01  0.47689897497E-02  0.89133510361E+00  0.88000000000E+00 0. -1.
        -11    1    4    4    0    0 -0.66966182518E-01 -0.82801026188E-01 -0.95412406499E-02  0.10691948341E+00  0.51100000000E-03 0. -1.
         11    1    4    4    0    0 -0.14314539002E-01 -0.15307369999E-01  0.56219770089E-02  0.21704592823E-01  0.51100000000E-03 0.  1.
</event>
<event>
 8    1  0.1066842E+005  0.1043930E+01  0.7957747E-01            NaN
         13   -1    0    0    0    0  0.00000000000E+00  0.00000000000E+00  0.74505805969E-08  0.10566000000E+00  0.10566000000E+00 0.  1.
     999900   -1    0    0    0    0 -0.00000000000E+00 -0.00000000000E+00 -0.74505805969E-08  0.93827000000E+00  0.93827000000E+00 0. -1.
     999902    2    1    2    0    0 -0.10997829894E-01 -0.66386026095E-02  0.19980172230E-01  0.10201764615E+01  0.10198998883E+01 0.  0.
     999903    2    3    3    0    0  0.19840781093E-01  0.11684572341E-03  0.12976727711E+00  0.13279274273E+00  0.20017394100E-01 0.  0.
         14    1    1    2    0    0  0.10997829894E-01  0.66386026095E-02 -0.19980172230E-01  0.23753538459E-01  0.00000000000E+00 0. -1.
     999901    1    3    3    0    0 -0.30838610986E-01 -0.67554483329E-02 -0.10978710488E+00  0.88738371881E+00  0.88000000000E+00 0. -1.
        -11    1    4    4    0    0  0.37150389962E-02 -0.72380759373E-02  0.19917358227E-01  0.21521002248E-01  0.51100000000E-03 0. -1.
         11    1    4    4    0    0  0.16125742096E-01  0.73549216607E-02  0.10984991888E+00  0.11127174048E+00  0.51100000000E-03 0.  1.
</event>
<event>
 8    1  0.1066842E+005  0.1043930E+01  0.7957747E-01            NaN
         13   -1    0    0    0    0  0.00000000000E+00  0.00000000000E+00  0.74505805969E-08  0.10566000000E+00  0.10566000000E+00 0.  1.
     999900   -1    0    0    0    0 -0.00000000000E+00 -0.00000000000E+00 -0.74505805969E-08  0.93827000000E+00  0.93827000000E+00 0.  1.
     999902    2    1    2    0    0 -0.31136031006E-02  0.20145820707E-01  0.12179688800E-01  0.10201835595E+01  0.10199071535E+01 0.  0.
     999903    2    3    3    0    0 -0.47373142173E-01  0.22581367941E-01  0.12070843857E+00  0.13240919167E+00  0.14406044473E-01 0.  0.
         14    1    1    2    0    0  0.31136031006E-02 -0.20145820707E-01 -0.12179688800E-01  0.23746440480E-01  0.00000000000E+00 0. -1.
     999901    1    3    3    0    0  0.44259539072E-01 -0.24355472344E-02 -0.10852874977E+00  0.88777436785E+00  0.88000000000E+00 0.  1.
        -11    1    4    4    0    0 -0.93449461132E-02  0.93389426961E-02  0.41434730915E-01  0.43493009962E-01  0.51100000000E-03 0.  1.
         11    1    4    4    0    0 -0.38028196060E-01  0.13242425245E-01  0.79273707659E-01  0.88916181705E-01  0.51100000000E-03 0. -1.
</event>
<event>
 8    1  0.1066842E+005  0.1043930E+01  0.7957747E-01            NaN
         13   -1    0    0    0    0  0.00000000000E+00  0.00000000000E+00  0.74505805969E-08  0.10566000000E+00  0.10566000000E+00 0.  1.
     999900   -1    0    0    0    0 -0.00000000000E+00 -0.00000000000E+00 -0.74505805969E-08  0.93827000000E+00  0.93827000000E+00 0. -1.
     999902    2    1    2    0    0  0.81528222577E-02  0.20492804379E-01 -0.84175967226E-02  0.10203232324E+01  0.10200501062E+01 0.  0.
     999903    2    3    3    0    0  0.11589161410E+00 -0.28103175062E-01  0.49326360640E-01  0.13054596752E+00  0.19710533045E-01 0.  0.
         14    1    1    2    0    0 -0.81528222577E-02 -0.20492804379E-01  0.84175967226E-02  0.23606767603E-01  0.00000000000E+00 0. -1.
     999901    1    3    3    0    0 -0.10773879184E+00  0.48595979441E-01 -0.57743957363E-01  0.88977726488E+00  0.88000000000E+00 0. -1.
        -11    1    4    4    0    0  0.30914414547E-01 -0.58605717725E-02  0.40686534034E-02  0.31731094999E-01  0.51100000000E-03 0.  1.
         11    1    4    4    0    0  0.84977199555E-01 -0.22242603290E-01  0.45257707237E-01  0.98814872518E-01  0.51100000000E-03 0. -1.
</event>
<event>
 8    1  0.1066842E+005  0.1043930E+01  0.7957747E-01            NaN
         13   -1    0    0    0    0  0.00000000000E+00  0.00000000000E+00  0.74505805969E-08  0.10566000000E+00  0.10566000000E+00 0. -1.
     999900   -1    0    0    0    0 -0.00000000000E+00 -0.00000000000E+00 -0.74505805969E-08  0.93827000000E+00  0.93827000000E+00 0.  1.
     999902    2    1    2    0    0 -0.16501057612E-01  0.14663198155E-01  0.11718004652E-01  0.10189378829E+01  0.10186313383E+01 0.  0.
     999903    2    3    3    0    0  0.81508748104E-01 -0.58559523864E-01  0.77032724266E-01  0.12807678173E+00  0.19918020944E-01 0.  0.
         14    1    1    2    0    0  0.16501057612E-01 -0.14663198155E-01 -0.11718004652E-01  0.24992117067E-01  0.00000000000E+00 0.  1.
     999901    1    3    3    0    0 -0.98009805716E-01  0.73222722019E-01 -0.65314719613E-01  0.89086110120E+00  0.88000000000E+00 0.  1.
        -11    1    4    4    0    0  0.38358710521E-01 -0.21545624812E-01  0.44477975043E-01  0.62563216080E-01  0.51100000000E-03 0.  1.
         11    1    4    4    0    0  0.43150037583E-01 -0.37013899051E-01  0.32554749223E-01  0.65513565652E-01  0.51100000000E-03 0. -1.
</event>
<event>
 8    1  0.1066842E+005  0.1043930E+01  0.7957747E-01            NaN
         13   -1    0    0    0    0  0.00000000000E+00  0.00000000000E+00  0.74505805969E-08  0.10566000000E+00  0.10566000000E+00 0. -1.
     999900   -1    0    0    0    0 -0.00000000000E+00 -0.00000000000E+00 -0.74505805969E-08  0.93827000000E+00  0.93827000000E+00 0.  1.
     999902    2    1    2    0    0  0.12185790914E-01 -0.13062978487E-01  0.15451039363E-01  0.10203107383E+01  0.10200373195E+01 0.  0.
     999903    2    3    3    0    0 -0.61341979617E-01  0.42520271664E-01 -0.10178886332E+00  0.12776324625E+00  0.19790463119E-01 0.  0.
         14    1    1    2    0    0 -0.12185790914E-01  0.13062978487E-01 -0.15451039363E-01  0.23619261727E-01  0.00000000000E+00 0.  1.
     999901    1    3    3    0    0  0.73527770532E-01 -0.55583250151E-01  0.11723990268E+00  0.89254749202E+00  0.88000000000E+00 0. -1.
        -11    1    4    4    0    0 -0.89379498918E-02  0.38348840905E-03 -0.19739284440E-01  0.21677972295E-01  0.51100000000E-03 0. -1.
         11    1    4    4    0    0 -0.52404029726E-01  0.42136783255E-01 -0.82049578880E-01  0.10608527395E+00  0.51100000000E-03 0.  1.
</event>
<event>
 8    1  0.1066842E+005  0.1043930E+01  0.7957747E-01            NaN
         13   -1    0    0    0    0  0.00000000000E+00  0.00000000000E+00  0.74505805969E-08  0.10566000000E+00  0.10566000000E+00 0.  1.
     999900   -1    0    0    0    0 -0.00000000000E+00 -0.00000000000E+00 -0.74505805969E-08  0.93827000000E+00  0.93827000000E+00 0.  1.
     999902    2    1    2    0    0  0.69330140548E-02  0.18370896919E-01  0.11743493541E-01  0.10210506167E+01  0.10207942475E+01 0.  0.
     999903    2    3    3    0    0 -0.10743429201E+00  0.73028001506E-01  0.10864583823E-01  0.13196791404E+00  0.20549332098E-01 0.  0.
         14    1    1    2    0    0 -0.69330140548E-02 -0.18370896919E-01 -0.11743493541E-01  0.22879383253E-01  0.00000000000E+00 0.  1.
     999901    1    3    3    0    0  0.11436730606E+00 -0.54657104586E-01  0.87890971833E-03  0.88908270271E+00  0.88000000000E+00 0. -1.
        -11    1    4    4    0    0 -0.85446201116E-01  0.60795574943E-01  0.16551089813E-01  0.10616663747E+00  0.51100000000E-03 0.  1.
         11    1    4    4    0    0 -0.21988090894E-01  0.12232426563E-01 -0.56865059902E-02  0.25801276560E-01  0.51100000000E-03 0. -1.
</event>
<event>
 8    1  0.1066842E+005  0.1043930E+01  0.7957747E-01            NaN
         13   -1    0    0    0    0  0.00000000000E+00  0.00000000000E+00  0.74505805969E-08  0.10566000000E+00  0.10566000000E+00 0. -1.
     999900   -1    0    0    0    0 -0.00000000000E+00 -0.00000000000E+00 -0.74505805969E-08  0.93827000000E+00  0.93827000000E+00 0.  1.
     999902    2    1    2    0    0 -0.22681435797E-01  0.63122737070E-02  0.22048042622E-02  0.10202835734E+01  0.10200095179E+01 0.  0.
     999903    2    3    3    0    0 -0.67280093086E-01  0.11163920468E+00  0.15535679389E-01  0.13278117067E+00  0.19988972043E-01 0.  0.
         14    1    1    2    0    0  0.22681435797E-01 -0.63122737070E-02 -0.22048042622E-02  0.23646426601E-01  0.00000000000E+00 0.  1.
     999901    1    3    3    0    0  0.44598657290E-01 -0.10532693097E+00 -0.13330875127E-01  0.88750240273E+00  0.88000000000E+00 0.  1.
        -11    1    4    4    0    0 -0.20865440347E-01  0.33943777195E-01 -0.44522377362E-02  0.40095263473E-01  0.51100000000E-03 0.  1.
         11    1    4    4    0    0 -0.46414652740E-01  0.77695427483E-01  0.19987917126E-01  0.92685907196E-01  0.51100000000E-03 0. -1.
</event>
<event>
 8    1  0.1066842E+005  0.1043930E+01  0.7957747E-01            NaN
         13   -1    0    0    0    0  0.00000000000E+00  0.00000000000E+00  0.74505805969E-08  0.10566000000E+00  0.10566000000E+00 0.  1.
     999900   -1    0    0    0    0 -0.00000000000E+00 -0.00000000000E+00 -0.74505805969E-08  0.93827000000E+00  0.93827000000E+00 0.  1.
     999902    2    1    2    0    0 -0.55979718137E-02 -0.94463700064E-02 -0.21044976466E-01  0.10201926406E+01  0.10199164484E+01 0.  0.
     999903    2    3    3    0    0  0.57846244219E-01 -0.30873729365E-01  0.10809034106E+00  0.12825080930E+00  0.21572508433E-01 0.  0.
         14    1    1    2    0    0  0.55979718137E-02  0.94463700064E-02  0.21044976466E-01  0.23737359355E-01  0.00000000000E+00 0.  1.
     999901    1    3    3    0    0 -0.63444216032E-01  0.21427359358E-01 -0.12913531752E+00  0.89194183135E+00  0.88000000000E+00 0.  1.
        -11    1    4    4    0    0  0.47276158646E-01 -0.16140676418E-01  0.69316167573E-01  0.85443249116E-01  0.51100000000E-03 0.  1.
         11    1    4    4    0    0  0.10570085573E-01 -0.14733052947E-01  0.38774173485E-01  0.42807560180E-01  0.51100000000E-03 0. -1.
</event>
<event>
 8    1  0.1066842E+005  0.1043930E+01  0.7957747E-01            NaN
         13   -1    0    0    0    0  0.00000000000E+00  0.00000000000E+00  0.74505805969E-08  0.10566000000E+00  0.10566000000E+00 0. -1.
     999900   -1    0    0    0    0 -0.00000000000E+00 -0.00000000000E+00 -0.74505805969E-08  0.93827000000E+00  0.93827000000E+00 0.  1.
     999902    2    1    2    0    0  0.11267678854E-01 -0.29251208621E-02 -0.20805437797E-01  0.10200892122E+01  0.10198105794E+01 0.  0.
     999903    2    3    3    0    0 -0.26561928724E-01  0.12041491819E+00  0.32352445667E-01  0.12909560676E+00  0.20339772926E-01 0.  0.
         14    1    1    2    0    0 -0.11267678854E-01  0.29251208621E-02  0.20805437797E-01  0.23840787755E-01  0.00000000000E+00 0. -1.
     999901    1    3    3    0    0  0.37829607578E-01 -0.12334003906E+00 -0.53157883464E-01  0.89099360549E+00  0.88000000000E+00 0.  1.
        -11    1    4    4    0    0 -0.18562703408E-01  0.48372262865E-01  0.20120154273E-01  0.55583554235E-01  0.51100000000E-03 0. -1.
         11    1    4    4    0    0 -0.79992253165E-02  0.72042655328E-01  0.12232291394E-01  0.73512052523E-01  0.51100000000E-03 0.  1.
</event>
<event>
 8    1  0.1066842E+005  0.1043930E+01  0.7957747E-01            NaN
         13   -1    0    0    0    0  0.00000000000E+00  0.00000000000E+00  0.74505805969E-08  0.10566000000E+00  0.10566000000E+00 0.  1.
     999900   -1    0    0    0    0 -0.00000000000E+00 -0.00000000000E+00 -0.74505805969E-08  0.93827000000E+00  0.93827000000E+00 0.  1.
     999902    2    1    2    0    0  0.17360558127E-01  0.72321567345E-02 -0.14510236511E-01  0.10201762628E+01  0.10198996848E+01 0.  0.
     999903    2    3    3    0    0 -0.20979111435E-01  0.49803300520E-01  0.11518106393E+00  0.12882780903E+00  0.20234501038E-01 0.  0.
         14    1    1    2    0    0 -0.17360558127E-01 -0.72321567345E-02  0.14510236511E-01  0.23753737245E-01  0.00000000000E+00 0.  1.
     999901    1    3    3    0    0  0.38339669563E-01 -0.42571143785E-01 -0.12969130044E+00  0.89134845372E+00  0.88000000000E+00 0.  1.
        -11    1    4    4    0    0 -0.13731998484E-01  0.34859619763E-01  0.98033087620E-01  0.10495002745E+00  0.51100000000E-03 0.  1.
         11    1    4    4    0    0 -0.72471129514E-02  0.14943680757E-01  0.17147976310E-01  0.23877781581E-01  0.51100000000E-03 0. -1.
</event>
<event>
 8    1  0.1066842E+005  0.1043930E+01  0.7957747E-01            NaN
         13   -1    0    0    0    0  0.00000000000E+00  0.00000000000E+00  0.74505805969E-08  0.10566000000E+00  0.10566000000E+00 0. -1.
     999900   -1    0    0    0    0 -0.00000000000E+00 -0.00000000000E+00 -0.74505805969E-08  0.93827000000E+00  0.93827000000E+00 0. -1.
     999902    2    1    2    0    0  0.22653462018E-01  0.22816567142E-02 -0.10154454182E-01  0.10190001336E+01  0.10186951330E+01 0.  0.
     999903    2    3    3    0    0  0.85670121938E-01 -0.95429934036E-01  0.17404898697E-01  0.13092458934E+00  0.19800896235E-01 0.  0.
         14    1    1    2    0    0 -0.22653462018E-01 -0.22816567142E-02  0.10154454182E-01  0.24929866395E-01  0.00000000000E+00 0. -1.
     999901    1    3    3    0    0 -0.63016659920E-01  0.97711590750E-01 -0.27559352879E-01  0.88807554427E+00  0.88000000000E+00 0.  1.
        -11    1    4    4    0    0  0.52802572627E-01 -0.52529530918E-01  0.18951883490E-01  0.76856348490E-01  0.51100000000E-03 0. -1.
         11    1    4    4    0    0  0.32867549311E-01 -0.42900403118E-01 -0.15469847926E-02  0.54068240848E-01  0.51100000000E-03 0.  1.
</event>
<event>
 8    1  0.1066842E+005  0.1043930E+01  0.7957747E-01            NaN
         13   -1    0    0    0    0  0.00000000000E+00  0.00000000000E+00  0.74505805969E-08  0.10566000000E+00  0.10566000000E+00 0.  1.
     999900   -1    0    0    0    0 -0.00000000000E+00 -0.00000000000E+00 -0.74505805969E-08  0.93827000000E+00  0.93827000000E+00 0.  1.
     999902    2    1    2    0    0  0.12063808445E-01  0.73074416014E-02 -0.18529364167E-01  0.10206432760E+01  0.10203775896E+01 0.  0.
     999903    2    3    3    0    0  0.46878675377E-01  0.25686134201E-02  0.11882046640E+00  0.12929625752E+00  0.19874883443E-01 0.  0.
         14    1    1    2    0    0 -0.12063808445E-01 -0.73074416014E-02  0.18529364167E-01  0.23286723973E-01  0.00000000000E+00 0. -1.
     999901    1    3    3    0    0 -0.34814866932E-01  0.47388281813E-02 -0.13734983057E+00  0.89134701851E+00  0.88000000000E+00 0.  1.
        -11    1    4    4    0    0  0.18834752933E-01  0.10843035497E-01  0.50625963086E-01  0.55095994375E-01  0.51100000000E-03 0. -1.
         11    1    4    4    0    0  0.28043922444E-01 -0.82744220766E-02  0.68194503315E-01  0.74200263140E-01  0.51100000000E-03 0.  1.
</event>
<event>
 8    1  0.1066842E+005  0.1043930E+01  0.7957747E-01            NaN
         13   -1    0    0    0    0  0.00000000000E+00  0.00000000000E+00  0.74505805969E-08  0.10566000000E+00  0.10566000000E+00 0. -1.
     999900   -1    0    0    0    0 -0.00000000000E+00 -0.00000000000E+00 -0.74505805969E-08  0.93827000000E+00  0.93827000000E+00 0.  1.
     999902    2    1    2    0    0  0.12627963121E-01  0.18522045955E-01 -0.10019916053E-01  0.10193753598E+01  0.10190795817E+01 0.  0.
     999903    2    3    3    0    0  0.41190437200E-01 -0.94131062803E-01  0.72997045179E-01  0.12786071957E+00  0.21505485434E-01 0.  0.
         14    1    1    2    0    0 -0.12627963121E-01 -0.18522045955E-01  0.10019916053E-01  0.24554640227E-01  0.00000000000E+00 0. -1.
     999901    1    3    3    0    0 -0.28562474079E-01  0.11265310876E+00 -0.83016961233E-01  0.89151464020E+00  0.88000000000E+00 0.  1.
        -11    1    4    4    0    0  0.54219133803E-02 -0.38060796972E-01  0.27858753891E-01  0.47480445450E-01  0.51100000000E-03 0.  1.
         11    1    4    4    0    0  0.35768523820E-01 -0.56070265831E-01  0.45138291289E-01  0.80380274123E-01  0.51100000000E-03 0. -1.
</event>
<event>
 8    1  0.1066842E+005  0.1043930E+01  0.7957747E-01            NaN
         13   -1    0    0    0    0  0.00000000000E+00  0.00000000000E+00  0.74505805969E-08  0.10566000000E+00  0.10566000000E+00 0. -1.
     999900   -1    0    0    0    0 -0.00000000000E+00 -0.00000000000E+00 -0.74505805969E-08  0.93827000000E+00  0.93827000000E+00 0. -1.
     999902    2    1    2    0    0 -0.14701132262E-01  0.20338320466E-02 -0.18331511014E-01  0.10203439012E+01  0.10200712586E+01 0.  0.
     999903    2    3    3    0    0 -0.38299983919E-01  0.81312493495E-01 -0.96138046363E-01  0.13304695599E+00  0.19502773471E-01 0.  0.
         14    1    1    2    0    0  0.14701132262E-01 -0.20338320466E-02  0.18331511014E-01  0.23586098843E-01  0.00000000000E+00 0. -1.
     999901    1    3    3    0    0  0.23598851657E-01 -0.79278661448E-01  0.77806535348E-01  0.88729694517E+00  0.88000000000E+00 0.  1.
        -11    1    4    4    0    0 -0.40337953170E-02  0.25681369468E-01 -0.34686721700E-01  0.43350132937E-01  0.51100000000E-03 0. -1.
         11    1    4    4    0    0 -0.34266188602E-01  0.55631124027E-01 -0.61451324663E-01  0.89696823052E-01  0.51100000000E-03 0.  1.
</event>
<event>
 8    1  0.1066842E+005  0.1043930E+01  0.7957747E-01            NaN
         13   -1    0    0    0    0  0.00000000000E+00  0.00000000000E+00  0.74505805969E-08  0.10566000000E+00  0.10566000000E+00 0.  1.
     999900   -1    0    0    0    0 -0.00000000000E+00 -0.00000000000E+00 -0.74505805969E-08  0.93827000000E+00  0.93827000000E+00 0.  1.
     999902    2    1    2    0    0 -0.25438307542E-01  0.70401098559E-03 -0.10183891530E-01  0.10165198784E+01  0.10161502587E+01 0.  0.
     999903    2    3    3    0    0  0.78389300323E-01  0.57720392410E-01  0.74828361820E-01  0.12452317257E+00  0.20741520419E-01 0.  0.
         14    1    1    2    0    0  0.25438307542E-01 -0.70401098559E-03  0.10183891530E-01  0.27410121648E-01  0.00000000000E+00 0. -1.
     999901    1    3    3    0    0 -0.10382760786E+00 -0.57016381424E-01 -0.85012253350E-01  0.89199670578E+00  0.88000000000E+00 0.  1.
        -11    1    4    4    0    0  0.60944233083E-01  0.38139648051E-01  0.63604995373E-01  0.95993170887E-01  0.51100000000E-03 0.  1.
         11    1    4    4    0    0  0.17445067240E-01  0.19580744359E-01  0.11223366446E-01  0.28530001684E-01  0.51100000000E-03 0. -1.
</event>
<event>
 8    1  0.1066842E+005  0.1043930E+01  0.7957747E-01            NaN
         13   -1    0    0    0    0  0.00000000000E+00  0.00000000000E+00  0.74505805969E-08  0.10566000000E+00  0.10566000000E+00 0.  1.
     999900   -1    0    0    0    0 -0.00000000000E+00 -0.00000000000E+00 -0.74505805969E-08  0.93827000000E+00  0.93827000000E+00 0. -1.
     999902    2    1    2    0    0 -0.64101512492E-02  0.21857686119E-01 -0.44110312255E-02  0.10207285846E+01  0.10204648635E+01 0.  0.
     999903    2    3    3    0    0  0.63044245599E-01 -0.37472302938E-01  0.10481188223E+00  0.12928391121E+00  0.18709587107E-01 0.  0.
         14    1    1    2    0    0  0.64101512492E-02 -0.21857686119E-01  0.44110312255E-02  0.23201415431E-01  0.00000000000E+00 0.  1.
     999901    1    3    3    0    0 -0.69454396848E-01  0.59329989057E-01 -0.10922291345E+00  0.89144467336E+00  0.88000000000E+00 0. -1.
        -11    1    4    4    0    0  0.16688176815E-01 -0.72454939742E-02  0.14101828065E-01  0.23024228633E-01  0.51100000000E-03 0.  1.
         11    1    4    4    0    0  0.46356068784E-01 -0.30226808964E-01  0.90710054164E-01  0.10625968257E+00  0.51100000000E-03 0. -1.
</event>
<event>
 8    1  0.1066842E+005  0.1043930E+01  0.7957747E-01            NaN
         13   -1    0    0    0    0  0.00000000000E+00  0.00000000000E+00  0.74505805969E-08  0.10566000000E+00  0.10566000000E+00 0. -1.
     999900   -1    0    0    0    0 -0.00000000000E+00 -0.00000000000E+00 -0.74505805969E-08  0.93827000000E+00  0.93827000000E+00 0. -1.
     999902    2    1    2    0    0 -0.12558073436E-01 -0.19089099744E-01  0.55405606370E-02  0.10204183699E+01  0.10201474662E+01 0.  0.
     999903    2    3    3    0    0  0.11730167924E+00  0.24357029590E-01  0.43099362622E-01  0.12903641747E+00  0.20973629465E-01 0.  0.
         14    1    1    2    0    0  0.12558073436E-01  0.19089099744E-01 -0.55405606370E-02  0.23511630092E-01  0.00000000000E+00 0.  1.
     999901    1    3    3    0    0 -0.12985975268E+00 -0.43446129333E-01 -0.37558801985E-01  0.89138195243E+00  0.88000000000E+00 0.  1.
        -11    1    4    4    0    0  0.42320079934E-01  0.17540636989E-01  0.22126961114E-01  0.50877565201E-01  0.51100000000E-03 0.  1.
         11    1    4    4    0    0  0.74981599306E-01  0.68163926010E-02  0.20972401508E-01  0.78158852272E-01  0.51100000000E-03 0. -1.
</event>
<event>
 8    1  0.1066842E+005  0.1043930E+01  0.7957747E-01            NaN
         13   -1    0    0    0    0  0.00000000000E+00  0.00000000000E+00  0.74505805969E-08  0.10566000000E+00  0.10566000000E+00 0.  1.
     999900   -1    0    0    0    0 -0.00000000000E+00 -0.00000000000E+00 -0.74505805969E-08  0.93827000000E+00  0.93827000000E+00 0.  1.
     999902    2    1    2    0    0 -0.20035635498E-01 -0.21809248269E-02 -0.10152913220E-01  0.10213631046E+01  0.10211137677E+01 0.  0.
     999903    2    3    3    0    0 -0.93467384121E-01 -0.56360623679E-01 -0.75496670669E-01  0.13423432692E+00  0.20160244214E-01 0.  0.
         14    1    1    2    0    0  0.20035635498E-01  0.21809248269E-02  0.10152913220E-01  0.22566895439E-01  0.00000000000E+00 0.  1.
     999901    1    3    3    0    0  0.73431748623E-01  0.54179698852E-01  0.65343757449E-01  0.88712877764E+00  0.88000000000E+00 0. -1.
        -11    1    4    4    0    0 -0.76246389704E-01 -0.43864698470E-01 -0.50599285753E-01  0.10147991207E+00  0.51100000000E-03 0.  1.
         11    1    4    4    0    0 -0.17220994417E-01 -0.12495925208E-01 -0.24897384916E-01  0.32754414850E-01  0.51100000000E-03 0. -1.
</event>
<event>
 8    1  0.1066842E+005  0.1043930E+01  0.7957747E-01            NaN
         13   -1    0    0    0    0  0.00000000000E+00  0.00000000000E+00  0.74505805969E-08  0.10566000000E+00  0.10566000000E+00 0. -1.
     999900   -1    0    0    0    0 -0.00000000000E+00 -0.00000000000E+00 -0.74505805969E-08  0.93827000000E+00  0.93827000000E+00 0.  1.
     999902    2    1    2    0    0  0.19037620234E-01  0.27028646409E-02  0.18126563494E-01  0.10175044675E+01  0.10171612619E+01 0.  0.
     999903    2    3    3    0    0  0.11401200301E+00 -0.56354891455E-01  0.21212018213E-01  0.13042077816E+00  0.19621901988E-01 0.  0.
         14    1    1    2    0    0 -0.19037620234E-01 -0.27028646409E-02 -0.18126563494E-01  0.26425532455E-01  0.00000000000E+00 0. -1.
     999901    1    3    3    0    0 -0.94974382778E-01  0.59057756096E-01 -0.30854547191E-02  0.88708368938E+00  0.88000000000E+00 0. -1.
        -11    1    4    4    0    0  0.81224907626E-01 -0.41169291109E-01  0.24009624524E-01  0.94176001933E-01  0.51100000000E-03 0. -1.
         11    1    4    4    0    0  0.32787095387E-01 -0.15185600346E-01 -0.27976063114E-02  0.36244776228E-01  0.51100000000E-03 0.  1.
</event>
<event>
 8    1  0.1066842E+005  0.1043930E+01  0.7957747E-01            NaN
         13   -1    0    0    0    0  0.00000000000E+00  0.00000000000E+00  0.74505805969E-08  0.10566000000E+00  0.10566000000E+00 0. -1.
     999900   -1    0    0    0    0 -0.00000000000E+00 -0.00000000000E+00 -0.74505805969E-08  0.93827000000E+00  0.93827000000E+00 0.  1.
     999902    2    1    2    0    0 -0.88006923930E-02  0.14935807567E-02  0.21628276334E-01  0.10205320234E+01  0.10202637627E+01 0.  0.
     999903    2    3    3    0    0  0.11688917989E+00 -0.24058825301E-01 -0.41459288997E-01  0.12899912424E+00  0.26076693833E-01 0.  0.
         14    1    1    2    0    0  0.88006923930E-02 -0.14935807567E-02 -0.21628276334E-01  0.23397976563E-01  0.00000000000E+00 0.  1.
     999901    1    3    3    0    0 -0.12568987228E+00  0.25552406058E-01  0.63087565331E-01  0.89153289920E+00  0.88000000000E+00 0. -1.
        -11    1    4    4    0    0  0.68904656707E-01 -0.95180438111E-02 -0.36655059102E-01  0.78627599179E-01  0.51100000000E-03 0. -1.
         11    1    4    4    0    0  0.47984523180E-01 -0.14540781490E-01 -0.48042298944E-02  0.50371525062E-01  0.51100000000E-03 0.  1.
</event>
<event>
 8    1  0.1066842E+005  0.1043930E+01  0.7957747E-01            NaN
         13   -1    0    0    0    0  0.00000000000E+00  0.00000000000E+00  0.74505805969E-08  0.10566000000E+00  0.10566000000E+00 0. -1.
     999900   -1    0    0    0    0 -0.00000000000E+00 -0.00000000000E+00 -0.74505805969E-08  0.93827000000E+00  0.93827000000E+00 0.  1.
     999902    2    1    2    0    0  0.26921986998E-02  0.15155267044E-01 -0.13200282740E-01  0.10236524874E+01  0.10234516293E+01 0.  0.
     999903    2    3    3    0    0 -0.74082005133E-01 -0.95948638645E-01 -0.49903245357E-01  0.13259386772E+00  0.19912687343E-01 0.  0.
         14    1    1    2    0    0 -0.26921986998E-02 -0.15155267044E-01  0.13200282740E-01  0.20277512605E-01  0.00000000000E+00 0. -1.
     999901    1    3    3    0    0  0.76774203833E-01  0.11110390569E+00  0.36702962616E-01  0.89105861968E+00  0.88000000000E+00 0. -1.
        -11    1    4    4    0    0 -0.13174141648E-01 -0.87429536624E-02 -0.11272780445E-01  0.19425085505E-01  0.51100000000E-03 0.  1.
         11    1    4    4    0    0 -0.60907863485E-01 -0.87205684983E-01 -0.38630464912E-01  0.11316878221E+00  0.51100000000E-03 0. -1.
</event>
<event>
 8    1  0.1066842E+005  0.1043930E+01  0.7957747E-01            NaN
         13   -1    0    0    0    0  0.00000000000E+00  0.00000000000E+00  0.74505805969E-08  0.10566000000E+00  0.10566000000E+00 0.  1.
     999900   -1    0    0    0    0 -0.00000000000E+00 -0.00000000000E+00 -0.74505805969E-08  0.93827000000E+00  0.93827000000E+00 0. -1.
     999902    2    1    2    0    0  0.11924646377E-01 -0.21165951367E-01  0.30944503270E-02  0.10194397915E+01  0.10191455824E+01 0.  0.
     999903    2    3    3    0    0 -0.10745197606E+00 -0.19026696934E-01 -0.65182622047E-01  0.12875628263E+00  0.20529582184E-01 0.  0.
         14    1    1    2    0    0 -0.11924646377E-01  0.21165951367E-01 -0.30944503270E-02  0.24490208479E-01  0.00000000000E+00 0. -1.
     999901    1    3    3    0    0  0.11937662244E+00 -0.21392544336E-02  0.68277072374E-01  0.89068350889E+00  0.88000000000E+00 0. -1.
        -11    1    4    4    0    0 -0.70558755301E-01 -0.12135775981E-01 -0.31111436323E-01  0.78064060869E-01  0.51100000000E-03 0.  1.
         11    1    4    4    0    0 -0.36893220761E-01 -0.68909209524E-02 -0.34071185725E-01  0.50692221764E-01  0.51100000000E-03 0. -1.
</event>
<event>
 8    1  0.1066842E+005  0.1043930E+01  0.7957747E-01            NaN
         13   -1    0    0    0    0  0.00000000000E+00  0.00000000000E+00  0.74505805969E-08  0.10566000000E+00  0.10566000000E+00 0. -1.
     999900   -1    0    0    0    0 -0.00000000000E+00 -0.00000000000E+00 -0.74505805969E-08  0.93827000000E+00  0.93827000000E+00 0.  1.
     999902    2    1    2    0    0  0.67229987259E-02 -0.21071636226E-01  0.69185775121E-02  0.10207550290E+01  0.10204919157E+01 0.  0.
     999903    2    3    3    0    0  0.44900460596E-01 -0.10814070331E+00 -0.59902792583E-01  0.13311566726E+00  0.20517632395E-01 0.  0.
         14    1    1    2    0    0 -0.67229987259E-02  0.21071636226E-01 -0.69185775121E-02  0.23174970979E-01  0.00000000000E+00 0. -1.
     999901    1    3    3    0    0 -0.38177461870E-01  0.87069067079E-01  0.66821370095E-01  0.88763936176E+00  0.88000000000E+00 0. -1.
        -11    1    4    4    0    0  0.36995860598E-01 -0.69535297639E-01 -0.46614091325E-01  0.91525875851E-01  0.51100000000E-03 0. -1.
         11    1    4    4    0    0  0.79045999973E-02 -0.38605405666E-01 -0.13288701258E-01  0.41589791414E-01  0.51100000000E-03 0.  1.
</event>
<event>
 8    1  0.1066842E+005  0.1043930E+01  0.7957747E-01            NaN
         13   -1    0    0    0    0  0.00000000000E+00  0.00000000000E+00  0.74505805969E-08  0.10566000000E+00  0.10566000000E+00 0.  1.
     999900   -1    0    0    0    0 -0.00000000000E+00 -0.00000000000E+00 -0.74505805969E-08  0.93827000000E+00  0.93827000000E+00 0. -1.
     999902    2    1    2    0    0 -0.10775993999E-02  0.22477077075E-01  0.63185880441E-02  0.10205568366E+01  0.10202891511E+01 0.  0.
     999903    2    3    3    0    0 -0.50698076444E-01 -0.88851487788E-01  0.74181422923E-01  0.12956772021E+00  0.28636144576E-01 0.  0.
         14    1    1    2    0    0  0.10775993999E-02 -0.22477077075E-01 -0.63185880441E-02  0.23373163440E-01  0.00000000000E+00 0.  1.
     999901    1    3    3    0    0  0.49620477044E-01  0.11132856486E+00 -0.67862834879E-01  0.89098911635E+00  0.88000000000E+00 0. -1.
        -11    1    4    4    0    0 -0.29677022167E-01 -0.45332672361E-01  0.22111019853E-01  0.58522945483E-01  0.51100000000E-03 0. -1.
         11    1    4    4    0    0 -0.21021054277E-01 -0.43518815427E-01  0.52070403069E-01  0.71044774727E-01  0.51100000000E-03 0.  1.
</event>
<event>
 8    1  0.1066842E+005  0.1043930E+01  0.7957747E-01            NaN
         13   -1    0    0    0    0  0.00000000000E+00  0.00000000000E+00  0.74505805969E-08  0.10566000000E+00  0.10566000000E+00 0.  1.
     999900   -1    0    0    0    0 -0.00000000000E+00 -0.00000000000E+00 -0.74505805969E-08  0.93827000000E+00  0.93827000000E+00 0.  1.
     999902    2    1    2    0    0  0.13013532805E-01  0.18941321554E-01  0.12430365787E-01  0.10178026256E+01  0.10174672206E+01 0.  0.
     999903    2    3    3    0    0 -0.78751362524E-01  0.94194458051E-01  0.31508904463E-01  0.12963157160E+00  0.27150695527E-01 0.  0.
         14    1    1    2    0    0 -0.13013532805E-01 -0.18941321554E-01 -0.12430365787E-01  0.26127374378E-01  0.00000000000E+00 0.  1.
     999901    1    3    3    0    0  0.91764895330E-01 -0.75253136497E-01 -0.19078538676E-01  0.88817105402E+00  0.88000000000E+00 0. -1.
        -11    1    4    4    0    0 -0.71966442049E-01  0.69285845650E-01  0.24033209228E-01  0.10274995599E+00  0.51100000000E-03 0. -1.
         11    1    4    4    0    0 -0.67849204755E-02  0.24908612401E-01  0.74756952357E-02  0.26881615611E-01  0.51100000000E-03 0.  1.
</event>
<event>
 8    1  0.1066842E+005  0.1043930E+01  0.7957747E-01            NaN
         13   -1    0    0    0    0  0.00000000000E+00  0.00000000000E+00  0.74505805969E-08  0.10566000000E+00  0.10566000000E+00 0. -1.
     999900   -1    0    0    0    0 -0.00000000000E+00 -0.00000000000E+00 -0.74505805969E-08  0.93827000000E+00  0.93827000000E+00 0. -1.
     999902    2    1    2    0    0 -0.18821204186E-01  0.73415819438E-02  0.12091191338E-01  0.10203857128E+01  0.10201140473E+01 0.  0.
     999903    2    3    3    0    0  0.10104525790E+00  0.36172012296E-01  0.70433493276E-01  0.12987856141E+00  0.19723212770E-01 0.  0.
         14    1    1    2    0    0  0.18821204186E-01 -0.73415819438E-02 -0.12091191338E-01  0.23544287214E-01  0.00000000000E+00 0.  1.
     999901    1    3    3    0    0 -0.11986646209E+00 -0.28830430352E-01 -0.58342301939E-01  0.89050715137E+00  0.88000000000E+00 0.  1.
        -11    1    4    4    0    0  0.32769138372E-01  0.54433209564E-02  0.30110341865E-01  0.44836815017E-01  0.51100000000E-03 0. -1.
         11    1    4    4    0    0  0.68276119530E-01  0.30728691339E-01  0.40323151411E-01  0.85041746397E-01  0.51100000000E-03 0.  1.
</event>
<event>
 8    1  0.1066842E+005  0.1043930E+01  0.7957747E-01            NaN
         13   -1    0    0    0    0  0.00000000000E+00  0.00000000000E+00  0.74505805969E-08  0.10566000000E+00  0.10566000000E+00 0.  1.
     999900   -1    0    0    0    0 -0.00000000000E+00 -0.00000000000E+00 -0.74505805969E-08  0.93827000000E+00  0.93827000000E+00 0. -1.
     999902    2    1    2    0    0 -0.57138133696E-02  0.21342753466E-01 -0.16439882924E-01  0.10163903824E+01  0.10160172138E+01 0.  0.
     999903    2    3    3    0    0 -0.10056501287E+00  0.38892785207E-01  0.64689058752E-01  0.12740969707E+00  0.20556897406E-01 0.  0.
         14    1    1    2    0    0  0.57138133696E-02 -0.21342753466E-01  0.16439882924E-01  0.27539617632E-01  0.00000000000E+00 0.  1.
     999901    1    3    3    0    0  0.94851199496E-01 -0.17550031741E-01 -0.81128941676E-01  0.88898068530E+00  0.88000000000E+00 0. -1.
        -11    1    4    4    0    0 -0.76770104887E-01  0.26403593272E-01  0.38386571973E-01  0.89803055465E-01  0.51100000000E-03 0. -1.
         11    1    4    4    0    0 -0.23794907978E-01  0.12489191935E-01  0.26302486779E-01  0.37606641603E-01  0.51100000000E-03 0.  1.
</event>
<event>
 8    1  0.1066842E+005  0.1043930E+01  0.7957747E-01            NaN
         13   -1    0    0    0    0  0.00000000000E+00  0.00000000000E+00  0.74505805969E-08  0.10566000000E+00  0.10566000000E+00 0. -1.
     999900   -1    0    0    0    0 -0.00000000000E+00 -0.00000000000E+00 -0.74505805969E-08  0.93827000000E+00  0.93827000000E+00 0. -1.
     999902    2    1    2    0    0 -0.19601924460E-01 -0.12439559300E-01 -0.46596841989E-02  0.10202510909E+01  0.10199762732E+01 0.  0.
     999903    2    3    3    0    0  0.61789228386E-03 -0.64114303962E-01 -0.11376869644E+00  0.13177830193E+00  0.17640260978E-01 0.  0.
         14    1    1    2    0    0  0.19601924460E-01  0.12439559300E-01  0.46596841989E-02  0.23678909075E-01  0.00000000000E+00 0.  1.
     999901    1    3    3    0    0 -0.20219816744E-01  0.51674744662E-01  0.10910901224E+00  0.88847278899E+00  0.88000000000E+00 0.  1.
        -11    1    4    4    0    0  0.84639893857E-02 -0.37431853591E-01 -0.72077937547E-01  0.81659494130E-01  0.51100000000E-03 0. -1.
         11    1    4    4    0    0 -0.78460971019E-02 -0.26682450371E-01 -0.41690758894E-01  0.50118807804E-01  0.51100000000E-03 0.  1.
</event>
<event>
 8    1  0.1066842E+005  0.1043930E+01  0.7957747E-01            NaN
         13   -1    0    0    0    0  0.00000000000E+00  0.00000000000E+00  0.74505805969E-08  0.10566000000E+00  0.10566000000E+00 0.  1.
     999900   -1    0    0    0    0 -0.00000000000E+00 -0.00000000000E+00 -0.74505805969E-08  0.93827000000E+00  0.93827000000E+00 0. -1.
     999902    2    1    2    0    0 -0.97055378899E-02 -0.19566892570E-01 -0.10159060929E-01  0.10198412626E+01  0.10195567339E+01 0.  0.
     999903    2    3    3    0    0 -0.25717110079E-01 -0.18624861846E-01 -0.12659554361E+00  0.13202669166E+00  0.19908802594E-01 0.  0.
         14    1    1    2    0    0  0.97055378899E-02  0.19566892570E-01  0.10159060929E-01  0.24088737400E-01  0.00000000000E+00 0.  1.
     999901    1    3    3    0    0  0.16011572189E-01 -0.94203072436E-03  0.11643648268E+00  0.88781457094E+00  0.88000000000E+00 0.  1.
        -11    1    4    4    0    0 -0.16984200300E-01 -0.45005851437E-02 -0.37759217485E-01  0.41650185504E-01  0.51100000000E-03 0.  1.
         11    1    4    4    0    0 -0.87329097790E-02 -0.14124276702E-01 -0.88836326124E-01  0.90376506160E-01  0.51100000000E-03 0. -1.
</event>
<event>
 8    1  0.1066842E+005  0.1043930E+01  0.7957747E-01            NaN
         13   -1    0    0    0    0  0.00000000000E+00  0.00000000000E+00  0.74505805969E-08  0.10566000000E+00  0.10566000000E+00 0. -1.
     999900   -1    0    0    0    0 -0.00000000000E+00 -0.00000000000E+00 -0.74505805969E-08  0.93827000000E+00  0.93827000000E+00 0.  1.
     999902    2    1    2    0    0 -0.11246939376E-01 -0.65031470737E-03  0.22100575170E-01  0.10191237109E+01  0.10188217637E+01 0.  0.
     999903    2    3    3    0    0  0.15230587365E-01  0.10002408329E+00  0.80920450968E-01  0.13103803284E+00  0.19648374911E-01 0.  0.
         14    1    1    2    0    0  0.11246939376E-01  0.65031470737E-03 -0.22100575170E-01  0.24806289070E-01  0.00000000000E+00 0.  1.
     999901    1    3    3    0    0 -0.26477526741E-01 -0.10067439800E+00 -0.58819875798E-01  0.88808567809E+00  0.88000000000E+00 0.  1.
        -11    1    4    4    0    0  0.46112346925E-02  0.37608776822E-01  0.42666309939E-01  0.57064513529E-01  0.51100000000E-03 0.  1.
         11    1    4    4    0    0  0.10619352672E-01  0.62415306469E-01  0.38254141029E-01  0.73973519314E-01  0.51100000000E-03 0. -1.
</event>
<event>
 8    1  0.1066842E+005  0.1043930E+01  0.7957747E-01            NaN
         13   -1    0    0    0    0  0.00000000000E+00  0.00000000000E+00  0.74505805969E-08  0.10566000000E+00  0.10566000000E+00 0.  1.
     999900   -1    0    0    0    0 -0.00000000000E+00 -0.00000000000E+00 -0.74505805969E-08  0.93827000000E+00  0.93827000000E+00 0. -1.
     999902    2    1    2    0    0 -0.12421187642E-01  0.86622027824E-02  0.18176051608E-01  0.10202722632E+01  0.10199979424E+01 0.  0.
     999903    2    3    3    0    0 -0.35415413399E-01  0.11848338308E+00 -0.39342151135E-01  0.13128532868E+00  0.19886404894E-01 0.  0.
         14    1    1    2    0    0  0.12421187642E-01 -0.86622027824E-02 -0.18176051608E-01  0.23657736822E-01  0.00000000000E+00 0.  1.
     999901    1    3    3    0    0  0.22994225757E-01 -0.10982118029E+00  0.57518202743E-01  0.88898693450E+00  0.88000000000E+00 0. -1.
        -11    1    4    4    0    0 -0.92344823698E-02  0.24710268384E-01 -0.29382346730E-03  0.26385990250E-01  0.51100000000E-03 0. -1.
         11    1    4    4    0    0 -0.26180931029E-01  0.93773114692E-01 -0.39048327668E-01  0.10489933843E+00  0.51100000000E-03 0.  1.
</event>
<event>
 8    1  0.1066842E+005  0.1043930E+01  0.7957747E-01            NaN
         13   -1    0    0    0    0  0.00000000000E+00  0.00000000000E+00  0.74505805969E-08  0.10566000000E+00  0.10566000000E+00 0. -1.
     999900   -1    0    0    0    0 -0.00000000000E+00 -0.00000000000E+00 -0.74505805969E-08  0.93827000000E+00  0.93827000000E+00 0.  1.
     999902    2    1    2    0    0 -0.51694972613E-02  0.17636509502E-01 -0.14928614912E-01  0.10202522950E+01  0.10199775055E+01 0.  0.
     999903    2    3    3    0    0 -0.11960728288E+00  0.32150435981E-01  0.38111226352E-01  0.13114044290E+00  0.20144417069E-01 0.  0.
         14    1    1    2    0    0  0.51694972613E-02 -0.17636509502E-01  0.14928614912E-01  0.23677704968E-01  0.00000000000E+00 0. -1.
     999901    1    3    3    0    0  0.11443778562E+00 -0.14513926479E-01 -0.53039841264E-01  0.88911185213E+00  0.88000000000E+00 0. -1.
        -11    1    4    4    0    0 -0.82700995619E-01  0.18026075445E-01  0.34674796620E-01  0.91471289015E-01  0.51100000000E-03 0. -1.
         11    1    4    4    0    0 -0.36906287258E-01  0.14124360536E-01  0.34364297321E-02  0.39669153886E-01  0.51100000000E-03 0.  1.
</event>
<event>
 8    1  0.1066842E+005  0.1043930E+01  0.7957747E-01            NaN
         13   -1    0    0    0    0  0.00000000000E+00  0.00000000000E+00  0.74505805969E-08  0.10566000000E+00  0.10566000000E+00 0.  1.
     999900   -1    0    0    0    0 -0.00000000000E+00 -0.00000000000E+00 -0.74505805969E-08  0.93827000000E+00  0.93827000000E+00 0.  1.
     999902    2    1    2    0    0  0.13397060692E-01  0.19036609086E-01 -0.55897810001E-02  0.10199900883E+01  0.10197091060E+01 0.  0.
     999903    2    3    3    0    0 -0.78443183654E-01 -0.46569765438E-01  0.87450384325E-01  0.12791649311E+00  0.19823808346E-01 0.  0.
         14    1    1    2    0    0 -0.13397060692E-01 -0.19036609086E-01  0.55897810001E-02  0.23939911702E-01  0.00000000000E+00 0. -1.
     999901    1    3    3    0    0  0.91840244346E-01  0.65606374524E-01 -0.93040165325E-01  0.89207359518E+00  0.88000000000E+00 0.  1.
        -11    1    4    4    0    0 -0.57576015626E-01 -0.32044603222E-01  0.74219880679E-01  0.99250722819E-01  0.51100000000E-03 0.  1.
         11    1    4    4    0    0 -0.20867168029E-01 -0.14525162216E-01  0.13230503646E-01  0.28665770296E-01  0.51100000000E-03 0. -1.
</event>
<event>
 8    1  0.1066842E+005  0.1043930E+01  0.7957747E-01            NaN
         13   -1    0    0    0    0  0.00000000000E+00  0.00000000000E+00  0.74505805969E-08  0.10566000000E+00  0.10566000000E+00 0.  1.
     999900   -1    0    0    0    0 -0.00000000000E+00 -0.00000000000E+00 -0.74505805969E-08  0.93827000000E+00  0.93827000000E+00 0.  1.
     999902    2    1    2    0    0  0.68084382261E-02 -0.20059623241E-01  0.10469294630E-01  0.10203005809E+01  0.10200269242E+01 0.  0.
     999903    2    3    3    0    0  0.60861383656E-02 -0.97101129607E-01  0.89354800918E-01  0.13341905641E+00  0.18726818104E-01 0.  0.
         14    1    1    2    0    0 -0.68084382261E-02  0.20059623241E-01 -0.10469294630E-01  0.23629419072E-01  0.00000000000E+00 0. -1.
     999901    1    3    3    0    0  0.72229986049E-03  0.77041506367E-01 -0.78885506288E-01  0.88688152451E+00  0.88000000000E+00 0.  1.
        -11    1    4    4    0    0  0.12074831252E-01 -0.73738156552E-01  0.63519187316E-01  0.98071736804E-01  0.51100000000E-03 0. -1.
         11    1    4    4    0    0 -0.59886928867E-02 -0.23362973055E-01  0.25835613602E-01  0.35347319611E-01  0.51100000000E-03 0.  1.
</event>
<event>
 8    1  0.1066842E+005  0.1043930E+01  0.7957747E-01            NaN
         13   -1    0    0    0    0  0.00000000000E+00  0.00000000000E+00  0.74505805969E-08  0.10566000000E+00  0.10566000000E+00 0. -1.
     999900   -1    0    0    0    0 -0.00000000000E+00 -0.00000000000E+00 -0.74505805969E-08  0.93827000000E+00  0.93827000000E+00 0.  1.
     999902    2    1    2    0    0 -0.21738277757E-01 -0.89665951022E-02  0.26676056353E-02  0.10202642300E+01  0.10199897208E+01 0.  0.
     999903    2    3    3    0    0  0.10916224014E-01  0.54581548352E-01 -0.11532349867E+00  0.12951927008E+00  0.19427367500E-01 0.  0.
         14    1    1    2    0    0  0.21738277757E-01  0.89665951022E-02 -0.26676056353E-02  0.23665769951E-01  0.00000000000E+00 0.  1.
     999901    1    3    3    0    0 -0.32654501770E-01 -0.63548143455E-01  0.11799110431E+00  0.89074495997E+00  0.88000000000E+00 0. -1.
        -11    1    4    4    0    0  0.15782688543E-01  0.30304186454E-01 -0.68445299390E-01  0.76501353608E-01  0.51100000000E-03 0. -1.
         11    1    4    4    0    0 -0.48664645291E-02  0.24277361898E-01 -0.46878199281E-01  0.53017916468E-01  0.51100000000E-03 0.  1.
</event>
<event>
 8    1  0.1066842E+005  0.1043930E+01  0.7957747E-01            NaN
         13   -1    0    0    0    0  0.00000000000E+00  0.00000000000E+00  0.74505805969E-08  0.10566000000E+00  0.10566000000E+00 0. -1.
     999900   -1    0    0    0    0 -0.00000000000E+00 -0.00000000000E+00 -0.74505805969E-08  0.93827000000E+00  0.93827000000E+00 0.  1.
     999902    2    1    2    0    0  0.95649950928E-03  0.10906137144E-01 -0.20928826706E-01  0.10203106328E+01  0.10200372115E+01 0.  0.
     999903    2    3    3    0    0  0.12312464331E+00  0.78353263199E-02  0.36298193715E-01  0.13002448943E+00  0.19176518345E-01 0.  0.
         14    1    1    2    0    0 -0.95649950928E-03 -0.10906137144E-01  0.20928826706E-01  0.23619367180E-01  0.00000000000E+00 0. -1.
     999901    1    3    3    0    0 -0.12216814380E+00  0.30708108242E-02 -0.57227020421E-01  0.89028614339E+00  0.88000000000E+00 0.  1.
        -11    1    4    4    0    0  0.83245658344E-01  0.13145244495E-01  0.29035195136E-01  0.89140006527E-01  0.51100000000E-03 0.  1.
         11    1    4    4    0    0  0.39878984969E-01 -0.53099181747E-02  0.72629985793E-02  0.40884482907E-01  0.51100000000E-03 0. -1.
</event>
<event>
 8    1  0.1066842E+005  0.1043930E+01  0.7957747E-01            NaN
         13   -1    0    0    0    0  0.00000000000E+00  0.00000000000E+00  0.74505805969E-08  0.10566000000E+00  0.10566000000E+00 0. -1.
     999900   -1    0    0    0    0 -0.00000000000E+00 -0.00000000000E+00 -0.74505805969E-08  0.93827000000E+00  0.93827000000E+00 0. -1.
     999902    2    1    2    0    0  0.23078420035E-01 -0.39364928012E-02  0.36249515991E-02  0.10202392904E+01  0.10199641954E+01 0.  0.
     999903    2    3    3    0    0 -0.98726059744E-01 -0.70183176294E-01  0.33929890687E-01  0.12886768232E+00  0.27984441351E-01 0.  0.
         14    1    1    2    0    0 -0.23078420035E-01  0.39364928012E-02 -0.36249515991E-02  0.23690709592E-01  0.00000000000E+00 0. -1.
     999901    1    3    3    0    0  0.12180447978E+00  0.66246683493E-01 -0.30304939088E-01  0.89137160809E+00  0.88000000000E+00 0. -1.
        -11    1    4    4    0    0 -0.50363299563E-01 -0.52673858681E-01  0.19318067951E-01  0.75395266440E-01  0.51100000000E-03 0. -1.
         11    1    4    4    0    0 -0.48362760180E-01 -0.17509317613E-01  0.14611822736E-01  0.53472415882E-01  0.51100000000E-03 0.  1.
</event>
<event>
 7    1  0.1066842E+005  0.1043930E+01  0.7957747E-01            NaN
         13   -1    0    0    0    0  0.00000000000E+00  0.00000000000E+00  0.74505805969E-08  0.10566000000E+00  0.10566000000E+00 0.  1.
     999900   -1    0    0    0    0 -0.00000000000E+00 -0.00000000000E+00 -0.74505805969E-08  0.93827000000E+00  0.93827000000E+00 0.  1.
     999902    2    1    2    0    0  0.81053562439E-02 -0.10289524419E-01  0.22948178007E-01  0.10175067151E+01  0.10171635686E+01 0.  0.
         14    1    1    2    0    0 -0.81053562439E-02  0.10289524419E-01 -0.22948178007E-01  0.26423284929E-01  0.00000000000E+00 0. -1.
     999901    1    3    3    0    0  0.18775451207E-01  0.28546993664E-01  0.13632790049E+00  0.89115248127E+00  0.88000000000E+00 0. -1.
        -11    1    3    3    0    0 -0.21918468675E-01 -0.12893553725E-01 -0.36932068326E-01  0.44843079606E-01  0.51100000000E-03 0. -1.
         11    1    3    3    0    0  0.11248373712E-01 -0.25942964358E-01 -0.76447654162E-01  0.81511154198E-01  0.51100000000E-03 0.  1.
</event>
<event>
 8    1  0.1066842E+005  0.1043930E+01  0.7957747E-01            NaN
         13   -1    0    0    0    0  0.00000000000E+00  0.00000000000E+00  0.74505805969E-08  0.10566000000E+00  0.10566000000E+00 0.  1.
     999900   -1    0    0    0    0 -0.00000000000E+00 -0.00000000000E+00 -0.74505805969E-08  0.93827000000E+00  0.93827000000E+00 0.  1.
     999902    2    1    2    0    0  0.11950111257E-01 -0.17561395136E-01 -0.10869957447E-01  0.10200686561E+01  0.10197895368E+01 0.  0.
     999903    2    3    3    0    0 -0.30569051886E-01 -0.12663619422E+00 -0.11664188325E-01  0.13231541232E+00  0.20003060438E-01 0.  0.
         14    1    1    2    0    0 -0.11950111257E-01  0.17561395136E-01  0.10869957447E-01  0.23861343907E-01  0.00000000000E+00 0. -1.
     999901    1    3    3    0    0  0.42519163143E-01  0.10907479909E+00  0.79423087795E-03  0.88775324378E+00  0.88000000000E+00 0.  1.
        -11    1    4    4    0    0 -0.56566123579E-02 -0.11110389382E-01 -0.63810646213E-02  0.14014889307E-01  0.51100000000E-03 0. -1.
         11    1    4    4    0    0 -0.24912439528E-01 -0.11552580484E+00 -0.52831237033E-02  0.11830052301E+00  0.51100000000E-03 0.  1.
</event>
<event>
 8    1  0.1066842E+005  0.1043930E+01  0.7957747E-01            NaN
         13   -1    0    0    0    0  0.00000000000E+00  0.00000000000E+00  0.74505805969E-08  0.10566000000E+00  0.10566000000E+00 0.  1.
     999900   -1    0    0    0    0 -0.00000000000E+00 -0.00000000000E+00 -0.74505805969E-08  0.93827000000E+00  0.93827000000E+00 0.  1.
     999902    2    1    2    0    0 -0.14250385480E-01  0.67666678064E-02 -0.16645670817E-01  0.10209966261E+01  0.10207390318E+01 0.  0.
     999903    2    3    3    0    0  0.10431212985E+00 -0.73267997823E-01 -0.57490028035E-02  0.12937935673E+00  0.21371639489E-01 0.  0.
         14    1    1    2    0    0  0.14250385480E-01 -0.67666678064E-02  0.16645670817E-01  0.22933373857E-01  0.00000000000E+00 0.  1.
     999901    1    3    3    0    0 -0.11856251533E+00  0.80034665629E-01 -0.10896668013E-01  0.89161726941E+00  0.88000000000E+00 0. -1.
        -11    1    4    4    0    0  0.45351034454E-01 -0.34005574587E-01 -0.13036418969E-01  0.58166182353E-01  0.51100000000E-03 0.  1.
         11    1    4    4    0    0  0.58961095400E-01 -0.39262423237E-01  0.72874161653E-02  0.71213174375E-01  0.51100000000E-03 0. -1.
</event>
<event>
 8    1  0.1066842E+005  0.1043930E+01  0.7957747E-01            NaN
         13   -1    0    0    0    0  0.00000000000E+00  0.00000000000E+00  0.74505805969E-08  0.10566000000E+00  0.10566000000E+00 0.  1.
     999900   -1    0    0    0    0 -0.00000000000E+00 -0.00000000000E+00 -0.74505805969E-08  0.93827000000E+00  0.93827000000E+00 0. -1.
     999902    2    1    2    0    0 -0.23542955352E-01  0.60495753577E-02  0.35425693853E-02  0.10193654339E+01  0.10190694137E+01 0.  0.
     999903    2    3    3    0    0 -0.12695692951E+00  0.35223411024E-02 -0.32390332583E-01  0.13257796761E+00  0.19932762316E-01 0.  0.
         14    1    1    2    0    0  0.23542955352E-01 -0.60495753577E-02 -0.35425693853E-02  0.24564566077E-01  0.00000000000E+00 0. -1.
     999901    1    3    3    0    0  0.10341397416E+00  0.25272342553E-02  0.35932901968E-01  0.88678746631E+00  0.88000000000E+00 0.  1.
        -11    1    4    4    0    0 -0.48186417415E-01  0.27915527233E-02 -0.25407766496E-02  0.48336738170E-01  0.51100000000E-03 0. -1.
         11    1    4    4    0    0 -0.78770512095E-01  0.73078837905E-03 -0.29849555933E-01  0.84241229441E-01  0.51100000000E-03 0.  1.
</event>
<event>
 8    1  0.1066842E+005  0.1043930E+01  0.7957747E-01            NaN
         13   -1    0    0    0    0  0.00000000000E+00  0.00000000000E+00  0.74505805969E-08  0.10566000000E+00  0.10566000000E+00 0.  1.
     999900   -1    0    0    0    0 -0.00000000000E+00 -0.00000000000E+00 -0.74505805969E-08  0.93827000000E+00  0.93827000000E+00 0. -1.
     999902    2    1    2    0    0  0.62169596648E-02  0.34824302276E-02  0.22356741707E-01  0.10204650941E+01  0.10201952786E+01 0.  0.
     999903    2    3    3    0    0  0.72080662041E-01  0.10781018958E+00 -0.59545889762E-02  0.13140725568E+00  0.20340867674E-01 0.  0.
         14    1    1    2    0    0 -0.62169596648E-02 -0.34824302276E-02 -0.22356741707E-01  0.23464905870E-01  0.00000000000E+00 0. -1.
     999901    1    3    3    0    0 -0.65863702376E-01 -0.10432775935E+00  0.28311330683E-01  0.88905783845E+00  0.88000000000E+00 0.  1.
        -11    1    4    4    0    0  0.32445740301E-01  0.38996995915E-01 -0.10715811045E-01  0.51851533067E-01  0.51100000000E-03 0. -1.
         11    1    4    4    0    0  0.39634921740E-01  0.68813193667E-01  0.47612220692E-02  0.79555722613E-01  0.51100000000E-03 0.  1.
</event>
<event>
 8    1  0.1066842E+005  0.1043930E+01  0.7957747E-01            NaN
         13   -1    0    0    0    0  0.00000000000E+00  0.00000000000E+00  0.74505805969E-08  0.10566000000E+00  0.10566000000E+00 0.  1.
     999900   -1    0    0    0    0 -0.00000000000E+00 -0.00000000000E+00 -0.74505805969E-08  0.93827000000E+00  0.93827000000E+00 0. -1.
     999902    2    1    2    0    0  0.18309824380E-01  0.14050244301E-01 -0.33235793577E-02  0.10206125127E+01  0.10203461157E+01 0.  0.
     999903    2    3    3    0    0  0.12209706856E+00  0.49257051545E-01  0.91551953161E-02  0.13372636943E+00  0.21563232645E-01 0.  0.
         14    1    1    2    0    0 -0.18309824380E-01 -0.14050244301E-01  0.33235793577E-02  0.23317487289E-01  0.00000000000E+00 0.  1.
     999901    1    3    3    0    0 -0.10378724418E+00 -0.35206807244E-01 -0.12478774674E-01  0.88688614328E+00  0.88000000000E+00 0.  1.
        -11    1    4    4    0    0  0.47216066796E-01  0.94992742054E-02  0.86892488593E-02  0.48942387976E-01  0.51100000000E-03 0. -1.
         11    1    4    4    0    0  0.74881001761E-01  0.39757777339E-01  0.46594645678E-03  0.84783981451E-01  0.51100000000E-03 0.  1.
</event>
<event>
 8    1  0.1066842E+005  0.1043930E+01  0.7957747E-01            NaN
         13   -1    0    0    0    0  0.00000000000E+00  0.00000000000E+00  0.74505805969E-08  0.10566000000E+00  0.10566000000E+00 0. -1.
     999900   -1    0    0    0    0 -0.00000000000E+00 -0.00000000000E+00 -0.74505805969E-08  0.93827000000E+00  0.93827000000E+00 0. -1.
     999902    2    1    2    0    0  0.43242673058E-02 -0.20824599351E-01  0.72209252383E-02  0.10214688115E+01  0.10212218309E+01 0.  0.
     999903    2    3    3    0    0 -0.41525375110E-01  0.12041034910E+00  0.66152317634E-02  0.12902841171E+00  0.19533581081E-01 0.  0.
         14    1    1    2    0    0 -0.43242673058E-02  0.20824599351E-01 -0.72209252383E-02  0.22461188463E-01  0.00000000000E+00 0.  1.
     999901    1    3    3    0    0  0.45849642415E-01 -0.14123494845E+00  0.60569347496E-03  0.89244039982E+00  0.88000000000E+00 0. -1.
        -11    1    4    4    0    0 -0.39699584418E-02  0.26372036594E-01  0.76929524204E-02  0.27761259375E-01  0.51100000000E-03 0.  1.
         11    1    4    4    0    0 -0.37555416668E-01  0.94038312505E-01 -0.10777206571E-02  0.10126715234E+00  0.51100000000E-03 0. -1.
</event>
<event>
 8    1  0.1066842E+005  0.1043930E+01  0.7957747E-01            NaN
         13   -1    0    0    0    0  0.00000000000E+00  0.00000000000E+00  0.74505805969E-08  0.10566000000E+00  0.10566000000E+00 0. -1.
     999900   -1    0    0    0    0 -0.00000000000E+00 -0.00000000000E+00 -0.74505805969E-08  0.93827000000E+00  0.93827000000E+00 0.  1.
     999902    2    1    2    0    0 -0.18250667583E-01  0.11127388286E-01  0.94058995121E-02  0.10205767008E+01  0.10203094754E+01 0.  0.
     999903    2    3    3    0    0 -0.29784570443E-02  0.63140790554E-01 -0.11258012062E+00  0.13050972382E+00  0.19049247099E-01 0.  0.
         14    1    1    2    0    0  0.18250667583E-01 -0.11127388286E-01 -0.94058995121E-02  0.23353299187E-01  0.00000000000E+00 0.  1.
     999901    1    3    3    0    0 -0.15272210539E-01 -0.52013402268E-01  0.12198602013E+00  0.89006697699E+00  0.88000000000E+00 0. -1.
        -11    1    4    4    0    0  0.73296672050E-02  0.15865782442E-01 -0.26165981151E-01  0.31470093175E-01  0.51100000000E-03 0.  1.
         11    1    4    4    0    0 -0.10308124249E-01  0.47275008112E-01 -0.86414139464E-01  0.99039630643E-01  0.51100000000E-03 0. -1.
</event>
<event>
 8    1  0.1066842E+005  0.1043930E+01  0.7957747E-01            NaN
         13   -1    0    0    0    0  0.00000000000E+00  0.00000000000E+00  0.74505805969E-08  0.10566000000E+00  0.10566000000E+00 0. -1.
     999900   -1    0    0    0    0 -0.00000000000E+00 -0.00000000000E+00 -0.74505805969E-08  0.93827000000E+00  0.93827000000E+00 0.  1.
     999902    2    1    2    0    0  0.21765523330E-01 -0.34006401638E-02 -0.72669582898E-02  0.10207327794E+01  0.10204691548E+01 0.  0.
     999903    2    3    3    0    0  0.12826483456E+00 -0.50397031515E-02  0.30651533162E-01  0.13349966361E+00  0.20133983813E-01 0.  0.
         14    1    1    2    0    0 -0.21765523330E-01  0.34006401638E-02  0.72669582898E-02  0.23197220569E-01  0.00000000000E+00 0.  1.
     999901    1    3    3    0    0 -0.10649931123E+00  0.16390629877E-02 -0.37918491452E-01  0.88723311582E+00  0.88000000000E+00 0. -1.
        -11    1    4    4    0    0  0.92000938971E-01 -0.11773425774E-01  0.25947219463E-01  0.96313579753E-01  0.51100000000E-03 0. -1.
         11    1    4    4    0    0  0.36263895594E-01  0.67337226228E-02  0.47043136989E-02  0.37186083853E-01  0.51100000000E-03 0.  1.
</event>
<event>
 8    1  0.1066842E+005  0.1043930E+01  0.7957747E-01            NaN
         13   -1    0    0    0    0  0.00000000000E+00  0.00000000000E+00  0.74505805969E-08  0.10566000000E+00  0.10566000000E+00 0. -1.
     999900   -1    0    0    0    0 -0.00000000000E+00 -0.00000000000E+00 -0.74505805969E-08  0.93827000000E+00  0.93827000000E+00 0. -1.
     999902    2    1    2    0    0 -0.76577234745E-02  0.21674127489E-01  0.83511652050E-02  0.10194728846E+01  0.10191794798E+01 0.  0.
     999903    2    3    3    0    0 -0.78976322650E-01 -0.47330950192E-01  0.89866039152E-01  0.13015139159E+00  0.19646917176E-01 0.  0.
         14    1    1    2    0    0  0.76577234745E-02 -0.21674127489E-01 -0.83511652050E-02  0.24457115356E-01  0.00000000000E+00 0.  1.
     999901    1    3    3    0    0  0.71318599176E-01  0.69005077681E-01 -0.81514873947E-01  0.88932149305E+00  0.88000000000E+00 0. -1.
        -11    1    4    4    0    0 -0.20295807364E-01 -0.31889860555E-02  0.22909852679E-01  0.30776807817E-01  0.51100000000E-03 0. -1.
         11    1    4    4    0    0 -0.58680515286E-01 -0.44141964136E-01  0.66956186473E-01  0.99374583773E-01  0.51100000000E-03 0.  1.
</event>
<event>
 8    1  0.1066842E+005  0.1043930E+01  0.7957747E-01            NaN
         13   -1    0    0    0    0  0.00000000000E+00  0.00000000000E+00  0.74505805969E-08  0.10566000000E+00  0.10566000000E+00 0. -1.
     999900   -1    0    0    0    0 -0.00000000000E+00 -0.00000000000E+00 -0.74505805969E-08  0.93827000000E+00  0.93827000000E+00 0.  1.
     999902    2    1    2    0    0  0.20321705733E-01  0.14692468753E-01  0.16389953512E-02  0.10187998057E+01  0.10184898219E+01 0.  0.
     999903    2    3    3    0    0 -0.12331748629E+00  0.22357864212E-01  0.38194459506E-02  0.12711839947E+00  0.20914655147E-01 0.  0.
         14    1    1    2    0    0 -0.20321705733E-01 -0.14692468753E-01 -0.16389953512E-02  0.25130194343E-01  0.00000000000E+00 0. -1.
     999901    1    3    3    0    0  0.14363919202E+00 -0.76653954588E-02 -0.21804505994E-02  0.89168140619E+00  0.88000000000E+00 0. -1.
        -11    1    4    4    0    0 -0.11994404809E+00  0.17808663357E-01  0.25242843900E-02  0.12128625766E+00  0.51100000000E-03 0.  1.
         11    1    4    4    0    0 -0.33734381951E-02  0.45492008546E-02  0.12951615606E-02  0.58321418141E-02  0.51100000000E-03 0. -1.
</event>
<event>
 8    1  0.1066842E+005  0.1043930E+01  0.7957747E-01            NaN
         13   -1    0    0    0    0  0.00000000000E+00  0.00000000000E+00  0.74505805969E-08  0.10566000000E+00  0.10566000000E+00 0.  1.
     999900   -1    0    0    0    0 -0.00000000000E+00 -0.00000000000E+00 -0.74505805969E-08  0.93827000000E+00  0.93827000000E+00 0.  1.
     999902    2    1    2    0    0  0.10469102470E-01  0.17023854391E-01  0.11192453873E-01  0.10210240019E+01  0.10207670291E+01 0.  0.
     999903    2    3    3    0    0 -0.43004205916E-01  0.12220720400E+00  0.24274926706E-01  0.13305210886E+00  0.18155692502E-01 0.  0.
         14    1    1    2    0    0 -0.10469102470E-01 -0.17023854391E-01 -0.11192453873E-01  0.22905998091E-01  0.00000000000E+00 0. -1.
     999901    1    3    3    0    0  0.53473308386E-01 -0.10518334961E+00 -0.13082472832E-01  0.88797189305E+00  0.88000000000E+00 0.  1.
        -11    1    4    4    0    0 -0.29855009547E-01  0.10486997307E+00  0.19476491948E-01  0.11076383754E+00  0.51100000000E-03 0.  1.
         11    1    4    4    0    0 -0.13149196370E-01  0.17337230931E-01  0.47984347577E-02  0.22288271325E-01  0.51100000000E-03 0. -1.
</event>
<event>
 8    1  0.1066842E+005  0.1043930E+01  0.7957747E-01            NaN
         13   -1    0    0    0    0  0.00000000000E+00  0.00000000000E+00  0.74505805969E-08  0.10566000000E+00  0.10566000000E+00 0.  1.
     999900   -1    0    0    0    0 -0.00000000000E+00 -0.00000000000E+00 -0.74505805969E-08  0.93827000000E+00  0.93827000000E+00 0. -1.
     999902    2    1    2    0    0  0.92347235932E-02  0.13054595201E-01  0.17117825440E-01  0.10205051729E+01  0.10202362890E+01 0.  0.
     999903    2    3    3    0    0 -0.60209017100E-01 -0.42080589714E-02  0.11445873934E+00  0.13225088171E+00  0.27325065404E-01 0.  0.
         14    1    1    2    0    0 -0.92347235932E-02 -0.13054595201E-01 -0.17117825440E-01  0.23424827075E-01  0.00000000000E+00 0.  1.
     999901    1    3    3    0    0  0.69443740693E-01  0.17262654173E-01 -0.97340913904E-01  0.88825429122E+00  0.88000000000E+00 0.  1.
        -11    1    4    4    0    0 -0.20685295011E-01  0.69116318245E-02  0.61393814526E-01  0.65154536812E-01  0.51100000000E-03 0.  1.
         11    1    4    4    0    0 -0.39523722088E-01 -0.11119690796E-01  0.53064924818E-01  0.67096344893E-01  0.51100000000E-03 0. -1.
</event>
<event>
 8    1  0.1066842E+005  0.1043930E+01  0.7957747E-01            NaN
         13   -1    0    0    0    0  0.00000000000E+00  0.00000000000E+00  0.74505805969E-08  0.10566000000E+00  0.10566000000E+00 0.  1.
     999900   -1    0    0    0    0 -0.00000000000E+00 -0.00000000000E+00 -0.74505805969E-08  0.93827000000E+00  0.93827000000E+00 0. -1.
     999902    2    1    2    0    0  0.78378797346E-02 -0.82123576903E-02  0.20929793099E-01  0.10201196784E+01  0.10198417655E+01 0.  0.
     999903    2    3    3    0    0 -0.11137812035E-01  0.58346068180E-02 -0.12555670511E+00  0.12769842791E+00  0.19603795542E-01 0.  0.
         14    1    1    2    0    0 -0.78378797346E-02  0.82123576903E-02 -0.20929793099E-01  0.23810321643E-01  0.00000000000E+00 0. -1.
     999901    1    3    3    0    0  0.18975691769E-01 -0.14046964508E-01  0.14648649821E+00  0.89242125045E+00  0.88000000000E+00 0.  1.
        -11    1    4    4    0    0 -0.65941740029E-02 -0.55614820499E-02 -0.26257815332E-01  0.27643212555E-01  0.51100000000E-03 0. -1.
         11    1    4    4    0    0 -0.45436380320E-02  0.11396088868E-01 -0.99298889777E-01  0.10005521536E+00  0.51100000000E-03 0.  1.
</event>
<event>
 8    1  0.1066842E+005  0.1043930E+01  0.7957747E-01            NaN
         13   -1    0    0    0    0  0.00000000000E+00  0.00000000000E+00  0.74505805969E-08  0.10566000000E+00  0.10566000000E+00 0.  1.
     999900   -1    0    0    0    0 -0.00000000000E+00 -0.00000000000E+00 -0.74505805969E-08  0.93827000000E+00  0.93827000000E+00 0. -1.
     999902    2    1    2    0    0 -0.89425523899E-02  0.10935500407E-01 -0.20410569497E-01  0.10191077165E+01  0.10188053749E+01 0.  0.
     999903    2    3    3    0    0 -0.70420838820E-01  0.75949134291E-01 -0.80107120049E-01  0.13255820830E+00  0.20667906642E-01 0.  0.
         14    1    1    2    0    0  0.89425523899E-02 -0.10935500407E-01  0.20410569497E-01  0.24822283529E-01  0.00000000000E+00 0.  1.
     999901    1    3    3    0    0  0.61478286431E-01 -0.65013633884E-01  0.59696550552E-01  0.88654950817E+00  0.88000000000E+00 0.  1.
        -11    1    4    4    0    0 -0.19612000593E-01  0.13138388230E-01 -0.27041938267E-01  0.35899517528E-01  0.51100000000E-03 0.  1.
         11    1    4    4    0    0 -0.50808838228E-01  0.62810746061E-01 -0.53065181782E-01  0.96658690770E-01  0.51100000000E-03 0. -1.
</event>
<event>
 8    1  0.1066842E+005  0.1043930E+01  0.7957747E-01            NaN
         13   -1    0    0    0    0  0.00000000000E+00  0.00000000000E+00  0.74505805969E-08  0.10566000000E+00  0.10566000000E+00 0.  1.
     999900   -1    0    0    0    0 -0.00000000000E+00 -0.00000000000E+00 -0.74505805969E-08  0.93827000000E+00  0.93827000000E+00 0. -1.
     999902    2    1    2    0    0  0.14965021993E-01  0.14787908832E-02  0.22485503370E-01  0.10168793703E+01  0.10165195115E+01 0.  0.
     999903    2    3    3    0    0  0.41024072972E-01 -0.11865955806E+00  0.18898859718E-01  0.12832708650E+00  0.18644273880E-01 0.  0.
         14    1    1    2    0    0 -0.14965021993E-01 -0.14787908832E-02 -0.22485503370E-01  0.27050629706E-01  0.00000000000E+00 0. -1.
     999901    1    3    3    0    0 -0.26059050979E-01  0.12013834894E+00  0.35866436522E-02  0.88855228379E+00  0.88000000000E+00 0.  1.
        -11    1    4    4    0    0  0.10295636018E-01 -0.35341003617E-01 -0.27638075085E-02  0.36917291485E-01  0.51100000000E-03 0. -1.
         11    1    4    4    0    0  0.30728436954E-01 -0.83318554443E-01  0.21662667226E-01  0.91409795013E-01  0.51100000000E-03 0.  1.
</event>
<event>
 8    1  0.1066842E+005  0.1043930E+01  0.7957747E-01            NaN
         13   -1    0    0    0    0  0.00000000000E+00  0.00000000000E+00  0.74505805969E-08  0.10566000000E+00  0.10566000000E+00 0. -1.
     999900   -1    0    0    0    0 -0.00000000000E+00 -0.00000000000E+00 -0.74505805969E-08  0.93827000000E+00  0.93827000000E+00 0. -1.
     999902    2    1    2    0    0 -0.20228764576E-01  0.55154017182E-02 -0.10145289658E-01  0.10206373086E+01  0.10203714844E+01 0.  0.
     999903    2    3    3    0    0  0.65301075972E-01  0.83122423729E-01 -0.73848818677E-01  0.13080791868E+00  0.21988536065E-01 0.  0.
         14    1    1    2    0    0  0.20228764576E-01 -0.55154017182E-02  0.10145289658E-01  0.23292691442E-01  0.00000000000E+00 0.  1.
     999901    1    3    3    0    0 -0.85529840548E-01 -0.77607022011E-01  0.63703529019E-01  0.88982938988E+00  0.88000000000E+00 0. -1.
        -11    1    4    4    0    0  0.28457871203E-01  0.37942610131E-01 -0.46459693532E-01  0.66394701152E-01  0.51100000000E-03 0. -1.
         11    1    4    4    0    0  0.36843204770E-01  0.45179813598E-01 -0.27389125145E-01  0.64413217523E-01  0.51100000000E-03 0.  1.
</event>
<event>
 8    1  0.1066842E+005  0.1043930E+01  0.7957747E-01            NaN
         13   -1    0    0    0    0  0.00000000000E+00  0.00000000000E+00  0.74505805969E-08  0.10566000000E+00  0.10566000000E+00 0. -1.
     999900   -1    0    0    0    0 -0.00000000000E+00 -0.00000000000E+00 -0.74505805969E-08  0.93827000000E+00  0.93827000000E+00 0. -1.
     999902    2    1    2    0    0  0.22659068715E-01 -0.79966738147E-02  0.16563225733E-02  0.10198442450E+01  0.10195597876E+01 0.  0.
     999903    2    3    3    0    0 -0.87613173947E-01  0.25153975490E-01 -0.87395155504E-01  0.12788623102E+00  0.20203567651E-01 0.  0.
         14    1    1    2    0    0 -0.22659068715E-01  0.79966738147E-02 -0.16563225733E-02  0.24085754951E-01  0.00000000000E+00 0. -1.
     999901    1    3    3    0    0  0.11027224266E+00 -0.33150649304E-01  0.89051478077E-01  0.89195801403E+00  0.88000000000E+00 0.  1.
        -11    1    4    4    0    0 -0.59363390179E-01  0.10257662919E-01 -0.47125825757E-01  0.76487491242E-01  0.51100000000E-03 0. -1.
         11    1    4    4    0    0 -0.28249783768E-01  0.14896312570E-01 -0.40269329746E-01  0.51398739774E-01  0.51100000000E-03 0.  1.
</event>
<event>
 8    1  0.1066842E+005  0.1043930E+01  0.7957747E-01            NaN
         13   -1    0    0    0    0  0.00000000000E+00  0.00000000000E+00  0.74505805969E-08  0.10566000000E+00  0.10566000000E+00 0.  1.
     999900   -1    0    0    0    0 -0.00000000000E+00 -0.00000000000E+00 -0.74505805969E-08  0.93827000000E+00  0.93827000000E+00 0. -1.
     999902    2    1    2    0    0  0.34226245676E-02 -0.16199430915E-01 -0.16426391946E-01  0.10206070012E+01  0.10203404768E+01 0.  0.
     999903    2    3    3    0    0  0.11057298265E+00 -0.62742377190E-01  0.28917675661E-01  0.13172932145E+00  0.18798717405E-01 0.  0.
         14    1    1    2    0    0 -0.34226245676E-02  0.16199430915E-01  0.16426391946E-01  0.23322998805E-01  0.00000000000E+00 0.  1.
     999901    1    3    3    0    0 -0.10715035808E+00  0.46542946274E-01 -0.45344067607E-01  0.88887767975E+00  0.88000000000E+00 0. -1.
        -11    1    4    4    0    0  0.38018246981E-01 -0.19739731190E-01  0.18792862688E-01  0.46781159669E-01  0.51100000000E-03 0. -1.
         11    1    4    4    0    0  0.72554735669E-01 -0.43002646000E-01  0.10124812973E-01  0.84948161779E-01  0.51100000000E-03 0.  1.
</event>
<event>
 8    1  0.1066842E+005  0.1043930E+01  0.7957747E-01            NaN
         13   -1    0    0    0    0  0.00000000000E+00  0.00000000000E+00  0.74505805969E-08  0.10566000000E+00  0.10566000000E+00 0.  1.
     999900   -1    0    0    0    0 -0.00000000000E+00 -0.00000000000E+00 -0.74505805969E-08  0.93827000000E+00  0.93827000000E+00 0.  1.
     999902    2    1    2    0    0  0.14025974651E-01 -0.17608531987E-01 -0.76514253330E-02  0.10201532745E+01  0.10198761547E+01 0.  0.
     999903    2    3    3    0    0 -0.90509155340E-01  0.84783790606E-01  0.21386177523E-01  0.12759797458E+00  0.21063622122E-01 0.  0.
         14    1    1    2    0    0 -0.14025974651E-01  0.17608531987E-01  0.76514253330E-02  0.23776725453E-01  0.00000000000E+00 0.  1.
     999901    1    3    3    0    0  0.10453512999E+00 -0.10239232259E+00 -0.29037602856E-01  0.89255529997E+00  0.88000000000E+00 0.  1.
        -11    1    4    4    0    0 -0.48937291246E-01  0.35698700214E-01  0.28021063536E-02  0.60641310940E-01  0.51100000000E-03 0. -1.
         11    1    4    4    0    0 -0.41571864094E-01  0.49085090391E-01  0.18584071169E-01  0.66956663635E-01  0.51100000000E-03 0.  1.
</event>
<event>
 8    1  0.1066842E+005  0.1043930E+01  0.7957747E-01            NaN
         13   -1    0    0    0    0  0.00000000000E+00  0.00000000000E+00  0.74505805969E-08  0.10566000000E+00  0.10566000000E+00 0. -1.
     999900   -1    0    0    0    0 -0.00000000000E+00 -0.00000000000E+00 -0.74505805969E-08  0.93827000000E+00  0.93827000000E+00 0.  1.
     999902    2    1    2    0    0 -0.96382838362E-02  0.20129213715E-01  0.77782609635E-02  0.10202956372E+01  0.10200218646E+01 0.  0.
     999903    2    3    3    0    0  0.85787869409E-01 -0.84258121571E-01 -0.38429130771E-01  0.12780586723E+00  0.19963767657E-01 0.  0.
         14    1    1    2    0    0  0.96382838362E-02 -0.20129213715E-01 -0.77782609635E-02  0.23634362773E-01  0.00000000000E+00 0. -1.
     999901    1    3    3    0    0 -0.95426153245E-01  0.10438733529E+00  0.46207391734E-01  0.89248976999E+00  0.88000000000E+00 0. -1.
        -11    1    4    4    0    0  0.57238880589E-01 -0.43802831946E-01 -0.18384976632E-01  0.74385791818E-01  0.51100000000E-03 0.  1.
         11    1    4    4    0    0  0.28548988820E-01 -0.40455289625E-01 -0.20044154138E-01  0.53420075416E-01  0.51100000000E-03 0. -1.
</event>
<event>
 8    1  0.1066842E+005  0.1043930E+01  0.7957747E-01            NaN
         13   -1    0    0    0    0  0.00000000000E+00  0.00000000000E+00  0.74505805969E-08  0.10566000000E+00  0.10566000000E+00 0.  1.
     999900   -1    0    0    0    0 -0.00000000000E+00 -0.00000000000E+00 -0.74505805969E-08  0.93827000000E+00  0.93827000000E+00 0.  1.
     999902    2    1    2    0    0 -0.21350648269E-01 -0.73317737420E-02  0.12505774543E-01  0.10181230342E+01  0.10177959094E+01 0.  0.
     999903    2    3    3    0    0  0.11839656209E+00 -0.23241788309E-01 -0.31934692431E-01  0.12584652633E+00  0.16112013218E-01 0.  0.
         14    1    1    2    0    0  0.21350648269E-01  0.73317737420E-02 -0.12505774543E-01  0.25806965816E-01  0.00000000000E+00 0. -1.
     999901    1    3    3    0    0 -0.13974721036E+00  0.15910014567E-01  0.44440466974E-01  0.89227650786E+00  0.88000000000E+00 0. -1.
        -11    1    4    4    0    0  0.39421816064E-01 -0.81348419802E-02 -0.18580752021E-01  0.44336900010E-01  0.51100000000E-03 0. -1.
         11    1    4    4    0    0  0.78974746025E-01 -0.15106946329E-01 -0.13353940410E-01  0.81509626319E-01  0.51100000000E-03 0.  1.
</event>
<event>
 8    1  0.1066842E+005  0.1043930E+01  0.7957747E-01            NaN
         13   -1    0    0    0    0  0.00000000000E+00  0.00000000000E+00  0.74505805969E-08  0.10566000000E+00  0.10566000000E+00 0.  1.
     999900   -1    0    0    0    0 -0.00000000000E+00 -0.00000000000E+00 -0.74505805969E-08  0.93827000000E+00  0.93827000000E+00 0. -1.
     999902    2    1    2    0    0  0.91967338188E-02 -0.16567970116E-01 -0.14336778388E-01  0.10201682500E+01  0.10198914833E+01 0.  0.
     999903    2    3    3    0    0 -0.27328517934E-01  0.55342896193E-01  0.11012218946E+00  0.12775842188E+00  0.19637558358E-01 0.  0.
         14    1    1    2    0    0 -0.91967338188E-02  0.16567970116E-01  0.14336778388E-01  0.23761749962E-01  0.00000000000E+00 0.  1.
     999901    1    3    3    0    0  0.36525251753E-01 -0.71910866308E-01 -0.12445896785E+00  0.89240982816E+00  0.88000000000E+00 0. -1.
        -11    1    4    4    0    0  0.21706362452E-02  0.12641439260E-01  0.23471993206E-01  0.26752817316E-01  0.51100000000E-03 0. -1.
         11    1    4    4    0    0 -0.29499154179E-01  0.42701456932E-01  0.86650196258E-01  0.10100560457E+00  0.51100000000E-03 0.  1.
</event>
<event>
 8    1  0.1066842E+005  0.1043930E+01  0.7957747E-01            NaN
         13   -1    0    0    0    0  0.00000000000E+00  0.00000000000E+00  0.74505805969E-08  0.10566000000E+00  0.10566000000E+00 0. -1.
     999900   -1    0    0    0    0 -0.00000000000E+00 -0.00000000000E+00 -0.74505805969E-08  0.93827000000E+00  0.93827000000E+00 0. -1.
     999902    2    1    2    0    0 -0.92962883279E-02  0.14415169807E-01 -0.17695586206E-01  0.10192854901E+01  0.10189875163E+01 0.  0.
     999903    2    3    3    0    0  0.16940359678E-01 -0.38054494302E-02 -0.12902919454E+00  0.13169576223E+00  0.19843979286E-01 0.  0.
         14    1    1    2    0    0  0.92962883279E-02 -0.14415169807E-01  0.17695586206E-01  0.24644509904E-01  0.00000000000E+00 0.  1.
     999901    1    3    3    0    0 -0.26236648006E-01  0.18220619237E-01  0.11133360834E+00  0.88758972786E+00  0.88000000000E+00 0.  1.
        -11    1    4    4    0    0 -0.85091472516E-03 -0.67737717601E-02 -0.58321162195E-01  0.58721606931E-01  0.51100000000E-03 0. -1.
         11    1    4    4    0    0  0.17791274403E-01  0.29683223298E-02 -0.70708032349E-01  0.72974155302E-01  0.51100000000E-03 0.  1.
</event>
<event>
 8    1  0.1066842E+005  0.1043930E+01  0.7957747E-01            NaN
         13   -1    0    0    0    0  0.00000000000E+00  0.00000000000E+00  0.74505805969E-08  0.10566000000E+00  0.10566000000E+00 0.  1.
     999900   -1    0    0    0    0 -0.00000000000E+00 -0.00000000000E+00 -0.74505805969E-08  0.93827000000E+00  0.93827000000E+00 0.  1.
     999902    2    1    2    0    0 -0.36733941716E-02 -0.22082562067E-01 -0.13764879755E-01  0.10176506300E+01  0.10173112599E+01 0.  0.
     999903    2    3    3    0    0 -0.10134491396E+00  0.54884916076E-01  0.49776387882E-01  0.12663928824E+00  0.16633548606E-01 0.  0.
         14    1    1    2    0    0  0.36733941716E-02  0.22082562067E-01  0.13764879755E-01  0.26279369986E-01  0.00000000000E+00 0.  1.
     999901    1    3    3    0    0  0.97671519784E-01 -0.76967478143E-01 -0.63541267637E-01  0.89101134177E+00  0.88000000000E+00 0. -1.
        -11    1    4    4    0    0 -0.34729780067E-01  0.27713150099E-01  0.16931200388E-01  0.47551056555E-01  0.51100000000E-03 0. -1.
         11    1    4    4    0    0 -0.66615133888E-01  0.27171765977E-01  0.32845187495E-01  0.79088231690E-01  0.51100000000E-03 0.  1.
</event>
<event>
 8    1  0.1066842E+005  0.1043930E+01  0.7957747E-01            NaN
         13   -1    0    0    0    0  0.00000000000E+00  0.00000000000E+00  0.74505805969E-08  0.10566000000E+00  0.10566000000E+00 0.  1.
     999900   -1    0    0    0    0 -0.00000000000E+00 -0.00000000000E+00 -0.74505805969E-08  0.93827000000E+00  0.93827000000E+00 0.  1.
     999902    2    1    2    0    0 -0.16516038368E-01 -0.13885549519E-01  0.90690734778E-02  0.10205241011E+01  0.10202556566E+01 0.  0.
     999903    2    3    3    0    0 -0.33988040075E-01  0.49168196918E-01  0.11562841501E+00  0.13168444232E+00  0.19954035534E-01 0.  0.
         14    1    1    2    0    0  0.16516038368E-01  0.13885549519E-01 -0.90690734778E-02  0.23405898883E-01  0.00000000000E+00 0.  1.
     999901    1    3    3    0    0  0.17472001708E-01 -0.63053746436E-01 -0.10655934154E+00  0.88883965880E+00  0.88000000000E+00 0.  1.
        -11    1    4    4    0    0 -0.95116033544E-02  0.23886200275E-01  0.66099467162E-01  0.70925466808E-01  0.51100000000E-03 0.  1.
         11    1    4    4    0    0 -0.24476436721E-01  0.25281996643E-01  0.49528947851E-01  0.60758975510E-01  0.51100000000E-03 0. -1.
</event>
<event>
 8    1  0.1066842E+005  0.1043930E+01  0.7957747E-01            NaN
         13   -1    0    0    0    0  0.00000000000E+00  0.00000000000E+00  0.74505805969E-08  0.10566000000E+00  0.10566000000E+00 0. -1.
     999900   -1    0    0    0    0 -0.00000000000E+00 -0.00000000000E+00 -0.74505805969E-08  0.93827000000E+00  0.93827000000E+00 0. -1.
     999902    2    1    2    0    0  0.58250355376E-03 -0.20678320868E-01 -0.86055196354E-02  0.10215249284E+01  0.10212791940E+01 0.  0.
     999903    2    3    3    0    0 -0.82573492754E-01 -0.47778518427E-01 -0.91038383632E-01  0.13335573424E+00  0.19864441370E-01 0.  0.
         14    1    1    2    0    0 -0.58250355376E-03  0.20678320868E-01  0.86055196354E-02  0.22405071580E-01  0.00000000000E+00 0. -1.
     999901    1    3    3    0    0  0.83155996307E-01  0.27100197559E-01  0.82432863997E-01  0.88816919418E+00  0.88000000000E+00 0.  1.
        -11    1    4    4    0    0 -0.38402570850E-01 -0.31490413217E-01 -0.38745362444E-01  0.62991013679E-01  0.51100000000E-03 0.  1.
         11    1    4    4    0    0 -0.44170921903E-01 -0.16288105210E-01 -0.52293021188E-01  0.70364720557E-01  0.51100000000E-03 0. -1.
</event>
<event>
 8    1  0.1066842E+005  0.1043930E+01  0.7957747E-01            NaN
         13   -1    0    0    0    0  0.00000000000E+00  0.00000000000E+00  0.74505805969E-08  0.10566000000E+00  0.10566000000E+00 0. -1.
     999900   -1    0    0    0    0 -0.00000000000E+00 -0.00000000000E+00 -0.74505805969E-08  0.93827000000E+00  0.93827000000E+00 0.  1.
     999902    2    1    2    0    0 -0.18952910518E-01 -0.13587272372E-01  0.43055706771E-02  0.10202157695E+01  0.10199401216E+01 0.  0.
     999903    2    3    3    0    0  0.24924881905E-02 -0.92426701883E-01 -0.91161860057E-01  0.13128968088E+00  0.19431620033E-01 0.  0.
         14    1    1    2    0    0  0.18952910518E-01  0.13587272372E-01 -0.43055706771E-02  0.23714230463E-01  0.00000000000E+00 0. -1.
     999901    1    3    3    0    0 -0.21445398708E-01  0.78839429511E-01  0.95467430734E-01  0.88892608866E+00  0.88000000000E+00 0. -1.
        -11    1    4    4    0    0  0.97050003070E-02 -0.54467760725E-01 -0.60296621905E-01  0.81834392058E-01  0.51100000000E-03 0. -1.
         11    1    4    4    0    0 -0.72125121165E-02 -0.37958941158E-01 -0.30865238151E-01  0.49455288818E-01  0.51100000000E-03 0.  1.
</event>
<event>
 8    1  0.1066842E+005  0.1043930E+01  0.7957747E-01            NaN
         13   -1    0    0    0    0  0.00000000000E+00  0.00000000000E+00  0.74505805969E-08  0.10566000000E+00  0.10566000000E+00 0. -1.
     999900   -1    0    0    0    0 -0.00000000000E+00 -0.00000000000E+00 -0.74505805969E-08  0.93827000000E+00  0.93827000000E+00 0. -1.
     999902    2    1    2    0    0 -0.43952573267E-02 -0.14663889318E-01 -0.18025132280E-01  0.10202814624E+01  0.10200073574E+01 0.  0.
     999903    2    3    3    0    0 -0.12501026506E+00  0.30713684580E-01 -0.92547917501E-02  0.13085241904E+00  0.21582576487E-01 0.  0.
         14    1    1    2    0    0  0.43952573267E-02  0.14663889318E-01  0.18025132280E-01  0.23648537600E-01  0.00000000000E+00 0.  1.
     999901    1    3    3    0    0  0.12061500773E+00 -0.45377573898E-01 -0.87703405301E-02  0.88942904336E+00  0.88000000000E+00 0.  1.
        -11    1    4    4    0    0 -0.99782290786E-01  0.30523270882E-01 -0.13656479361E-01  0.10523752263E+00  0.51100000000E-03 0. -1.
         11    1    4    4    0    0 -0.25227974271E-01  0.19041369825E-03  0.44016876104E-02  0.25614896409E-01  0.51100000000E-03 0.  1.
</event>
<event>
 8    1  0.1066842E+005  0.1043930E+01  0.7957747E-01            NaN
         13   -1    0    0    0    0  0.00000000000E+00  0.00000000000E+00  0.74505805969E-08  0.10566000000E+00  0.10566000000E+00 0. -1.
     999900   -1    0    0    0    0 -0.00000000000E+00 -0.00000000000E+00 -0.74505805969E-08  0.93827000000E+00  0.93827000000E+00 0. -1.
     999902    2    1    2    0    0  0.80335170636E-02 -0.17746986007E-01  0.13560749905E-01  0.10201942285E+01  0.10199180737E+01 0.  0.
     999903    2    3    3    0    0 -0.98232959982E-01 -0.80105440343E-01  0.28673461517E-01  0.13148193819E+00  0.19968391906E-01 0.  0.
         14    1    1    2    0    0 -0.80335170636E-02  0.17746986007E-01 -0.13560749905E-01  0.23735771458E-01  0.00000000000E+00 0.  1.
     999901    1    3    3    0    0  0.10626647705E+00  0.62358454336E-01 -0.15112711612E-01  0.88871229035E+00  0.88000000000E+00 0. -1.
        -11    1    4    4    0    0 -0.62003046708E-01 -0.39627442540E-01  0.11324406143E-01  0.74452772272E-01  0.51100000000E-03 0. -1.
         11    1    4    4    0    0 -0.36229913273E-01 -0.40477997803E-01  0.17349055374E-01  0.57029165918E-01  0.51100000000E-03 0.  1.
</event>
<event>
 8    1  0.1066842E+005  0.1043930E+01  0.7957747E-01            NaN
         13   -1    0    0    0    0  0.00000000000E+00  0.00000000000E+00  0.74505805969E-08  0.10566000000E+00  0.10566000000E+00 0. -1.
     999900   -1    0    0    0    0 -0.00000000000E+00 -0.00000000000E+00 -0.74505805969E-08  0.93827000000E+00  0.93827000000E+00 0.  1.
     999902    2    1    2    0    0  0.14812794586E-01 -0.70915397817E-02  0.17155164261E-01  0.10201811373E+01  0.10199046742E+01 0.  0.
     999903    2    3    3    0    0  0.60207250655E-01  0.33880713361E-01 -0.10751494277E+00  0.12929280659E+00  0.19604875619E-01 0.  0.
         14    1    1    2    0    0 -0.14812794586E-01  0.70915397817E-02 -0.17155164261E-01  0.23748862725E-01  0.00000000000E+00 0.  1.
     999901    1    3    3    0    0 -0.45394456070E-01 -0.40972253143E-01  0.12467010703E+00  0.89088833069E+00  0.88000000000E+00 0. -1.
        -11    1    4    4    0    0  0.27619869260E-01  0.19206300720E-01 -0.35587957211E-01  0.48974513624E-01  0.51100000000E-03 0. -1.
         11    1    4    4    0    0  0.32587381396E-01  0.14674412642E-01 -0.71926985554E-01  0.80318292963E-01  0.51100000000E-03 0.  1.
</event>
<event>
 8    1  0.1066842E+005  0.1043930E+01  0.7957747E-01            NaN
         13   -1    0    0    0    0  0.00000000000E+00  0.00000000000E+00  0.74505805969E-08  0.10566000000E+00  0.10566000000E+00 0.  1.
     999900   -1    0    0    0    0 -0.00000000000E+00 -0.00000000000E+00 -0.74505805969E-08  0.93827000000E+00  0.93827000000E+00 0. -1.
     999902    2    1    2    0    0 -0.21684350228E-01  0.57204491032E-02 -0.46739824311E-04  0.10215037483E+01  0.10212575439E+01 0.  0.
     999903    2    3    3    0    0  0.43273731317E-02 -0.58696806726E-01  0.11556837072E+00  0.13122679899E+00  0.20009577358E-01 0.  0.
         14    1    1    2    0    0  0.21684350228E-01 -0.57204491032E-02  0.46739824311E-04  0.22426251746E-01  0.00000000000E+00 0.  1.
     999901    1    3    3    0    0 -0.26011723360E-01  0.64417255829E-01 -0.11561511054E+00  0.89027694926E+00  0.88000000000E+00 0. -1.
        -11    1    4    4    0    0  0.49338428550E-02 -0.10220754140E-01  0.38814106794E-01  0.40442584335E-01  0.51100000000E-03 0. -1.
         11    1    4    4    0    0 -0.60646972332E-03 -0.48476052586E-01  0.76754263922E-01  0.90784214658E-01  0.51100000000E-03 0.  1.
</event>
<event>
 8    1  0.1066842E+005  0.1043930E+01  0.7957747E-01            NaN
         13   -1    0    0    0    0  0.00000000000E+00  0.00000000000E+00  0.74505805969E-08  0.10566000000E+00  0.10566000000E+00 0.  1.
     999900   -1    0    0    0    0 -0.00000000000E+00 -0.00000000000E+00 -0.74505805969E-08  0.93827000000E+00  0.93827000000E+00 0. -1.
     999902    2    1    2    0    0  0.18746006528E-01  0.76228773725E-02 -0.12729407833E-01  0.10200227031E+01  0.10197424950E+01 0.  0.
     999903    2    3    3    0    0 -0.12559841553E+00  0.23698614776E-02 -0.17225266759E-01  0.12823622694E+00  0.19163555462E-01 0.  0.
         14    1    1    2    0    0 -0.18746006528E-01 -0.76228773725E-02  0.12729407833E-01  0.23907296877E-01  0.00000000000E+00 0. -1.
     999901    1    3    3    0    0  0.14434442206E+00  0.52530158949E-02  0.44958589258E-02  0.89178647618E+00  0.88000000000E+00 0.  1.
        -11    1    4    4    0    0 -0.37208613790E-01 -0.10661192532E-02  0.34724641912E-02  0.37388991414E-01  0.51100000000E-03 0. -1.
         11    1    4    4    0    0 -0.88389801739E-01  0.34359807308E-02 -0.20697730950E-01  0.90847235525E-01  0.51100000000E-03 0.  1.
</event>
<event>
 8    1  0.1066842E+005  0.1043930E+01  0.7957747E-01            NaN
         13   -1    0    0    0    0  0.00000000000E+00  0.00000000000E+00  0.74505805969E-08  0.10566000000E+00  0.10566000000E+00 0. -1.
     999900   -1    0    0    0    0 -0.00000000000E+00 -0.00000000000E+00 -0.74505805969E-08  0.93827000000E+00  0.93827000000E+00 0. -1.
     999902    2    1    2    0    0  0.22230967634E-01 -0.38278260662E-02 -0.64884683742E-02  0.10204572840E+01  0.10201872868E+01 0.  0.
     999903    2    3    3    0    0 -0.48032548041E-02  0.12678400280E+00  0.20941310652E-03  0.13038135430E+00  0.30033299412E-01 0.  0.
         14    1    1    2    0    0 -0.22230967634E-01  0.38278260662E-02  0.64884683742E-02  0.23472715995E-01  0.00000000000E+00 0. -1.
     999901    1    3    3    0    0  0.27034222438E-01 -0.13061182886E+00 -0.66978814807E-02  0.89007592970E+00  0.88000000000E+00 0.  1.
        -11    1    4    4    0    0 -0.13195045272E-01  0.28824956495E-01  0.41919107503E-02  0.31981566151E-01  0.51100000000E-03 0.  1.
         11    1    4    4    0    0  0.83917904684E-02  0.97959046302E-01 -0.39824976438E-02  0.98399788151E-01  0.51100000000E-03 0. -1.
</event>
<event>
 8    1  0.1122633E+005  0.1043930E+01  0.7957747E-01            NaN
         13   -1    0    0    0    0  0.00000000000E+00  0.00000000000E+00  0.74505805969E-08  0.10566000000E+00  0.10566000000E+00 0. -1.
     999900   -1    0    0    0    0 -0.00000000000E+00 -0.00000000000E+00 -0.74505805969E-08  0.93827000000E+00  0.93827000000E+00 0. -1.
     999902    2    1    2    0    0 -0.13474816403E-01 -0.51116794013E-02 -0.29758440626E-01  0.10108654460E+01  0.10103245445E+01 0.  0.
     999903    2    3    3    0    0  0.28425870536E-01  0.11577065289E+00  0.64187606992E-02  0.12087836984E+00  0.18960633386E-01 0.  0.
         14    1    1    2    0    0  0.13474816403E-01  0.51116794013E-02  0.29758440626E-01  0.33064554010E-01  0.00000000000E+00 0. -1.
     999901    1    3    3    0    0 -0.41900686939E-01 -0.12088233229E+00 -0.36177201325E-01  0.88998707615E+00  0.88000000000E+00 0. -1.
        -11    1    4    4    0    0  0.24300259449E-01  0.59587120865E-01  0.24078484581E-02  0.64398652450E-01  0.51100000000E-03 0. -1.
         11    1    4    4    0    0  0.41256110874E-02  0.56183532027E-01  0.40109122411E-02  0.56479717385E-01  0.51100000000E-03 0.  1.
</event>
<event>
 8    1  0.1066842E+005  0.1043930E+01  0.7957747E-01            NaN
         13   -1    0    0    0    0  0.00000000000E+00  0.00000000000E+00  0.74505805969E-08  0.10566000000E+00  0.10566000000E+00 0.  1.
     999900   -1    0    0    0    0 -0.00000000000E+00 -0.00000000000E+00 -0.74505805969E-08  0.93827000000E+00  0.93827000000E+00 0. -1.
     999902    2    1    2    0    0  0.23148793707E-02  0.20676508176E-01  0.10981604638E-01  0.10204040080E+01  0.10201327695E+01 0.  0.
     999903    2    3    3    0    0  0.58739983337E-01 -0.95359831593E-01  0.61794840794E-01  0.12954475459E+00  0.20478231591E-01 0.  0.
         14    1    1    2    0    0 -0.23148793707E-02 -0.20676508176E-01 -0.10981604638E-01  0.23525991951E-01  0.00000000000E+00 0. -1.
     999901    1    3    3    0    0 -0.56425103966E-01  0.11603633977E+00 -0.50813236156E-01  0.89085925346E+00  0.88000000000E+00 0. -1.
        -11    1    4    4    0    0  0.21117746941E-01 -0.27125375693E-01  0.93848888815E-02  0.35638216884E-01  0.51100000000E-03 0.  1.
         11    1    4    4    0    0  0.37622236395E-01 -0.68234455900E-01  0.52409951912E-01  0.93906537706E-01  0.51100000000E-03 0. -1.
</event>
<event>
 8    1  0.1066842E+005  0.1043930E+01  0.7957747E-01            NaN
         13   -1    0    0    0    0  0.00000000000E+00  0.00000000000E+00  0.74505805969E-08  0.10566000000E+00  0.10566000000E+00 0. -1.
     999900   -1    0    0    0    0 -0.00000000000E+00 -0.00000000000E+00 -0.74505805969E-08  0.93827000000E+00  0.93827000000E+00 0.  1.
     999902    2    1    2    0    0  0.15008374394E-01  0.89146378935E-02 -0.15496598589E-01  0.10205876214E+01  0.10203206488E+01 0.  0.
     999903    2    3    3    0    0  0.35990613859E-01  0.12193537159E+00 -0.22302844985E-01  0.13308535909E+00  0.32415070259E-01 0.  0.
         14    1    1    2    0    0 -0.15008374394E-01 -0.89146378935E-02  0.15496598589E-01  0.23342378597E-01  0.00000000000E+00 0. -1.
     999901    1    3    3    0    0 -0.20982239465E-01 -0.11302073369E+00  0.68062463963E-02  0.88750226231E+00  0.88000000000E+00 0.  1.
        -11    1    4    4    0    0  0.23511382193E-04  0.26361693008E-01 -0.15847858970E-01  0.30762886177E-01  0.51100000000E-03 0. -1.
         11    1    4    4    0    0  0.35967102476E-01  0.95573678580E-01 -0.64549860154E-02  0.10232247291E+00  0.51100000000E-03 0.  1.
</event>
<event>
 8    1  0.1066842E+005  0.1043930E+01  0.7957747E-01            NaN
         13   -1    0    0    0    0  0.00000000000E+00  0.00000000000E+00  0.74505805969E-08  0.10566000000E+00  0.10566000000E+00 0.  1.
     999900   -1    0    0    0    0 -0.00000000000E+00 -0.00000000000E+00 -0.74505805969E-08  0.93827000000E+00  0.93827000000E+00 0.  1.
     999902    2    1    2    0    0  0.17615103012E-02 -0.19882860941E-01 -0.11854300257E-01  0.10207145846E+01  0.10204505415E+01 0.  0.
     999903    2    3    3    0    0  0.29330979421E-01  0.11999843945E+00  0.29053678952E-01  0.12830194653E+00  0.18903475817E-01 0.  0.
         14    1    1    2    0    0 -0.17615103012E-02  0.19882860941E-01  0.11854300257E-01  0.23215415403E-01  0.00000000000E+00 0.  1.
     999901    1    3    3    0    0 -0.27569469119E-01 -0.13988130039E+00 -0.40907979209E-01  0.89241263807E+00  0.88000000000E+00 0.  1.
        -11    1    4    4    0    0  0.19620766638E-02  0.30133784518E-01  0.13499661432E-01  0.33081667037E-01  0.51100000000E-03 0. -1.
         11    1    4    4    0    0  0.27368902757E-01  0.89864654930E-01  0.15554017520E-01  0.95220279489E-01  0.51100000000E-03 0.  1.
</event>
<event>
 8    1  0.1066842E+005  0.1043930E+01  0.7957747E-01            NaN
         13   -1    0    0    0    0  0.00000000000E+00  0.00000000000E+00  0.74505805969E-08  0.10566000000E+00  0.10566000000E+00 0. -1.
     999900   -1    0    0    0    0 -0.00000000000E+00 -0.00000000000E+00 -0.74505805969E-08  0.93827000000E+00  0.93827000000E+00 0.  1.
     999902    2    1    2    0    0 -0.54598002916E-02 -0.65560338960E-02  0.22665905975E-01  0.10197115299E+01  0.10194238912E+01 0.  0.
     999903    2    3    3    0    0 -0.12040681243E+00  0.45408518397E-01  0.89411838394E-02  0.13061001811E+00  0.20476768276E-01 0.  0.
         14    1    1    2    0    0  0.54598002916E-02  0.65560338960E-02 -0.22665905975E-01  0.24218470086E-01  0.00000000000E+00 0.  1.
     999901    1    3    3    0    0  0.11494701214E+00 -0.51964552293E-01  0.13724722135E-01  0.88910151180E+00  0.88000000000E+00 0.  1.
        -11    1    4    4    0    0 -0.33591781991E-01  0.65465003764E-02 -0.45928670590E-02  0.34534331227E-01  0.51100000000E-03 0. -1.
         11    1    4    4    0    0 -0.86815030441E-01  0.38862018021E-01  0.13534050898E-01  0.96075686882E-01  0.51100000000E-03 0.  1.
</event>
<event>
 8    1  0.1066842E+005  0.1043930E+01  0.7957747E-01            NaN
         13   -1    0    0    0    0  0.00000000000E+00  0.00000000000E+00  0.74505805969E-08  0.10566000000E+00  0.10566000000E+00 0.  1.
     999900   -1    0    0    0    0 -0.00000000000E+00 -0.00000000000E+00 -0.74505805969E-08  0.93827000000E+00  0.93827000000E+00 0.  1.
     999902    2    1    2    0    0  0.12776255504E-01  0.14615434474E-01  0.17668554735E-01  0.10176807818E+01  0.10173422001E+01 0.  0.
     999903    2    3    3    0    0  0.47014941785E-01 -0.10497100943E+00  0.52816323710E-01  0.12823793886E+00  0.20641883154E-01 0.  0.
         14    1    1    2    0    0 -0.12776255504E-01 -0.14615434474E-01 -0.17668554735E-01  0.26249218197E-01  0.00000000000E+00 0. -1.
     999901    1    3    3    0    0 -0.34238686281E-01  0.11958644390E+00 -0.35147768975E-01  0.88944284295E+00  0.88000000000E+00 0. -1.
        -11    1    4    4    0    0  0.41015048765E-01 -0.72398590219E-01  0.32211806261E-01  0.89228087924E-01  0.51100000000E-03 0. -1.
         11    1    4    4    0    0  0.59998930201E-02 -0.32572419211E-01  0.20604517449E-01  0.39009850933E-01  0.51100000000E-03 0.  1.
</event>
<event>
 8    1  0.1066842E+005  0.1043930E+01  0.7957747E-01            NaN
         13   -1    0    0    0    0  0.00000000000E+00  0.00000000000E+00  0.74505805969E-08  0.10566000000E+00  0.10566000000E+00 0.  1.
     999900   -1    0    0    0    0 -0.00000000000E+00 -0.00000000000E+00 -0.74505805969E-08  0.93827000000E+00  0.93827000000E+00 0. -1.
     999902    2    1    2    0    0  0.74585610017E-02 -0.85128242792E-02  0.20351210366E-01  0.10206433070E+01  0.10203776213E+01 0.  0.
     999903    2    3    3    0    0 -0.12775829672E+00  0.78264529504E-02  0.11427173706E-01  0.13012087096E+00  0.20430981717E-01 0.  0.
         14    1    1    2    0    0 -0.74585610017E-02  0.85128242792E-02 -0.20351210366E-01  0.23286693041E-01  0.00000000000E+00 0. -1.
     999901    1    3    3    0    0  0.13521685772E+00 -0.16339277230E-01  0.89240366606E-02  0.89052243600E+00  0.88000000000E+00 0.  1.
        -11    1    4    4    0    0 -0.40976631483E-01  0.12043168615E-01  0.48353018990E-02  0.42985619728E-01  0.51100000000E-03 0. -1.
         11    1    4    4    0    0 -0.86781665234E-01 -0.42167156641E-02  0.65918718065E-02  0.87135251229E-01  0.51100000000E-03 0.  1.
</event>
<event>
 8    1  0.1066842E+005  0.1043930E+01  0.7957747E-01            NaN
         13   -1    0    0    0    0  0.00000000000E+00  0.00000000000E+00  0.74505805969E-08  0.10566000000E+00  0.10566000000E+00 0.  1.
     999900   -1    0    0    0    0 -0.00000000000E+00 -0.00000000000E+00 -0.74505805969E-08  0.93827000000E+00  0.93827000000E+00 0.  1.
     999902    2    1    2    0    0 -0.96462700114E-02 -0.17083981152E-01  0.13067447546E-01  0.10203573225E+01  0.10200849938E+01 0.  0.
     999903    2    3    3    0    0  0.10724165661E+00  0.57439492464E-01 -0.33664329498E-01  0.12828087151E+00  0.22861030305E-01 0.  0.
         14    1    1    2    0    0  0.96462700114E-02  0.17083981152E-01 -0.13067447546E-01  0.23572677457E-01  0.00000000000E+00 0. -1.
     999901    1    3    3    0    0 -0.11688792662E+00 -0.74523473616E-01  0.46731777044E-01  0.89207645104E+00  0.88000000000E+00 0. -1.
        -11    1    4    4    0    0  0.84126623660E-01  0.49209246042E-01 -0.35362555737E-01  0.10368032684E+00  0.51100000000E-03 0.  1.
         11    1    4    4    0    0  0.23115032951E-01  0.82302464216E-02  0.16982262389E-02  0.24600544665E-01  0.51100000000E-03 0. -1.
</event>
<event>
 8    1  0.1066842E+005  0.1043930E+01  0.7957747E-01            NaN
         13   -1    0    0    0    0  0.00000000000E+00  0.00000000000E+00  0.74505805969E-08  0.10566000000E+00  0.10566000000E+00 0. -1.
     999900   -1    0    0    0    0 -0.00000000000E+00 -0.00000000000E+00 -0.74505805969E-08  0.93827000000E+00  0.93827000000E+00 0. -1.
     999902    2    1    2    0    0  0.10098685228E-01 -0.15491206366E-01 -0.18860284965E-01  0.10175165325E+01  0.10171736443E+01 0.  0.
     999903    2    3    3    0    0 -0.35378415713E-01 -0.10651389002E+00  0.59293143111E-01  0.12821272950E+00  0.18055085713E-01 0.  0.
         14    1    1    2    0    0 -0.10098685228E-01  0.15491206366E-01  0.18860284965E-01  0.26413467531E-01  0.00000000000E+00 0. -1.
     999901    1    3    3    0    0  0.45477100941E-01  0.91022683658E-01 -0.78153428077E-01  0.88930380297E+00  0.88000000000E+00 0. -1.
        -11    1    4    4    0    0 -0.25186635535E-01 -0.48912394847E-01  0.32155257103E-01  0.63726059501E-01  0.51100000000E-03 0. -1.
         11    1    4    4    0    0 -0.10191780178E-01 -0.57601495178E-01  0.27137886009E-01  0.64486670002E-01  0.51100000000E-03 0.  1.
</event>
<event>
 8    1  0.1066842E+005  0.1043930E+01  0.7957747E-01            NaN
         13   -1    0    0    0    0  0.00000000000E+00  0.00000000000E+00  0.74505805969E-08  0.10566000000E+00  0.10566000000E+00 0. -1.
     999900   -1    0    0    0    0 -0.00000000000E+00 -0.00000000000E+00 -0.74505805969E-08  0.93827000000E+00  0.93827000000E+00 0.  1.
     999902    2    1    2    0    0 -0.15605633324E-01 -0.32270001470E-01 -0.85198940990E-02  0.10070860401E+01  0.10064118515E+01 0.  0.
     999903    2    3    3    0    0 -0.49628969867E-01 -0.10342655380E+00  0.37837424423E-01  0.12234322811E+00  0.19393506580E-01 0.  0.
         14    1    1    2    0    0  0.15605633324E-01  0.32270001470E-01  0.85198940990E-02  0.36843959909E-01  0.00000000000E+00 0. -1.
     999901    1    3    3    0    0  0.34023336542E-01  0.71156552326E-01 -0.46357318522E-01  0.88474281198E+00  0.88000000000E+00 0.  1.
        -11    1    4    4    0    0 -0.29897610235E-01 -0.40762744277E-01  0.18870383603E-01  0.53961290914E-01  0.51100000000E-03 0.  1.
         11    1    4    4    0    0 -0.19731359632E-01 -0.62663809520E-01  0.18967040820E-01  0.68381937198E-01  0.51100000000E-03 0. -1.
</event>
<event>
 8    1  0.1066842E+005  0.1043930E+01  0.7957747E-01            NaN
         13   -1    0    0    0    0  0.00000000000E+00  0.00000000000E+00  0.74505805969E-08  0.10566000000E+00  0.10566000000E+00 0. -1.
     999900   -1    0    0    0    0 -0.00000000000E+00 -0.00000000000E+00 -0.74505805969E-08  0.93827000000E+00  0.93827000000E+00 0. -1.
     999902    2    1    2    0    0 -0.18087038357E-01 -0.84885160653E-02 -0.81892844325E-02  0.10223369400E+01  0.10221088781E+01 0.  0.
     999903    2    3    3    0    0  0.19624825130E-02  0.11406469805E+00  0.60981744967E-01  0.13093023993E+00  0.20232346152E-01 0.  0.
         14    1    1    2    0    0  0.18087038357E-01  0.84885160653E-02  0.81892844325E-02  0.21593060020E-01  0.00000000000E+00 0.  1.
     999901    1    3    3    0    0 -0.20049520870E-01 -0.12255321412E+00 -0.69171029399E-01  0.89140670005E+00  0.88000000000E+00 0. -1.
        -11    1    4    4    0    0  0.18366572284E-02  0.72247257051E-01  0.27388104121E-01  0.77287831057E-01  0.51100000000E-03 0. -1.
         11    1    4    4    0    0  0.12582528459E-03  0.41817441001E-01  0.33593640846E-01  0.53642408877E-01  0.51100000000E-03 0.  1.
</event>
<event>
 8    1  0.1066842E+005  0.1043930E+01  0.7957747E-01            NaN
         13   -1    0    0    0    0  0.00000000000E+00  0.00000000000E+00  0.74505805969E-08  0.10566000000E+00  0.10566000000E+00 0.  1.
     999900   -1    0    0    0    0 -0.00000000000E+00 -0.00000000000E+00 -0.74505805969E-08  0.93827000000E+00  0.93827000000E+00 0.  1.
     999902    2    1    2    0    0 -0.17644617299E-01 -0.11730954189E-01 -0.11112825018E-01  0.10200042255E+01  0.10197235789E+01 0.  0.
     999903    2    3    3    0    0  0.79988128542E-01  0.66889356486E-01 -0.72784929415E-01  0.12898416131E+00  0.21609747828E-01 0.  0.
         14    1    1    2    0    0  0.17644617299E-01  0.11730954189E-01  0.11112825018E-01  0.23925774506E-01  0.00000000000E+00 0.  1.
     999901    1    3    3    0    0 -0.97632745841E-01 -0.78620310675E-01  0.61672104397E-01  0.89102006418E+00  0.88000000000E+00 0. -1.
        -11    1    4    4    0    0  0.47787284644E-01  0.41753073869E-01 -0.56626184051E-01  0.85051335042E-01  0.51100000000E-03 0.  1.
         11    1    4    4    0    0  0.32200843899E-01  0.25136282616E-01 -0.16158745364E-01  0.43932826272E-01  0.51100000000E-03 0. -1.
</event>
<event>
 8    1  0.1066842E+005  0.1043930E+01  0.7957747E-01            NaN
         13   -1    0    0    0    0  0.00000000000E+00  0.00000000000E+00  0.74505805969E-08  0.10566000000E+00  0.10566000000E+00 0. -1.
     999900   -1    0    0    0    0 -0.00000000000E+00 -0.00000000000E+00 -0.74505805969E-08  0.93827000000E+00  0.93827000000E+00 0.  1.
     999902    2    1    2    0    0  0.90463367614E-02  0.89601624291E-02 -0.19989026725E-01  0.10202301707E+01  0.10199548614E+01 0.  0.
     999903    2    3    3    0    0 -0.75464276538E-01  0.35267920094E-01  0.95692509983E-01  0.12825687524E+00  0.18817182534E-01 0.  0.
         14    1    1    2    0    0 -0.90463367614E-02 -0.89601624291E-02  0.19989026725E-01  0.23699829302E-01  0.00000000000E+00 0. -1.
     999901    1    3    3    0    0  0.84510613299E-01 -0.26307757665E-01 -0.11568153671E+00  0.89197329546E+00  0.88000000000E+00 0.  1.
        -11    1    4    4    0    0 -0.45854302806E-01  0.30100445951E-01  0.55145253398E-01  0.77781193264E-01  0.51100000000E-03 0.  1.
         11    1    4    4    0    0 -0.29609973732E-01  0.51674741428E-02  0.40547256585E-01  0.50475681976E-01  0.51100000000E-03 0. -1.
</event>
<event>
 8    1  0.1066842E+005  0.1043930E+01  0.7957747E-01            NaN
         13   -1    0    0    0    0  0.00000000000E+00  0.00000000000E+00  0.74505805969E-08  0.10566000000E+00  0.10566000000E+00 0. -1.
     999900   -1    0    0    0    0 -0.00000000000E+00 -0.00000000000E+00 -0.74505805969E-08  0.93827000000E+00  0.93827000000E+00 0. -1.
     999902    2    1    2    0    0 -0.24836081658E-01 -0.27471626501E-02 -0.52019379115E-02  0.10184067163E+01  0.10180868341E+01 0.  0.
     999903    2    3    3    0    0  0.75380907344E-01  0.19206485343E-01  0.97712079475E-01  0.12648928594E+00  0.20017959688E-01 0.  0.
         14    1    1    2    0    0  0.24836081658E-01  0.27471626501E-02  0.52019379115E-02  0.25523283738E-01  0.00000000000E+00 0. -1.
     999901    1    3    3    0    0 -0.10021698900E+00 -0.21953647993E-01 -0.10291401739E+00  0.89191743033E+00  0.88000000000E+00 0. -1.
        -11    1    4    4    0    0  0.24300332065E-01  0.12564606681E-01  0.45837481268E-01  0.53382687171E-01  0.51100000000E-03 0. -1.
         11    1    4    4    0    0  0.51080575278E-01  0.66418786619E-02  0.51874598207E-01  0.73106598765E-01  0.51100000000E-03 0.  1.
</event>
<event>
 8    1  0.1066842E+005  0.1043930E+01  0.7957747E-01            NaN
         13   -1    0    0    0    0  0.00000000000E+00  0.00000000000E+00  0.74505805969E-08  0.10566000000E+00  0.10566000000E+00 0. -1.
     999900   -1    0    0    0    0 -0.00000000000E+00 -0.00000000000E+00 -0.74505805969E-08  0.93827000000E+00  0.93827000000E+00 0.  1.
     999902    2    1    2    0    0  0.30642560921E-02  0.16215889260E-01  0.15803827247E-01  0.10210803679E+01  0.10208246726E+01 0.  0.
     999903    2    3    3    0    0 -0.67288947710E-01 -0.95005950272E-01 -0.51382532941E-01  0.12876098684E+00  0.19628906501E-01 0.  0.
         14    1    1    2    0    0 -0.30642560921E-02 -0.16215889260E-01 -0.15803827247E-01  0.22849632066E-01  0.00000000000E+00 0.  1.
     999901    1    3    3    0    0  0.70353203802E-01  0.11122183953E+00  0.67186360189E-01  0.89231938109E+00  0.88000000000E+00 0. -1.
        -11    1    4    4    0    0 -0.51487908891E-01 -0.84326170043E-01 -0.40375535256E-01  0.10673496468E+00  0.51100000000E-03 0.  1.
         11    1    4    4    0    0 -0.15801038819E-01 -0.10679780229E-01 -0.11006997685E-01  0.22026022168E-01  0.51100000000E-03 0. -1.
</event>
<event>
 8    1  0.1066842E+005  0.1043930E+01  0.7957747E-01            NaN
         13   -1    0    0    0    0  0.00000000000E+00  0.00000000000E+00  0.74505805969E-08  0.10566000000E+00  0.10566000000E+00 0.  1.
     999900   -1    0    0    0    0 -0.00000000000E+00 -0.00000000000E+00 -0.74505805969E-08  0.93827000000E+00  0.93827000000E+00 0. -1.
     999902    2    1    2    0    0  0.18200441301E-01 -0.21925891588E-02 -0.13870199040E-01  0.10209420481E+01  0.10206832122E+01 0.  0.
     999903    2    3    3    0    0  0.54474090827E-01  0.59099988137E-02 -0.12059990058E+00  0.13371453570E+00  0.18245174148E-01 0.  0.
         14    1    1    2    0    0 -0.18200441301E-01  0.21925891588E-02  0.13870199040E-01  0.22987951892E-01  0.00000000000E+00 0.  1.
     999901    1    3    3    0    0 -0.36273649526E-01 -0.81025879725E-02  0.10672970154E+00  0.88722751241E+00  0.88000000000E+00 0.  1.
        -11    1    4    4    0    0  0.20492986900E-01  0.67412812271E-02 -0.30066304590E-01  0.37008798648E-01  0.51100000000E-03 0. -1.
         11    1    4    4    0    0  0.33981103928E-01 -0.83128241337E-03 -0.90533595993E-01  0.96705737053E-01  0.51100000000E-03 0.  1.
</event>
<event>
 8    1  0.1066842E+005  0.1043930E+01  0.7957747E-01            NaN
         13   -1    0    0    0    0  0.00000000000E+00  0.00000000000E+00  0.74505805969E-08  0.10566000000E+00  0.10566000000E+00 0. -1.
     999900   -1    0    0    0    0 -0.00000000000E+00 -0.00000000000E+00 -0.74505805969E-08  0.93827000000E+00  0.93827000000E+00 0. -1.
     999902    2    1    2    0    0  0.10593012290E-01  0.12472909176E-03 -0.20109147442E-01  0.10212010476E+01  0.10209480762E+01 0.  0.
     999903    2    3    3    0    0  0.76535943665E-01 -0.31950621436E-01 -0.10253757542E+00  0.13431224732E+00  0.25440764990E-01 0.  0.
         14    1    1    2    0    0 -0.10593012290E-01 -0.12472909176E-03  0.20109147442E-01  0.22728952408E-01  0.00000000000E+00 0. -1.
     999901    1    3    3    0    0 -0.65942931375E-01  0.32075350527E-01  0.82428427982E-01  0.88688880027E+00  0.88000000000E+00 0.  1.
        -11    1    4    4    0    0  0.53317283402E-01 -0.13200073471E-01 -0.52119736570E-01  0.75721217041E-01  0.51100000000E-03 0. -1.
         11    1    4    4    0    0  0.23218660263E-01 -0.18750547964E-01 -0.50417838854E-01  0.58591030278E-01  0.51100000000E-03 0.  1.
</event>
<event>
 8    1  0.1066842E+005  0.1043930E+01  0.7957747E-01            NaN
         13   -1    0    0    0    0  0.00000000000E+00  0.00000000000E+00  0.74505805969E-08  0.10566000000E+00  0.10566000000E+00 0. -1.
     999900   -1    0    0    0    0 -0.00000000000E+00 -0.00000000000E+00 -0.74505805969E-08  0.93827000000E+00  0.93827000000E+00 0. -1.
     999902    2    1    2    0    0  0.21065744328E-01 -0.33668766413E-02 -0.12988712353E-01  0.10189538496E+01  0.10186477013E+01 0.  0.
     999903    2    3    3    0    0  0.10283523641E+00 -0.46416839549E-01  0.62796455646E-01  0.13087562055E+00  0.21340674107E-01 0.  0.
         14    1    1    2    0    0 -0.21065744328E-01  0.33668766413E-02  0.12988712353E-01  0.24976150444E-01  0.00000000000E+00 0. -1.
     999901    1    3    3    0    0 -0.81769492085E-01  0.43049962907E-01 -0.75785167999E-01  0.88807822900E+00  0.88000000000E+00 0. -1.
        -11    1    4    4    0    0  0.36931864383E-01 -0.21502999111E-01  0.13264133633E-01  0.44749747928E-01  0.51100000000E-03 0.  1.
         11    1    4    4    0    0  0.65903372030E-01 -0.24913840437E-01  0.49532322012E-01  0.86125872624E-01  0.51100000000E-03 0. -1.
</event>
<event>
 8    1  0.1066842E+005  0.1043930E+01  0.7957747E-01            NaN
         13   -1    0    0    0    0  0.00000000000E+00  0.00000000000E+00  0.74505805969E-08  0.10566000000E+00  0.10566000000E+00 0.  1.
     999900   -1    0    0    0    0 -0.00000000000E+00 -0.00000000000E+00 -0.74505805969E-08  0.93827000000E+00  0.93827000000E+00 0.  1.
     999902    2    1    2    0    0  0.21478340008E-01  0.60634322972E-02 -0.79724464086E-02  0.10202309662E+01  0.10199556756E+01 0.  0.
     999903    2    3    3    0    0 -0.12271868031E+00 -0.28659091027E-01 -0.71631953732E-02  0.12781901583E+00  0.20128870895E-01 0.  0.
         14    1    1    2    0    0 -0.21478340008E-01 -0.60634322972E-02  0.79724464086E-02  0.23699033788E-01  0.00000000000E+00 0.  1.
     999901    1    3    3    0    0  0.14419702032E+00  0.34722523325E-01 -0.80925103548E-03  0.89241195038E+00  0.88000000000E+00 0. -1.
        -11    1    4    4    0    0 -0.39220829773E-01  0.33689179409E-03 -0.18872586065E-02  0.39270979746E-01  0.51100000000E-03 0.  1.
         11    1    4    4    0    0 -0.83497850542E-01 -0.28995982821E-01 -0.52759367667E-02  0.88548036085E-01  0.51100000000E-03 0. -1.
</event>
<event>
 8    1  0.1066842E+005  0.1043930E+01  0.7957747E-01            NaN
         13   -1    0    0    0    0  0.00000000000E+00  0.00000000000E+00  0.74505805969E-08  0.10566000000E+00  0.10566000000E+00 0.  1.
     999900   -1    0    0    0    0 -0.00000000000E+00 -0.00000000000E+00 -0.74505805969E-08  0.93827000000E+00  0.93827000000E+00 0.  1.
     999902    2    1    2    0    0  0.40250512359E-02  0.14111689168E-01 -0.18717639562E-01  0.10201457439E+01  0.10198684464E+01 0.  0.
     999903    2    3    3    0    0  0.44250091518E-01 -0.64329332173E-02  0.11873114945E+00  0.12833169096E+00  0.19299840039E-01 0.  0.
         14    1    1    2    0    0 -0.40250512359E-02 -0.14111689168E-01  0.18717639562E-01  0.23784256125E-01  0.00000000000E+00 0.  1.
     999901    1    3    3    0    0 -0.40225040283E-01  0.20544622386E-01 -0.13744878901E+00  0.89181405291E+00  0.88000000000E+00 0.  1.
        -11    1    4    4    0    0  0.18621581611E-01  0.60026552593E-02  0.58828858886E-01  0.61999120402E-01  0.51100000000E-03 0. -1.
         11    1    4    4    0    0  0.25628509908E-01 -0.12435588477E-01  0.59902290566E-01  0.66332570559E-01  0.51100000000E-03 0.  1.
</event>
<event>
 8    1  0.1066842E+005  0.1043930E+01  0.7957747E-01            NaN
         13   -1    0    0    0    0  0.00000000000E+00  0.00000000000E+00  0.74505805969E-08  0.10566000000E+00  0.10566000000E+00 0.  1.
     999900   -1    0    0    0    0 -0.00000000000E+00 -0.00000000000E+00 -0.74505805969E-08  0.93827000000E+00  0.93827000000E+00 0. -1.
     999902    2    1    2    0    0  0.16416126477E-01  0.91478014227E-02  0.14381179132E-01  0.10202658965E+01  0.10199914264E+01 0.  0.
     999903    2    3    3    0    0 -0.12639826405E+00 -0.91162386588E-02 -0.80213108786E-02  0.12828417203E+00  0.18244462233E-01 0.  0.
         14    1    1    2    0    0 -0.16416126477E-01 -0.91478014227E-02 -0.14381179132E-01  0.23664103461E-01  0.00000000000E+00 0. -1.
     999901    1    3    3    0    0  0.14281439053E+00  0.18264040081E-01  0.22402490011E-01  0.89198172451E+00  0.88000000000E+00 0. -1.
        -11    1    4    4    0    0 -0.37310637356E-01 -0.80374900405E-02  0.40093841177E-02  0.38379958156E-01  0.51100000000E-03 0. -1.
         11    1    4    4    0    0 -0.89087626696E-01 -0.10787486183E-02 -0.12030694996E-01  0.89904213873E-01  0.51100000000E-03 0.  1.
</event>
<event>
 8    1  0.1066842E+005  0.1043930E+01  0.7957747E-01            NaN
         13   -1    0    0    0    0  0.00000000000E+00  0.00000000000E+00  0.74505805969E-08  0.10566000000E+00  0.10566000000E+00 0.  1.
     999900   -1    0    0    0    0 -0.00000000000E+00 -0.00000000000E+00 -0.74505805969E-08  0.93827000000E+00  0.93827000000E+00 0.  1.
     999902    2    1    2    0    0  0.43574228438E-03  0.10974643209E-01  0.20304728995E-01  0.10208450550E+01  0.10205840052E+01 0.  0.
     999903    2    3    3    0    0  0.33514011902E-03 -0.10303062443E+00 -0.74309990227E-01  0.12846108147E+00  0.19101123374E-01 0.  0.
         14    1    1    2    0    0 -0.43574228438E-03 -0.10974643209E-01 -0.20304728995E-01  0.23084944974E-01  0.00000000000E+00 0. -1.
     999901    1    3    3    0    0  0.10060216536E-03  0.11400526764E+00  0.94614719221E-01  0.89238397356E+00  0.88000000000E+00 0.  1.
        -11    1    4    4    0    0 -0.46373174617E-02 -0.96233545057E-01 -0.68059539999E-01  0.11796084949E+00  0.51100000000E-03 0.  1.
         11    1    4    4    0    0  0.49724575807E-02 -0.67970793778E-02 -0.62504502276E-02  0.10500231974E-01  0.51100000000E-03 0. -1.
</event>
<event>
 8    1  0.1066842E+005  0.1043930E+01  0.7957747E-01            NaN
         13   -1    0    0    0    0  0.00000000000E+00  0.00000000000E+00  0.74505805969E-08  0.10566000000E+00  0.10566000000E+00 0.  1.
     999900   -1    0    0    0    0 -0.00000000000E+00 -0.00000000000E+00 -0.74505805969E-08  0.93827000000E+00  0.93827000000E+00 0. -1.
     999902    2    1    2    0    0 -0.21831381730E-01  0.98094839196E-02  0.10502604725E-02  0.10199729916E+01  0.10196916031E+01 0.  0.
     999903    2    3    3    0    0  0.67911773917E-01  0.96531688346E-01  0.50115097951E-01  0.12981461639E+00  0.20246868775E-01 0.  0.
         14    1    1    2    0    0  0.21831381730E-01 -0.98094839196E-02 -0.10502604725E-02  0.23957008370E-01  0.00000000000E+00 0.  1.
     999901    1    3    3    0    0 -0.89743155647E-01 -0.86722204427E-01 -0.49064837478E-01  0.89015837524E+00  0.88000000000E+00 0.  1.
        -11    1    4    4    0    0  0.39992297135E-01  0.48357823280E-01  0.16946744861E-01  0.65002432146E-01  0.51100000000E-03 0. -1.
         11    1    4    4    0    0  0.27919476782E-01  0.48173865066E-01  0.33168353090E-01  0.64812184247E-01  0.51100000000E-03 0.  1.
</event>
<event>
 8    1  0.1066842E+005  0.1043930E+01  0.7957747E-01            NaN
         13   -1    0    0    0    0  0.00000000000E+00  0.00000000000E+00  0.74505805969E-08  0.10566000000E+00  0.10566000000E+00 0.  1.
     999900   -1    0    0    0    0 -0.00000000000E+00 -0.00000000000E+00 -0.74505805969E-08  0.93827000000E+00  0.93827000000E+00 0. -1.
     999902    2    1    2    0    0 -0.16811599500E-02 -0.19030651809E-01 -0.13740806539E-01  0.10203970067E+01  0.10201256048E+01 0.  0.
     999903    2    3    3    0    0 -0.61434888551E-01  0.10873820096E+00 -0.26422054652E-01  0.12907428075E+00  0.19073623175E-01 0.  0.
         14    1    1    2    0    0  0.16811599500E-02  0.19030651809E-01  0.13740806539E-01  0.23532993252E-01  0.00000000000E+00 0.  1.
     999901    1    3    3    0    0  0.59753728601E-01 -0.12776885277E+00  0.12681248113E-01  0.89132272599E+00  0.88000000000E+00 0. -1.
        -11    1    4    4    0    0 -0.32340298092E-01  0.50197049894E-01 -0.35734591638E-02  0.59821981161E-01  0.51100000000E-03 0.  1.
         11    1    4    4    0    0 -0.29094590460E-01  0.58541151066E-01 -0.22848595488E-01  0.69252299593E-01  0.51100000000E-03 0. -1.
</event>
<event>
 8    1  0.1066842E+005  0.1043930E+01  0.7957747E-01            NaN
         13   -1    0    0    0    0  0.00000000000E+00  0.00000000000E+00  0.74505805969E-08  0.10566000000E+00  0.10566000000E+00 0. -1.
     999900   -1    0    0    0    0 -0.00000000000E+00 -0.00000000000E+00 -0.74505805969E-08  0.93827000000E+00  0.93827000000E+00 0. -1.
     999902    2    1    2    0    0 -0.21006154724E-01 -0.11166417431E-01 -0.57322766906E-02  0.10194594787E+01  0.10191657482E+01 0.  0.
     999903    2    3    3    0    0 -0.84072176629E-01  0.81439232243E-01 -0.55246839201E-01  0.13097491423E+00  0.20043340171E-01 0.  0.
         14    1    1    2    0    0  0.21006154724E-01  0.11166417431E-01  0.57322766906E-02  0.24470521258E-01  0.00000000000E+00 0.  1.
     999901    1    3    3    0    0  0.63066021905E-01 -0.92605649674E-01  0.49514562510E-01  0.88848456451E+00  0.88000000000E+00 0.  1.
        -11    1    4    4    0    0 -0.38792838959E-01  0.50967772098E-01 -0.26902435047E-01  0.69473738057E-01  0.51100000000E-03 0.  1.
         11    1    4    4    0    0 -0.45279337670E-01  0.30471460144E-01 -0.28344404154E-01  0.61501176176E-01  0.51100000000E-03 0. -1.
</event>
<event>
 8    1  0.1066842E+005  0.1043930E+01  0.7957747E-01            NaN
         13   -1    0    0    0    0  0.00000000000E+00  0.00000000000E+00  0.74505805969E-08  0.10566000000E+00  0.10566000000E+00 0. -1.
     999900   -1    0    0    0    0 -0.00000000000E+00 -0.00000000000E+00 -0.74505805969E-08  0.93827000000E+00  0.93827000000E+00 0. -1.
     999902    2    1    2    0    0 -0.81529153735E-02  0.16857454640E-01 -0.14032070783E-01  0.10205303672E+01  0.10202620681E+01 0.  0.
     999903    2    3    3    0    0 -0.82946046559E-01 -0.48595726220E-01  0.84116658719E-01  0.12951336146E+00  0.21366030918E-01 0.  0.
         14    1    1    2    0    0  0.81529153735E-02 -0.16857454640E-01  0.14032070783E-01  0.23399632828E-01  0.00000000000E+00 0.  1.
     999901    1    3    3    0    0  0.74793131186E-01  0.65453180860E-01 -0.98148729502E-01  0.89101700571E+00  0.88000000000E+00 0. -1.
        -11    1    4    4    0    0 -0.27012610655E-01 -0.20137221059E-01  0.42379315783E-01  0.54142925056E-01  0.51100000000E-03 0.  1.
         11    1    4    4    0    0 -0.55933435905E-01 -0.28458505161E-01  0.41737342935E-01  0.75370436408E-01  0.51100000000E-03 0. -1.
</event>
<event>
 8    1  0.1086574E+005  0.1043930E+01  0.7957747E-01            NaN
         13   -1    0    0    0    0  0.00000000000E+00  0.00000000000E+00  0.74505805969E-08  0.10566000000E+00  0.10566000000E+00 0.  1.
     999900   -1    0    0    0    0 -0.00000000000E+00 -0.00000000000E+00 -0.74505805969E-08  0.93827000000E+00  0.93827000000E+00 0.  1.
     999902    2    1    2    0    0 -0.69636599912E-03 -0.16534385423E-01 -0.17845323429E-01  0.10195922434E+01  0.10193017298E+01 0.  0.
     999903    2    3    3    0    0 -0.68652002548E-02  0.65392256155E-01  0.10685501412E+00  0.12701160096E+00  0.19765490057E-01 0.  0.
         14    1    1    2    0    0  0.69636599912E-03  0.16534385423E-01  0.17845323429E-01  0.24337756577E-01  0.00000000000E+00 0.  1.
     999901    1    3    3    0    0  0.61688342557E-02 -0.81926641578E-01 -0.12470033754E+00  0.89258064246E+00  0.88000000000E+00 0.  1.
        -11    1    4    4    0    0 -0.73667283874E-02  0.27076298429E-01  0.61723812746E-01  0.67804755030E-01  0.51100000000E-03 0. -1.
         11    1    4    4    0    0  0.50152813263E-03  0.38315957726E-01  0.45131201369E-01  0.59206845930E-01  0.51100000000E-03 0.  1.
</event>
<event>
 8    1  0.1066842E+005  0.1043930E+01  0.7957747E-01            NaN
         13   -1    0    0    0    0  0.00000000000E+00  0.00000000000E+00  0.74505805969E-08  0.10566000000E+00  0.10566000000E+00 0.  1.
     999900   -1    0    0    0    0 -0.00000000000E+00 -0.00000000000E+00 -0.74505805969E-08  0.93827000000E+00  0.93827000000E+00 0. -1.
     999902    2    1    2    0    0  0.16038722036E-01  0.71396923350E-02  0.18252925970E-01  0.10186044177E+01  0.10182895338E+01 0.  0.
     999903    2    3    3    0    0  0.47403244553E-01  0.63664924799E-01  0.10379031869E+00  0.13209695541E+00  0.19413529616E-01 0.  0.
         14    1    1    2    0    0 -0.16038722036E-01 -0.71396923350E-02 -0.18252925970E-01  0.25325582277E-01  0.00000000000E+00 0. -1.
     999901    1    3    3    0    0 -0.31364522518E-01 -0.56525232464E-01 -0.85537392718E-01  0.88650746231E+00  0.88000000000E+00 0. -1.
        -11    1    4    4    0    0  0.45981829534E-01  0.50153994194E-01  0.88548399421E-01  0.11167287917E+00  0.51100000000E-03 0.  1.
         11    1    4    4    0    0  0.14214150193E-02  0.13510930604E-01  0.15241919268E-01  0.20424076244E-01  0.51100000000E-03 0. -1.
</event>
<event>
 8    1  0.1066842E+005  0.1043930E+01  0.7957747E-01            NaN
         13   -1    0    0    0    0  0.00000000000E+00  0.00000000000E+00  0.74505805969E-08  0.10566000000E+00  0.10566000000E+00 0.  1.
     999900   -1    0    0    0    0 -0.00000000000E+00 -0.00000000000E+00 -0.74505805969E-08  0.93827000000E+00  0.93827000000E+00 0.  1.
     999902    2    1    2    0    0 -0.91632684053E-02  0.14166453952E-01 -0.18720741796E-01  0.10187284112E+01  0.10184166415E+01 0.  0.
     999903    2    3    3    0    0  0.12196839183E+00 -0.23608631769E-01 -0.26833595308E-01  0.12817336639E+00  0.16574495911E-01 0.  0.
         14    1    1    2    0    0  0.91632684053E-02 -0.14166453952E-01  0.18720741796E-01  0.25201588815E-01  0.00000000000E+00 0.  1.
     999901    1    3    3    0    0 -0.13113166024E+00  0.37775085720E-01  0.81128535120E-02  0.89055504479E+00  0.88000000000E+00 0. -1.
        -11    1    4    4    0    0  0.43069740230E-01 -0.63706662076E-03 -0.70695083991E-02  0.43653722033E-01  0.51100000000E-03 0.  1.
         11    1    4    4    0    0  0.78898651601E-01 -0.22971565148E-01 -0.19764086909E-01  0.84519644357E-01  0.51100000000E-03 0. -1.
</event>
<event>
 8    1  0.1066842E+005  0.1043930E+01  0.7957747E-01            NaN
         13   -1    0    0    0    0  0.00000000000E+00  0.00000000000E+00  0.74505805969E-08  0.10566000000E+00  0.10566000000E+00 0. -1.
     999900   -1    0    0    0    0 -0.00000000000E+00 -0.00000000000E+00 -0.74505805969E-08  0.93827000000E+00  0.93827000000E+00 0. -1.
     999902    2    1    2    0    0  0.21739921212E-01  0.12124131661E-01 -0.16179853267E-02  0.10189853288E+01  0.10186799614E+01 0.  0.
     999903    2    3    3    0    0 -0.32576956940E-01  0.12098151236E+00 -0.28721482610E-01  0.13020253639E+00  0.20736259600E-01 0.  0.
         14    1    1    2    0    0 -0.21739921212E-01 -0.12124131661E-01  0.16179853267E-02  0.24944671162E-01  0.00000000000E+00 0. -1.
     999901    1    3    3    0    0  0.54316878152E-01 -0.10885738070E+00  0.27103497283E-01  0.88878279245E+00  0.88000000000E+00 0.  1.
        -11    1    4    4    0    0 -0.21134223491E-01  0.97444905516E-01 -0.29598836421E-01  0.10401210147E+00  0.51100000000E-03 0. -1.
         11    1    4    4    0    0 -0.11442733449E-01  0.23536606847E-01  0.87735381184E-03  0.26190434922E-01  0.51100000000E-03 0.  1.
</event>
<event>
 8    1  0.1066842E+005  0.1043930E+01  0.7957747E-01            NaN
         13   -1    0    0    0    0  0.00000000000E+00  0.00000000000E+00  0.74505805969E-08  0.10566000000E+00  0.10566000000E+00 0.  1.
     999900   -1    0    0    0    0 -0.00000000000E+00 -0.00000000000E+00 -0.74505805969E-08  0.93827000000E+00  0.93827000000E+00 0. -1.
     999902    2    1    2    0    0 -0.67754199915E-02  0.21153241748E-01 -0.60867617968E-02  0.10208992679E+01  0.10206394567E+01 0.  0.
     999903    2    3    3    0    0 -0.60908682093E-02 -0.88187458125E-01 -0.92951566876E-01  0.12988784730E+00  0.20414030582E-01 0.  0.
         14    1    1    2    0    0  0.67754199915E-02 -0.21153241748E-01  0.60867617968E-02  0.23030732113E-01  0.00000000000E+00 0.  1.
     999901    1    3    3    0    0 -0.68455178215E-03  0.10934069987E+00  0.86864805079E-01  0.89101142059E+00  0.88000000000E+00 0.  1.
        -11    1    4    4    0    0 -0.67832467723E-02 -0.12797301582E-01 -0.90445243419E-02  0.17083556600E-01  0.51100000000E-03 0.  1.
         11    1    4    4    0    0  0.69237856301E-03 -0.75390156544E-01 -0.83907042534E-01  0.11280429070E+00  0.51100000000E-03 0. -1.
</event>
<event>
 8    1  0.1066842E+005  0.1043930E+01  0.7957747E-01            NaN
         13   -1    0    0    0    0  0.00000000000E+00  0.00000000000E+00  0.74505805969E-08  0.10566000000E+00  0.10566000000E+00 0.  1.
     999900   -1    0    0    0    0 -0.00000000000E+00 -0.00000000000E+00 -0.74505805969E-08  0.93827000000E+00  0.93827000000E+00 0. -1.
     999902    2    1    2    0    0  0.32325590223E-02  0.14973456630E-01 -0.17400576623E-01  0.10207473792E+01  0.10204840901E+01 0.  0.
     999903    2    3    3    0    0  0.56026537416E-01  0.90251077556E-01  0.75728780325E-01  0.13106934669E+00  0.12652888119E-01 0.  0.
         14    1    1    2    0    0 -0.32325590223E-02 -0.14973456630E-01  0.17400576623E-01  0.23182620820E-01  0.00000000000E+00 0.  1.
     999901    1    3    3    0    0 -0.52793978393E-01 -0.75277620927E-01 -0.93129356948E-01  0.88967803249E+00  0.88000000000E+00 0. -1.
        -11    1    4    4    0    0  0.30624171028E-01  0.48244306584E-01  0.33023230943E-01  0.66001120232E-01  0.51100000000E-03 0.  1.
         11    1    4    4    0    0  0.25402366387E-01  0.42006770973E-01  0.42705549381E-01  0.65068226459E-01  0.51100000000E-03 0. -1.
</event>
<event>
 8    1  0.1066842E+005  0.1043930E+01  0.7957747E-01            NaN
         13   -1    0    0    0    0  0.00000000000E+00  0.00000000000E+00  0.74505805969E-08  0.10566000000E+00  0.10566000000E+00 0.  1.
     999900   -1    0    0    0    0 -0.00000000000E+00 -0.00000000000E+00 -0.74505805969E-08  0.93827000000E+00  0.93827000000E+00 0.  1.
     999902    2    1    2    0    0 -0.64488709179E-02  0.24045348688E-02  0.22874382235E-01  0.10200426166E+01  0.10197628806E+01 0.  0.
     999903    2    3    3    0    0  0.10964938145E+00 -0.65996474716E-01  0.13616346809E-02  0.12952574385E+00  0.19913380997E-01 0.  0.
         14    1    1    2    0    0  0.64488709179E-02 -0.24045348688E-02 -0.22874382235E-01  0.23887383421E-01  0.00000000000E+00 0. -1.
     999901    1    3    3    0    0 -0.11609825237E+00  0.68401009585E-01  0.21512747554E-01  0.89051687273E+00  0.88000000000E+00 0. -1.
        -11    1    4    4    0    0  0.95047804093E-01 -0.61690159024E-01  0.63668177193E-02  0.11349254721E+00  0.51100000000E-03 0.  1.
         11    1    4    4    0    0  0.14601577357E-01 -0.43063156922E-02 -0.50051830385E-02  0.16033196637E-01  0.51100000000E-03 0. -1.
</event>
<event>
 8    1  0.1066842E+005  0.1043930E+01  0.7957747E-01            NaN
         13   -1    0    0    0    0  0.00000000000E+00  0.00000000000E+00  0.74505805969E-08  0.10566000000E+00  0.10566000000E+00 0.  1.
     999900   -1    0    0    0    0 -0.00000000000E+00 -0.00000000000E+00 -0.74505805969E-08  0.93827000000E+00  0.93827000000E+00 0.  1.
     999902    2    1    2    0    0  0.19137816338E-01  0.11357725609E-01 -0.94717745943E-02  0.10197438788E+01  0.10194570172E+01 0.  0.
     999903    2    3    3    0    0  0.10167453579E+00 -0.57619595737E-01  0.55228861991E-01  0.13083648581E+00  0.20254129978E-01 0.  0.
         14    1    1    2    0    0 -0.19137816338E-01 -0.11357725609E-01  0.94717745943E-02  0.24186121210E-01  0.00000000000E+00 0. -1.
     999901    1    3    3    0    0 -0.82536719453E-01  0.68977321347E-01 -0.64700636585E-01  0.88890739298E+00  0.88000000000E+00 0.  1.
        -11    1    4    4    0    0  0.27988153084E-01 -0.26732060431E-01  0.17668673540E-01  0.42548594732E-01  0.51100000000E-03 0. -1.
         11    1    4    4    0    0  0.73686382708E-01 -0.30887535306E-01  0.37560188451E-01  0.88287891079E-01  0.51100000000E-03 0.  1.
</event>
<event>
 8    1  0.1066842E+005  0.1043930E+01  0.7957747E-01            NaN
         13   -1    0    0    0    0  0.00000000000E+00  0.00000000000E+00  0.74505805969E-08  0.10566000000E+00  0.10566000000E+00 0.  1.
     999900   -1    0    0    0    0 -0.00000000000E+00 -0.00000000000E+00 -0.74505805969E-08  0.93827000000E+00  0.93827000000E+00 0.  1.
     999902    2    1    2    0    0  0.20796740047E-01 -0.10250353144E-01  0.29339446546E-02  0.10205594594E+01  0.10202918347E+01 0.  0.
     999903    2    3    3    0    0 -0.93920135391E-01  0.78629444234E-01 -0.30658377432E-01  0.12804165903E+00  0.21240268562E-01 0.  0.
         14    1    1    2    0    0 -0.20796740047E-01  0.10250353144E-01 -0.29339446546E-02  0.23370540588E-01  0.00000000000E+00 0. -1.
     999901    1    3    3    0    0  0.11471687544E+00 -0.88879797378E-01  0.33592322086E-01  0.89251780038E+00  0.88000000000E+00 0.  1.
        -11    1    4    4    0    0 -0.57575236425E-01  0.59368827801E-01 -0.15151029696E-01  0.84079607430E-01  0.51100000000E-03 0. -1.
         11    1    4    4    0    0 -0.36344898966E-01  0.19260616433E-01 -0.15507347736E-01  0.43962051602E-01  0.51100000000E-03 0.  1.
</event>
<event>
 8    1  0.1066842E+005  0.1043930E+01  0.7957747E-01            NaN
         13   -1    0    0    0    0  0.00000000000E+00  0.00000000000E+00  0.74505805969E-08  0.10566000000E+00  0.10566000000E+00 0. -1.
     999900   -1    0    0    0    0 -0.00000000000E+00 -0.00000000000E+00 -0.74505805969E-08  0.93827000000E+00  0.93827000000E+00 0.  1.
     999902    2    1    2    0    0  0.93082709772E-02 -0.51203919160E-02 -0.20065008053E-01  0.10212261045E+01  0.10209736969E+01 0.  0.
     999903    2    3    3    0    0  0.49078487336E-01 -0.12131008880E+00  0.75266650972E-02  0.13226996600E+00  0.17716028196E-01 0.  0.
         14    1    1    2    0    0 -0.93082709772E-02  0.51203919160E-02  0.20065008053E-01  0.22703895483E-01  0.00000000000E+00 0. -1.
     999901    1    3    3    0    0 -0.39770216359E-01  0.11618969689E+00 -0.27591673150E-01  0.88895613851E+00  0.88000000000E+00 0.  1.
        -11    1    4    4    0    0  0.33948364530E-01 -0.62106490501E-01  0.73449435885E-02  0.71161203854E-01  0.51100000000E-03 0.  1.
         11    1    4    4    0    0  0.15130122806E-01 -0.59203598301E-01  0.18172150864E-03  0.61108762151E-01  0.51100000000E-03 0. -1.
</event>
<event>
 8    1  0.1066842E+005  0.1043930E+01  0.7957747E-01            NaN
         13   -1    0    0    0    0  0.00000000000E+00  0.00000000000E+00  0.74505805969E-08  0.10566000000E+00  0.10566000000E+00 0. -1.
     999900   -1    0    0    0    0 -0.00000000000E+00 -0.00000000000E+00 -0.74505805969E-08  0.93827000000E+00  0.93827000000E+00 0.  1.
     999902    2    1    2    0    0 -0.85198743865E-02 -0.14354263760E-01 -0.46965559481E-02  0.10265895621E+01  0.10264431004E+01 0.  0.
     999903    2    3    3    0    0 -0.36124444263E-01 -0.81834620994E-01  0.10195870684E+00  0.13715662145E+00  0.20358787788E-01 0.  0.
         14    1    1    2    0    0  0.85198743865E-02  0.14354263760E-01  0.46965559481E-02  0.17340437867E-01  0.00000000000E+00 0. -1.
     999901    1    3    3    0    0  0.27604569876E-01  0.67480357235E-01 -0.10665526279E+00  0.88943294068E+00  0.88000000000E+00 0.  1.
        -11    1    4    4    0    0 -0.20925541194E-01 -0.38099808900E-01  0.35323696403E-01  0.56013376626E-01  0.51100000000E-03 0. -1.
         11    1    4    4    0    0 -0.15198903069E-01 -0.43734812095E-01  0.66635010439E-01  0.81143244825E-01  0.51100000000E-03 0.  1.
</event>
<event>
 8    1  0.1066842E+005  0.1043930E+01  0.7957747E-01            NaN
         13   -1    0    0    0    0  0.00000000000E+00  0.00000000000E+00  0.74505805969E-08  0.10566000000E+00  0.10566000000E+00 0.  1.
     999900   -1    0    0    0    0 -0.00000000000E+00 -0.00000000000E+00 -0.74505805969E-08  0.93827000000E+00  0.93827000000E+00 0. -1.
     999902    2    1    2    0    0  0.60995880232E-02 -0.20564317658E-01  0.99546738248E-02  0.10202827662E+01  0.10200086918E+01 0.  0.
     999903    2    3    3    0    0  0.60611574979E-01 -0.34643869020E-01 -0.10848361524E+00  0.13056516000E+00  0.20114809205E-01 0.  0.
         14    1    1    2    0    0 -0.60995880232E-02  0.20564317658E-01 -0.99546738248E-02  0.23647233787E-01  0.00000000000E+00 0. -1.
     999901    1    3    3    0    0 -0.54511986956E-01  0.14079551362E-01  0.11843828906E+00  0.88971760621E+00  0.88000000000E+00 0.  1.
        -11    1    4    4    0    0  0.45503296106E-01 -0.28348829866E-01 -0.65982627390E-01  0.85018670594E-01  0.51100000000E-03 0. -1.
         11    1    4    4    0    0  0.15108278873E-01 -0.62950391543E-02 -0.42500987845E-01  0.45546489407E-01  0.51100000000E-03 0.  1.
</event>
<event>
 8    1  0.1066842E+005  0.1043930E+01  0.7957747E-01            NaN
         13   -1    0    0    0    0  0.00000000000E+00  0.00000000000E+00  0.74505805969E-08  0.10566000000E+00  0.10566000000E+00 0.  1.
     999900   -1    0    0    0    0 -0.00000000000E+00 -0.00000000000E+00 -0.74505805969E-08  0.93827000000E+00  0.93827000000E+00 0. -1.
     999902    2    1    2    0    0  0.19900752330E-01  0.72610438650E-02 -0.10214624173E-01  0.10204118953E+01  0.10201408407E+01 0.  0.
     999903    2    3    3    0    0  0.81721504299E-01  0.71399839424E-01  0.72613911853E-01  0.13204476577E+00  0.19664654510E-01 0.  0.
         14    1    1    2    0    0 -0.19900752330E-01 -0.72610438650E-02  0.10214624173E-01  0.23518104692E-01  0.00000000000E+00 0.  1.
     999901    1    3    3    0    0 -0.61820751969E-01 -0.64138795559E-01 -0.82828536026E-01  0.88836712954E+00  0.88000000000E+00 0. -1.
        -11    1    4    4    0    0  0.31118132242E-01  0.26475463320E-01  0.16237223185E-01  0.43968134484E-01  0.51100000000E-03 0. -1.
         11    1    4    4    0    0  0.50603372057E-01  0.44924376104E-01  0.56376688668E-01  0.88076631283E-01  0.51100000000E-03 0.  1.
</event>
<event>
 8    1  0.1066842E+005  0.1043930E+01  0.7957747E-01            NaN
         13   -1    0    0    0    0  0.00000000000E+00  0.00000000000E+00  0.74505805969E-08  0.10566000000E+00  0.10566000000E+00 0. -1.
     999900   -1    0    0    0    0 -0.00000000000E+00 -0.00000000000E+00 -0.74505805969E-08  0.93827000000E+00  0.93827000000E+00 0. -1.
     999902    2    1    2    0    0 -0.78015934106E-03 -0.16420360419E-01 -0.16379937833E-01  0.10207235516E+01  0.10204597148E+01 0.  0.
     999903    2    3    3    0    0 -0.53400036957E-01  0.35465698103E-01  0.10975421387E+00  0.12866366636E+00  0.19974280707E-01 0.  0.
         14    1    1    2    0    0  0.78015934106E-03  0.16420360419E-01  0.16379937833E-01  0.23206448421E-01  0.00000000000E+00 0. -1.
     999901    1    3    3    0    0  0.52619877616E-01 -0.51886058523E-01 -0.12613415171E+00  0.89205988522E+00  0.88000000000E+00 0. -1.
        -11    1    4    4    0    0 -0.42431675948E-01  0.29413615731E-01  0.70018557499E-01  0.86996939195E-01  0.51100000000E-03 0. -1.
         11    1    4    4    0    0 -0.10968361009E-01  0.60520823719E-02  0.39735656373E-01  0.41666727165E-01  0.51100000000E-03 0.  1.
</event>
<event>
 8    1  0.1066842E+005  0.1043930E+01  0.7957747E-01            NaN
         13   -1    0    0    0    0  0.00000000000E+00  0.00000000000E+00  0.74505805969E-08  0.10566000000E+00  0.10566000000E+00 0.  1.
     999900   -1    0    0    0    0 -0.00000000000E+00 -0.00000000000E+00 -0.74505805969E-08  0.93827000000E+00  0.93827000000E+00 0.  1.
     999902    2    1    2    0    0 -0.91410370408E-02 -0.20507872551E-01  0.69332592133E-02  0.10204310324E+01  0.10201604239E+01 0.  0.
     999903    2    3    3    0    0 -0.10523018236E+00 -0.74331183203E-01  0.30952201513E-01  0.13324053301E+00  0.14017303013E-01 0.  0.
         14    1    1    2    0    0  0.91410370408E-02  0.20507872551E-01 -0.69332592133E-02  0.23498967596E-01  0.00000000000E+00 0. -1.
     999901    1    3    3    0    0  0.96089145319E-01  0.53823310653E-01 -0.24018942299E-01  0.88719049939E+00  0.88000000000E+00 0.  1.
        -11    1    4    4    0    0 -0.21756835606E-01 -0.22529331924E-01  0.87046604843E-02  0.32510966268E-01  0.51100000000E-03 0.  1.
         11    1    4    4    0    0 -0.83473346753E-01 -0.51801851279E-01  0.22247541028E-01  0.10072956675E+00  0.51100000000E-03 0. -1.
</event>
<event>
 8    1  0.1066842E+005  0.1043930E+01  0.7957747E-01            NaN
         13   -1    0    0    0    0  0.00000000000E+00  0.00000000000E+00  0.74505805969E-08  0.10566000000E+00  0.10566000000E+00 0.  1.
     999900   -1    0    0    0    0 -0.00000000000E+00 -0.00000000000E+00 -0.74505805969E-08  0.93827000000E+00  0.93827000000E+00 0.  1.
     999902    2    1    2    0    0  0.11472261904E-02  0.57516256327E-02 -0.25657752287E-01  0.10176104716E+01  0.10172700498E+01 0.  0.
     999903    2    3    3    0    0  0.97832212148E-01  0.38875560088E-02  0.77139619027E-01  0.12636484838E+00  0.20767745617E-01 0.  0.
         14    1    1    2    0    0 -0.11472261904E-02 -0.57516256327E-02  0.25657752287E-01  0.26319528449E-01  0.00000000000E+00 0.  1.
     999901    1    3    3    0    0 -0.96684985958E-01  0.18640696239E-02 -0.10279737131E+00  0.89124562317E+00  0.88000000000E+00 0.  1.
        -11    1    4    4    0    0  0.21542819945E-01  0.81954976501E-02  0.12192798672E-01  0.26080351481E-01  0.51100000000E-03 0.  1.
         11    1    4    4    0    0  0.76289392203E-01 -0.43079416413E-02  0.64946820355E-01  0.10028449690E+00  0.51100000000E-03 0. -1.
</event>
<event>
 8    1  0.1066842E+005  0.1043930E+01  0.7957747E-01            NaN
         13   -1    0    0    0    0  0.00000000000E+00  0.00000000000E+00  0.74505805969E-08  0.10566000000E+00  0.10566000000E+00 0. -1.
     999900   -1    0    0    0    0 -0.00000000000E+00 -0.00000000000E+00 -0.74505805969E-08  0.93827000000E+00  0.93827000000E+00 0. -1.
     999902    2    1    2    0    0  0.77091483695E-02 -0.99852316500E-02  0.20385354397E-01  0.10199571301E+01  0.10196753643E+01 0.  0.
     999903    2    3    3    0    0 -0.38659348112E-01  0.11125072596E+00  0.51064716410E-01  0.12990689656E+00  0.19923034134E-01 0.  0.
         14    1    1    2    0    0 -0.77091483695E-02  0.99852316500E-02 -0.20385354397E-01  0.23972869949E-01  0.00000000000E+00 0.  1.
     999901    1    3    3    0    0  0.46368496481E-01 -0.12123595761E+00 -0.30679362013E-01  0.89005023349E+00  0.88000000000E+00 0. -1.
        -11    1    4    4    0    0 -0.33509798702E-01  0.10754359640E+00  0.50706542374E-01  0.12353115517E+00  0.51100000000E-03 0. -1.
         11    1    4    4    0    0 -0.51495494101E-02  0.37071295537E-02  0.35817403648E-03  0.63757413919E-02  0.51100000000E-03 0.  1.
</event>
<event>
 8    1  0.1066842E+005  0.1043930E+01  0.7957747E-01            NaN
         13   -1    0    0    0    0  0.00000000000E+00  0.00000000000E+00  0.74505805969E-08  0.10566000000E+00  0.10566000000E+00 0. -1.
     999900   -1    0    0    0    0 -0.00000000000E+00 -0.00000000000E+00 -0.74505805969E-08  0.93827000000E+00  0.93827000000E+00 0. -1.
     999902    2    1    2    0    0  0.17882214027E-01  0.15702751267E-01  0.27453332629E-02  0.10199740648E+01  0.10196927018E+01 0.  0.
     999903    2    3    3    0    0  0.80123537207E-01 -0.93900932859E-01 -0.36211322966E-01  0.13014005167E+00  0.19697886466E-01 0.  0.
         14    1    1    2    0    0 -0.17882214027E-01 -0.15702751267E-01 -0.27453332629E-02  0.23955935185E-01  0.00000000000E+00 0. -1.
     999901    1    3    3    0    0 -0.62241323180E-01  0.10960368413E+00  0.38956656228E-01  0.88983401315E+00  0.88000000000E+00 0. -1.
        -11    1    4    4    0    0  0.25609650410E-01 -0.44716680409E-01 -0.16616670976E-01  0.54146196323E-01  0.51100000000E-03 0.  1.
         11    1    4    4    0    0  0.54513886798E-01 -0.49184252450E-01 -0.19594651990E-01  0.75993855347E-01  0.51100000000E-03 0. -1.
</event>
<event>
 8    1  0.1066842E+005  0.1043930E+01  0.7957747E-01            NaN
         13   -1    0    0    0    0  0.00000000000E+00  0.00000000000E+00  0.74505805969E-08  0.10566000000E+00  0.10566000000E+00 0. -1.
     999900   -1    0    0    0    0 -0.00000000000E+00 -0.00000000000E+00 -0.74505805969E-08  0.93827000000E+00  0.93827000000E+00 0. -1.
     999902    2    1    2    0    0  0.11921205644E-01 -0.22537405618E-01  0.90977064741E-03  0.10184176995E+01  0.10180980960E+01 0.  0.
     999903    2    3    3    0    0  0.63822849263E-01 -0.11291728442E+00 -0.29989500971E-02  0.13225880784E+00  0.25685196927E-01 0.  0.
         14    1    1    2    0    0 -0.11921205644E-01  0.22537405618E-01 -0.90977064741E-03  0.25512300536E-01  0.00000000000E+00 0.  1.
     999901    1    3    3    0    0 -0.51901643618E-01  0.90379878803E-01  0.39087207445E-02  0.88615889162E+00  0.88000000000E+00 0.  1.
        -11    1    4    4    0    0  0.43449275447E-01 -0.93207034711E-01  0.44847171468E-02  0.10293573075E+00  0.51100000000E-03 0.  1.
         11    1    4    4    0    0  0.20373573816E-01 -0.19710249709E-01 -0.74836672439E-02  0.29323077090E-01  0.51100000000E-03 0. -1.
</event>
<event>
 8    1  0.1066842E+005  0.1043930E+01  0.7957747E-01            NaN
         13   -1    0    0    0    0  0.00000000000E+00  0.00000000000E+00  0.74505805969E-08  0.10566000000E+00  0.10566000000E+00 0.  1.
     999900   -1    0    0    0    0 -0.00000000000E+00 -0.00000000000E+00 -0.74505805969E-08  0.93827000000E+00  0.93827000000E+00 0. -1.
     999902    2    1    2    0    0 -0.19896746696E-01 -0.10523301524E-01  0.87250335976E-02  0.10197898547E+01  0.10195040957E+01 0.  0.
     999903    2    3    3    0    0  0.10657859917E+00  0.36339209780E-01 -0.55666543393E-01  0.12718782508E+00  0.19961032729E-01 0.  0.
         14    1    1    2    0    0  0.19896746696E-01  0.10523301524E-01 -0.87250335976E-02  0.24140145305E-01  0.00000000000E+00 0. -1.
     999901    1    3    3    0    0 -0.12647534587E+00 -0.46862511304E-01  0.64391576990E-01  0.89260202961E+00  0.88000000000E+00 0.  1.
        -11    1    4    4    0    0  0.86397375780E-01  0.21247000233E-01 -0.40364568371E-01  0.97701080145E-01  0.51100000000E-03 0. -1.
         11    1    4    4    0    0  0.20181223391E-01  0.15092209547E-01 -0.15301975022E-01  0.29486744940E-01  0.51100000000E-03 0.  1.
</event>
<event>
 8    1  0.1066842E+005  0.1043930E+01  0.7957747E-01            NaN
         13   -1    0    0    0    0  0.00000000000E+00  0.00000000000E+00  0.74505805969E-08  0.10566000000E+00  0.10566000000E+00 0.  1.
     999900   -1    0    0    0    0 -0.00000000000E+00 -0.00000000000E+00 -0.74505805969E-08  0.93827000000E+00  0.93827000000E+00 0. -1.
     999902    2    1    2    0    0  0.72565116971E-02 -0.21252879917E-01 -0.92297100261E-02  0.10196497732E+01  0.10193606479E+01 0.  0.
     999903    2    3    3    0    0  0.24277910223E-01  0.10907102471E+00  0.57760843336E-01  0.12737079083E+00  0.20027430643E-01 0.  0.
         14    1    1    2    0    0 -0.72565116971E-02  0.21252879917E-01  0.92297100261E-02  0.24280226810E-01  0.00000000000E+00 0.  1.
     999901    1    3    3    0    0 -0.17021398526E-01 -0.13032390462E+00 -0.66990553362E-01  0.89227898236E+00  0.88000000000E+00 0. -1.
        -11    1    4    4    0    0  0.20473723413E-01  0.91565296602E-01  0.56223544299E-01  0.10938338515E+00  0.51100000000E-03 0.  1.
         11    1    4    4    0    0  0.38041868099E-02  0.17505728104E-01  0.15372990376E-02  0.17987405680E-01  0.51100000000E-03 0. -1.
</event>
<event>
 8    1  0.1066842E+005  0.1043930E+01  0.7957747E-01            NaN
         13   -1    0    0    0    0  0.00000000000E+00  0.00000000000E+00  0.74505805969E-08  0.10566000000E+00  0.10566000000E+00 0.  1.
     999900   -1    0    0    0    0 -0.00000000000E+00 -0.00000000000E+00 -0.74505805969E-08  0.93827000000E+00  0.93827000000E+00 0. -1.
     999902    2    1    2    0    0  0.18661960548E-01 -0.14918727140E-01 -0.24695414303E-02  0.10199105115E+01  0.10196276358E+01 0.  0.
     999903    2    3    3    0    0 -0.44439968471E-01  0.63148898842E-01 -0.10188946848E+00  0.12864134369E+00  0.14298157048E-01 0.  0.
         14    1    1    2    0    0 -0.18661960548E-01  0.14918727140E-01  0.24695414303E-02  0.24019488459E-01  0.00000000000E+00 0. -1.
     999901    1    3    3    0    0  0.63101929019E-01 -0.78067625982E-01  0.99419927053E-01  0.89126916785E+00  0.88000000000E+00 0. -1.
        -11    1    4    4    0    0 -0.15173683152E-01  0.22444249954E-01 -0.25112717013E-01  0.36944481227E-01  0.51100000000E-03 0. -1.
         11    1    4    4    0    0 -0.29266285319E-01  0.40704648888E-01 -0.76776751471E-01  0.91696862459E-01  0.51100000000E-03 0.  1.
</event>
<event>
 8    1  0.1066842E+005  0.1043930E+01  0.7957747E-01            NaN
         13   -1    0    0    0    0  0.00000000000E+00  0.00000000000E+00  0.74505805969E-08  0.10566000000E+00  0.10566000000E+00 0. -1.
     999900   -1    0    0    0    0 -0.00000000000E+00 -0.00000000000E+00 -0.74505805969E-08  0.93827000000E+00  0.93827000000E+00 0. -1.
     999902    2    1    2    0    0  0.93156006830E-03  0.64403367751E-02  0.23526847985E-01  0.10195197907E+01  0.10192275238E+01 0.  0.
     999903    2    3    3    0    0 -0.14234872755E-01  0.11770873288E+00  0.53943334124E-01  0.13186228959E+00  0.20489087821E-01 0.  0.
         14    1    1    2    0    0 -0.93156006830E-03 -0.64403367751E-02 -0.23526847985E-01  0.24410209299E-01  0.00000000000E+00 0.  1.
     999901    1    3    3    0    0  0.15166432824E-01 -0.11126839611E+00 -0.30416486139E-01  0.88765750111E+00  0.88000000000E+00 0.  1.
        -11    1    4    4    0    0 -0.95826839613E-02  0.30076080585E-01  0.21967608559E-01  0.38460829452E-01  0.51100000000E-03 0.  1.
         11    1    4    4    0    0 -0.46521887939E-02  0.87632652295E-01  0.31975725565E-01  0.93401460134E-01  0.51100000000E-03 0. -1.
</event>
<event>
 8    1  0.1066842E+005  0.1043930E+01  0.7957747E-01            NaN
         13   -1    0    0    0    0  0.00000000000E+00  0.00000000000E+00  0.74505805969E-08  0.10566000000E+00  0.10566000000E+00 0. -1.
     999900   -1    0    0    0    0 -0.00000000000E+00 -0.00000000000E+00 -0.74505805969E-08  0.93827000000E+00  0.93827000000E+00 0.  1.
     999902    2    1    2    0    0 -0.14740913271E-01  0.17743605302E-01  0.55871023540E-02  0.10201950939E+01  0.10199189595E+01 0.  0.
     999903    2    3    3    0    0  0.71594760118E-01 -0.44237862551E-01 -0.94561285964E-01  0.12816076133E+00  0.20013639928E-01 0.  0.
         14    1    1    2    0    0  0.14740913271E-01 -0.17743605302E-01 -0.55871023540E-02  0.23734906064E-01  0.00000000000E+00 0. -1.
     999901    1    3    3    0    0 -0.86335673389E-01  0.61981467853E-01  0.10014838832E+00  0.89203433260E+00  0.88000000000E+00 0. -1.
        -11    1    4    4    0    0  0.45699310094E-01 -0.31994017743E-01 -0.48529363011E-01  0.73941898201E-01  0.51100000000E-03 0.  1.
         11    1    4    4    0    0  0.25895450024E-01 -0.12243844808E-01 -0.46031922954E-01  0.54218863133E-01  0.51100000000E-03 0. -1.
</event>
<event>
 8    1  0.1066842E+005  0.1043930E+01  0.7957747E-01            NaN
         13   -1    0    0    0    0  0.00000000000E+00  0.00000000000E+00  0.74505805969E-08  0.10566000000E+00  0.10566000000E+00 0.  1.
     999900   -1    0    0    0    0 -0.00000000000E+00 -0.00000000000E+00 -0.74505805969E-08  0.93827000000E+00  0.93827000000E+00 0. -1.
     999902    2    1    2    0    0 -0.51521534133E-02 -0.89332261079E-02 -0.21521407046E-01  0.10200654201E+01  0.10197862242E+01 0.  0.
     999903    2    3    3    0    0  0.79058721371E-01 -0.93470071345E-01 -0.44367429243E-01  0.13171870265E+00  0.19859813412E-01 0.  0.
         14    1    1    2    0    0  0.51521534133E-02  0.89332261079E-02  0.21521407046E-01  0.23864579919E-01  0.00000000000E+00 0.  1.
     999901    1    3    3    0    0 -0.84210874784E-01  0.84536845238E-01  0.22846022197E-01  0.88834671743E+00  0.88000000000E+00 0.  1.
        -11    1    4    4    0    0  0.52529294729E-01 -0.47150338840E-01 -0.23381287949E-01  0.74360117029E-01  0.51100000000E-03 0.  1.
         11    1    4    4    0    0  0.26529426642E-01 -0.46319732505E-01 -0.20986141294E-01  0.57358585624E-01  0.51100000000E-03 0. -1.
</event>
<event>
 8    1  0.1066842E+005  0.1043930E+01  0.7957747E-01            NaN
         13   -1    0    0    0    0  0.00000000000E+00  0.00000000000E+00  0.74505805969E-08  0.10566000000E+00  0.10566000000E+00 0. -1.
     999900   -1    0    0    0    0 -0.00000000000E+00 -0.00000000000E+00 -0.74505805969E-08  0.93827000000E+00  0.93827000000E+00 0. -1.
     999902    2    1    2    0    0  0.14333247650E-01 -0.10917660268E-01 -0.15009801510E-01  0.10204793831E+01  0.10202098999E+01 0.  0.
     999903    2    3    3    0    0  0.14482616387E-01 -0.11274038207E+00 -0.66360099578E-01  0.13312108896E+00  0.19935435347E-01 0.  0.
         14    1    1    2    0    0 -0.14333247650E-01  0.10917660268E-01  0.15009801510E-01  0.23450616949E-01  0.00000000000E+00 0. -1.
     999901    1    3    3    0    0 -0.14936873706E-03  0.10182272180E+00  0.51350298068E-01  0.88735829409E+00  0.88000000000E+00 0.  1.
        -11    1    4    4    0    0  0.18455739538E-01 -0.77531665309E-01 -0.41704387912E-01  0.89951601095E-01  0.51100000000E-03 0. -1.
         11    1    4    4    0    0 -0.39731231505E-02 -0.35208716760E-01 -0.24655711666E-01  0.43169487861E-01  0.51100000000E-03 0.  1.
</event>
<event>
 8    1  0.1066842E+005  0.1043930E+01  0.7957747E-01            NaN
         13   -1    0    0    0    0  0.00000000000E+00  0.00000000000E+00  0.74505805969E-08  0.10566000000E+00  0.10566000000E+00 0. -1.
     999900   -1    0    0    0    0 -0.00000000000E+00 -0.00000000000E+00 -0.74505805969E-08  0.93827000000E+00  0.93827000000E+00 0. -1.
     999902    2    1    2    0    0 -0.17388517392E-01 -0.16970481115E-01  0.24557390912E-02  0.10195089349E+01  0.10192164048E+01 0.  0.
     999903    2    3    3    0    0 -0.50994548074E-01  0.67908045101E-01  0.95141494882E-01  0.12994478384E+00  0.24935843219E-01 0.  0.
         14    1    1    2    0    0  0.17388517392E-01  0.16970481115E-01 -0.24557390912E-02  0.24421065104E-01  0.00000000000E+00 0.  1.
     999901    1    3    3    0    0  0.33606030682E-01 -0.84878526216E-01 -0.92685755791E-01  0.88956415105E+00  0.88000000000E+00 0. -1.
        -11    1    4    4    0    0 -0.35524415697E-01  0.56942232615E-01  0.60073038601E-01  0.90074597160E-01  0.51100000000E-03 0.  1.
         11    1    4    4    0    0 -0.15470132376E-01  0.10965812486E-01  0.35068456281E-01  0.39870186684E-01  0.51100000000E-03 0. -1.
</event>
<event>
 8    1  0.1066842E+005  0.1043930E+01  0.7957747E-01            NaN
         13   -1    0    0    0    0  0.00000000000E+00  0.00000000000E+00  0.74505805969E-08  0.10566000000E+00  0.10566000000E+00 0.  1.
     999900   -1    0    0    0    0 -0.00000000000E+00 -0.00000000000E+00 -0.74505805969E-08  0.93827000000E+00  0.93827000000E+00 0.  1.
     999902    2    1    2    0    0  0.18218854455E-01 -0.12807307290E-01 -0.74427970017E-02  0.10204491779E+01  0.10201789920E+01 0.  0.
     999903    2    3    3    0    0  0.12716674585E+00 -0.26957857654E-03 -0.34210128719E-01  0.13323819529E+00  0.20264003906E-01 0.  0.
         14    1    1    2    0    0 -0.18218854455E-01  0.12807307290E-01  0.74427970017E-02  0.23480822066E-01  0.00000000000E+00 0. -1.
     999901    1    3    3    0    0 -0.10894789139E+00 -0.12537728713E-01  0.26767331717E-01  0.88721098265E+00  0.88000000000E+00 0. -1.
        -11    1    4    4    0    0  0.26554886558E-01  0.10373989590E-02  0.10947791025E-02  0.26602591208E-01  0.51100000000E-03 0. -1.
         11    1    4    4    0    0  0.10061185929E+00 -0.13069775355E-02 -0.35304907821E-01  0.10663560408E+00  0.51100000000E-03 0.  1.
</event>
<event>
 8    1  0.1066842E+005  0.1043930E+01  0.7957747E-01            NaN
         13   -1    0    0    0    0  0.00000000000E+00  0.00000000000E+00  0.74505805969E-08  0.10566000000E+00  0.10566000000E+00 0.  1.
     999900   -1    0    0    0    0 -0.00000000000E+00 -0.00000000000E+00 -0.74505805969E-08  0.93827000000E+00  0.93827000000E+00 0.  1.
     999902    2    1    2    0    0  0.18760771664E-01  0.53933289192E-02 -0.11092347611E-01  0.10214779461E+01  0.10212311685E+01 0.  0.
     999903    2    3    3    0    0  0.26826942841E-01 -0.11605149556E+00  0.51385346138E-01  0.13090657289E+00  0.17562532389E-01 0.  0.
         14    1    1    2    0    0 -0.18760771664E-01 -0.53933289192E-02  0.11092347611E-01  0.22452053933E-01  0.00000000000E+00 0.  1.
     999901    1    3    3    0    0 -0.80661711768E-02  0.12144482448E+00 -0.62477693749E-01  0.89057137318E+00  0.88000000000E+00 0.  1.
        -11    1    4    4    0    0  0.27496294737E-01 -0.85058148080E-01  0.38426496696E-01  0.97302577296E-01  0.51100000000E-03 0. -1.
         11    1    4    4    0    0 -0.66935189599E-03 -0.30993347479E-01  0.12958849442E-01  0.33603995593E-01  0.51100000000E-03 0.  1.
</event>
<event>
 8    1  0.1066842E+005  0.1043930E+01  0.7957747E-01            NaN
         13   -1    0    0    0    0  0.00000000000E+00  0.00000000000E+00  0.74505805969E-08  0.10566000000E+00  0.10566000000E+00 0.  1.
     999900   -1    0    0    0    0 -0.00000000000E+00 -0.00000000000E+00 -0.74505805969E-08  0.93827000000E+00  0.93827000000E+00 0.  1.
     999902    2    1    2    0    0  0.19867020691E-01 -0.12320901367E-01 -0.40855033707E-02  0.10201982816E+01  0.10199222222E+01 0.  0.
     999903    2    3    3    0    0 -0.28803271964E-01 -0.68905184750E-01  0.10527867053E+00  0.13029317369E+00  0.17752737232E-01 0.  0.
         14    1    1    2    0    0 -0.19867020691E-01  0.12320901367E-01  0.40855033707E-02  0.23731718425E-01  0.00000000000E+00 0. -1.
     999901    1    3    3    0    0  0.48670292654E-01  0.56584283383E-01 -0.10936417390E+00  0.88990510789E+00  0.88000000000E+00 0.  1.
        -11    1    4    4    0    0 -0.15042565850E-01 -0.16240311551E-01  0.34663051899E-01  0.41131676292E-01  0.51100000000E-03 0.  1.
         11    1    4    4    0    0 -0.13760706114E-01 -0.52664873200E-01  0.70615618632E-01  0.89161497394E-01  0.51100000000E-03 0. -1.
</event>
<event>
 8    1  0.1066842E+005  0.1043930E+01  0.7957747E-01            NaN
         13   -1    0    0    0    0  0.00000000000E+00  0.00000000000E+00  0.74505805969E-08  0.10566000000E+00  0.10566000000E+00 0.  1.
     999900   -1    0    0    0    0 -0.00000000000E+00 -0.00000000000E+00 -0.74505805969E-08  0.93827000000E+00  0.93827000000E+00 0. -1.
     999902    2    1    2    0    0 -0.19918462602E-01 -0.80991606491E-02  0.99550344790E-02  0.10202351848E+01  0.10199599934E+01 0.  0.
     999903    2    3    3    0    0 -0.56481103157E-01  0.93266761851E-01  0.71266523788E-01  0.13154458868E+00  0.18337325783E-01 0.  0.
         14    1    1    2    0    0  0.19918462602E-01  0.80991606491E-02 -0.99550344790E-02  0.23694815195E-01  0.00000000000E+00 0. -1.
     999901    1    3    3    0    0  0.36562640555E-01 -0.10136592250E+00 -0.61311489309E-01  0.88869059613E+00  0.88000000000E+00 0. -1.
        -11    1    4    4    0    0 -0.50991355945E-02  0.21078762611E-01  0.17747149465E-01  0.28027448192E-01  0.51100000000E-03 0. -1.
         11    1    4    4    0    0 -0.51381967562E-01  0.72187999241E-01  0.53519374322E-01  0.10351714048E+00  0.51100000000E-03 0.  1.
</event>
<event>
 8    1  0.1066842E+005  0.1043930E+01  0.7957747E-01            NaN
         13   -1    0    0    0    0  0.00000000000E+00  0.00000000000E+00  0.74505805969E-08  0.10566000000E+00  0.10566000000E+00 0. -1.
     999900   -1    0    0    0    0 -0.00000000000E+00 -0.00000000000E+00 -0.74505805969E-08  0.93827000000E+00  0.93827000000E+00 0.  1.
     999902    2    1    2    0    0 -0.28770602120E-02 -0.30581848998E-02 -0.23083749188E-01  0.10204674885E+01  0.10201977287E+01 0.  0.
     999903    2    3    3    0    0  0.95435978525E-01 -0.39425203252E-01 -0.80408127497E-01  0.13239423814E+00  0.20009864516E-01 0.  0.
         14    1    1    2    0    0  0.28770602120E-02  0.30581848998E-02  0.23083749188E-01  0.23462511522E-01  0.00000000000E+00 0. -1.
     999901    1    3    3    0    0 -0.98313038737E-01  0.36367018352E-01  0.57324378309E-01  0.88807325033E+00  0.88000000000E+00 0. -1.
        -11    1    4    4    0    0  0.38031249644E-01 -0.11096159618E-01 -0.42005055310E-01  0.57742415089E-01  0.51100000000E-03 0.  1.
         11    1    4    4    0    0  0.57404728881E-01 -0.28329043634E-01 -0.38403072186E-01  0.74651823055E-01  0.51100000000E-03 0. -1.
</event>
<event>
 8    1  0.1066842E+005  0.1043930E+01  0.7957747E-01            NaN
         13   -1    0    0    0    0  0.00000000000E+00  0.00000000000E+00  0.74505805969E-08  0.10566000000E+00  0.10566000000E+00 0.  1.
     999900   -1    0    0    0    0 -0.00000000000E+00 -0.00000000000E+00 -0.74505805969E-08  0.93827000000E+00  0.93827000000E+00 0.  1.
     999902    2    1    2    0    0  0.11452229352E-02 -0.89169574232E-02  0.22008250320E-01  0.10201563434E+01  0.10198792959E+01 0.  0.
     999903    2    3    3    0    0 -0.10492241763E+00 -0.74617244710E-01 -0.11698233074E-01  0.13071663262E+00  0.19327246444E-01 0.  0.
         14    1    1    2    0    0 -0.11452229352E-02  0.89169574232E-02 -0.22008250320E-01  0.23773656585E-01  0.00000000000E+00 0. -1.
     999901    1    3    3    0    0  0.10606764057E+00  0.65700287287E-01  0.33706483395E-01  0.88943971080E+00  0.88000000000E+00 0. -1.
        -11    1    4    4    0    0 -0.48674340181E-01 -0.46399516379E-01 -0.69402847438E-02  0.67605733378E-01  0.51100000000E-03 0.  1.
         11    1    4    4    0    0 -0.56248077452E-01 -0.28217728331E-01 -0.47579483307E-02  0.63110899237E-01  0.51100000000E-03 0. -1.
</event>
<event>
 8    1  0.1066842E+005  0.1043930E+01  0.7957747E-01            NaN
         13   -1    0    0    0    0  0.00000000000E+00  0.00000000000E+00  0.74505805969E-08  0.10566000000E+00  0.10566000000E+00 0. -1.
     999900   -1    0    0    0    0 -0.00000000000E+00 -0.00000000000E+00 -0.74505805969E-08  0.93827000000E+00  0.93827000000E+00 0. -1.
     999902    2    1    2    0    0 -0.17249725578E-01 -0.16815070170E-01  0.35771481350E-02  0.10195764457E+01  0.10192855503E+01 0.  0.
     999903    2    3    3    0    0  0.87929542208E-01  0.31944520518E-01  0.85154316433E-01  0.12823194978E+00  0.20979002669E-01 0.  0.
         14    1    1    2    0    0  0.17249725578E-01  0.16815070170E-01 -0.35771481350E-02  0.24353554281E-01  0.00000000000E+00 0.  1.
     999901    1    3    3    0    0 -0.10517926779E+00 -0.48759590687E-01 -0.81577168298E-01  0.89134449594E+00  0.88000000000E+00 0. -1.
        -11    1    4    4    0    0  0.40950518187E-01  0.41816574718E-02  0.40031945506E-01  0.57421676926E-01  0.51100000000E-03 0.  1.
         11    1    4    4    0    0  0.46979024021E-01  0.27762863046E-01  0.45122370927E-01  0.70810272853E-01  0.51100000000E-03 0. -1.
</event>
<event>
 8    1  0.1066842E+005  0.1043930E+01  0.7957747E-01            NaN
         13   -1    0    0    0    0  0.00000000000E+00  0.00000000000E+00  0.74505805969E-08  0.10566000000E+00  0.10566000000E+00 0. -1.
     999900   -1    0    0    0    0 -0.00000000000E+00 -0.00000000000E+00 -0.74505805969E-08  0.93827000000E+00  0.93827000000E+00 0. -1.
     999902    2    1    2    0    0 -0.16485646544E-01 -0.15660050517E-01 -0.71718406797E-02  0.10200878310E+01  0.10198091654E+01 0.  0.
     999903    2    3    3    0    0  0.43071525186E-01 -0.89892537585E-01 -0.83850646130E-01  0.13164134524E+00  0.19044377787E-01 0.  0.
         14    1    1    2    0    0  0.16485646544E-01  0.15660050517E-01  0.71718406797E-02  0.23842169006E-01  0.00000000000E+00 0.  1.
     999901    1    3    3    0    0 -0.59557171730E-01  0.74232487069E-01  0.76678805450E-01  0.88844648575E+00  0.88000000000E+00 0.  1.
        -11    1    4    4    0    0  0.23143810337E-01 -0.48611734510E-01 -0.32877422802E-01  0.63086628853E-01  0.51100000000E-03 0. -1.
         11    1    4    4    0    0  0.19927714849E-01 -0.41280803076E-01 -0.50973223328E-01  0.68554716389E-01  0.51100000000E-03 0.  1.
</event>
<event>
 8    1  0.1066842E+005  0.1043930E+01  0.7957747E-01            NaN
         13   -1    0    0    0    0  0.00000000000E+00  0.00000000000E+00  0.74505805969E-08  0.10566000000E+00  0.10566000000E+00 0.  1.
     999900   -1    0    0    0    0 -0.00000000000E+00 -0.00000000000E+00 -0.74505805969E-08  0.93827000000E+00  0.93827000000E+00 0. -1.
     999902    2    1    2    0    0  0.16023575593E-01  0.15701480633E-01 -0.53948293934E-02  0.10208562995E+01  0.10205955069E+01 0.  0.
     999903    2    3    3    0    0 -0.30957754810E-01 -0.34435813461E-01  0.11920339465E+00  0.12942727202E+00  0.19943961853E-01 0.  0.
         14    1    1    2    0    0 -0.16023575593E-01 -0.15701480633E-01  0.53948293934E-02  0.23073700463E-01  0.00000000000E+00 0. -1.
     999901    1    3    3    0    0  0.46981330403E-01  0.50137294094E-01 -0.12459822405E+00  0.89142902752E+00  0.88000000000E+00 0. -1.
        -11    1    4    4    0    0 -0.17426496329E-01 -0.53976198439E-02  0.47762574124E-01  0.51130633501E-01  0.51100000000E-03 0. -1.
         11    1    4    4    0    0 -0.13531258481E-01 -0.29038193617E-01  0.71440820528E-01  0.78296638519E-01  0.51100000000E-03 0.  1.
</event>
<event>
 8    1  0.1066842E+005  0.1043930E+01  0.7957747E-01            NaN
         13   -1    0    0    0    0  0.00000000000E+00  0.00000000000E+00  0.74505805969E-08  0.10566000000E+00  0.10566000000E+00 0. -1.
     999900   -1    0    0    0    0 -0.00000000000E+00 -0.00000000000E+00 -0.74505805969E-08  0.93827000000E+00  0.93827000000E+00 0. -1.
     999902    2    1    2    0    0 -0.16714937286E-02 -0.18398348914E-01  0.24790862238E-01  0.10130126912E+01  0.10125407807E+01 0.  0.
     999903    2    3    3    0    0 -0.78130243964E-02  0.83791859764E-01  0.89589652340E-01  0.12471125566E+00  0.21082513361E-01 0.  0.
         14    1    1    2    0    0  0.16714937286E-02  0.18398348914E-01 -0.24790862238E-01  0.30917308818E-01  0.00000000000E+00 0.  1.
     999901    1    3    3    0    0  0.61415306679E-02 -0.10219020868E+00 -0.64798790102E-01  0.88830143552E+00  0.88000000000E+00 0. -1.
        -11    1    4    4    0    0 -0.11448571186E-01  0.81343389142E-01  0.86702377253E-01  0.11943776656E+00  0.51100000000E-03 0. -1.
         11    1    4    4    0    0  0.36355467899E-02  0.24484706212E-02  0.28872750861E-02  0.52734890980E-02  0.51100000000E-03 0.  1.
</event>
<event>
 8    1  0.1066842E+005  0.1043930E+01  0.7957747E-01            NaN
         13   -1    0    0    0    0  0.00000000000E+00  0.00000000000E+00  0.74505805969E-08  0.10566000000E+00  0.10566000000E+00 0.  1.
     999900   -1    0    0    0    0 -0.00000000000E+00 -0.00000000000E+00 -0.74505805969E-08  0.93827000000E+00  0.93827000000E+00 0. -1.
     999902    2    1    2    0    0  0.14588721698E-01 -0.15987739491E-01 -0.84971949648E-02  0.10206783132E+01  0.10204134349E+01 0.  0.
     999903    2    3    3    0    0  0.12857346023E+00 -0.26090166067E-01 -0.12710910214E-01  0.13325939580E+00  0.19612952076E-01 0.  0.
         14    1    1    2    0    0 -0.14588721698E-01  0.15987739491E-01  0.84971949648E-02  0.23251686758E-01  0.00000000000E+00 0. -1.
     999901    1    3    3    0    0 -0.11398473853E+00  0.10102426575E-01  0.42137152489E-02  0.88741891744E+00  0.88000000000E+00 0.  1.
        -11    1    4    4    0    0  0.42612829033E-01 -0.12930362997E-01 -0.12648634158E-01  0.46295750911E-01  0.51100000000E-03 0. -1.
         11    1    4    4    0    0  0.85960631197E-01 -0.13159803070E-01 -0.62276055578E-04  0.86963644887E-01  0.51100000000E-03 0.  1.
</event>
<event>
 8    1  0.1066842E+005  0.1043930E+01  0.7957747E-01            NaN
         13   -1    0    0    0    0  0.00000000000E+00  0.00000000000E+00  0.74505805969E-08  0.10566000000E+00  0.10566000000E+00 0.  1.
     999900   -1    0    0    0    0 -0.00000000000E+00 -0.00000000000E+00 -0.74505805969E-08  0.93827000000E+00  0.93827000000E+00 0. -1.
     999902    2    1    2    0    0 -0.29770513966E-01 -0.52041315118E-03  0.23836593117E-01  0.10057889787E+01  0.10050655363E+01 0.  0.
     999903    2    3    3    0    0  0.10668118875E+00  0.19281228606E-01  0.33502301584E-01  0.11500022818E+00  0.18708459594E-01 0.  0.
         14    1    1    2    0    0  0.29770513966E-01  0.52041315118E-03 -0.23836593117E-01  0.38141021264E-01  0.00000000000E+00 0. -1.
     999901    1    3    3    0    0 -0.13645170272E+00 -0.19801641757E-01 -0.96657084666E-02  0.89078875055E+00  0.88000000000E+00 0.  1.
        -11    1    4    4    0    0  0.82581195440E-01  0.22613388233E-01  0.24575632069E-01  0.89079975192E-01  0.51100000000E-03 0.  1.
         11    1    4    4    0    0  0.24099993313E-01 -0.33321596269E-02  0.89266695147E-02  0.25920252991E-01  0.51100000000E-03 0. -1.
</event>
<event>
 8    1  0.1066842E+005  0.1043930E+01  0.7957747E-01            NaN
         13   -1    0    0    0    0  0.00000000000E+00  0.00000000000E+00  0.74505805969E-08  0.10566000000E+00  0.10566000000E+00 0. -1.
     999900   -1    0    0    0    0 -0.00000000000E+00 -0.00000000000E+00 -0.74505805969E-08  0.93827000000E+00  0.93827000000E+00 0.  1.
     999902    2    1    2    0    0 -0.16721558397E-01  0.44233810080E-02 -0.16027967624E-01  0.10203488092E+01  0.10200762814E+01 0.  0.
     999903    2    3    3    0    0 -0.27058597808E-01 -0.96510996150E-01 -0.83196145579E-01  0.13197604563E+00  0.21202308535E-01 0.  0.
         14    1    1    2    0    0  0.16721558397E-01 -0.44233810080E-02  0.16027967624E-01  0.23581190829E-01  0.00000000000E+00 0. -1.
     999901    1    3    3    0    0  0.10337039411E-01  0.10093437716E+00  0.67168177955E-01  0.88837276354E+00  0.88000000000E+00 0. -1.
        -11    1    4    4    0    0 -0.49712369251E-02 -0.29388232569E-01 -0.37154244002E-01  0.47634865156E-01  0.51100000000E-03 0.  1.
         11    1    4    4    0    0 -0.22087360883E-01 -0.67122763581E-01 -0.46041901576E-01  0.84341180471E-01  0.51100000000E-03 0. -1.
</event>
<event>
 7    1  0.1066842E+005  0.1043930E+01  0.7957747E-01            NaN
         13   -1    0    0    0    0  0.00000000000E+00  0.00000000000E+00  0.74505805969E-08  0.10566000000E+00  0.10566000000E+00 0.  1.
     999900   -1    0    0    0    0 -0.00000000000E+00 -0.00000000000E+00 -0.74505805969E-08  0.93827000000E+00  0.93827000000E+00 0. -1.
     999902    2    1    2    0    0  0.56401302801E-02  0.14104245128E-01  0.58058294719E-02  0.10276681288E+01  0.10275394564E+01 0.  0.
         14    1    1    2    0    0 -0.56401302801E-02 -0.14104245128E-01 -0.58058294719E-02  0.16261871235E-01  0.00000000000E+00 0. -1.
     999901    1    3    3    0    0  0.15474326410E-01 -0.37947609431E-01  0.11650129713E+00  0.88862367067E+00  0.88000000000E+00 0.  1.
        -11    1    3    3    0    0 -0.35218075661E-01  0.14738953105E-01 -0.60523757665E-01  0.71560715164E-01  0.51100000000E-03 0.  1.
         11    1    3    3    0    0  0.25383879532E-01  0.37312901454E-01 -0.50171709997E-01  0.67483742931E-01  0.51100000000E-03 0. -1.
</event>
<event>
 8    1  0.1066842E+005  0.1043930E+01  0.7957747E-01            NaN
         13   -1    0    0    0    0  0.00000000000E+00  0.00000000000E+00  0.74505805969E-08  0.10566000000E+00  0.10566000000E+00 0.  1.
     999900   -1    0    0    0    0 -0.00000000000E+00 -0.00000000000E+00 -0.74505805969E-08  0.93827000000E+00  0.93827000000E+00 0.  1.
     999902    2    1    2    0    0 -0.14523735092E-01  0.15984823117E-01 -0.61347112002E-02  0.10214780929E+01  0.10212313186E+01 0.  0.
     999903    2    3    3    0    0  0.87496305770E-01  0.94057761008E-01 -0.22990126983E-01  0.13199083756E+00  0.19762827001E-01 0.  0.
         14    1    1    2    0    0  0.14523735092E-01 -0.15984823117E-01  0.61347112002E-02  0.22451907105E-01  0.00000000000E+00 0. -1.
     999901    1    3    3    0    0 -0.10202004086E+00 -0.78072937891E-01  0.16855415783E-01  0.88948725534E+00  0.88000000000E+00 0.  1.
        -11    1    4    4    0    0  0.22066749332E-01  0.19452901009E-01  0.25267996297E-02  0.29529690502E-01  0.51100000000E-03 0. -1.
         11    1    4    4    0    0  0.65429556437E-01  0.74604859999E-01 -0.25516926613E-01  0.10246114706E+00  0.51100000000E-03 0.  1.
</event>
<event>
 8    1  0.1066842E+005  0.1043930E+01  0.7957747E-01            NaN
         13   -1    0    0    0    0  0.00000000000E+00  0.00000000000E+00  0.74505805969E-08  0.10566000000E+00  0.10566000000E+00 0. -1.
     999900   -1    0    0    0    0 -0.00000000000E+00 -0.00000000000E+00 -0.74505805969E-08  0.93827000000E+00  0.93827000000E+00 0.  1.
     999902    2    1    2    0    0 -0.16333462290E-01 -0.99769306345E-02 -0.13505136142E-01  0.10205054437E+01  0.10202365661E+01 0.  0.
     999903    2    3    3    0    0  0.74832699170E-01  0.99313774559E-01  0.28163012900E-01  0.12809748662E+00  0.12355245825E-01 0.  0.
         14    1    1    2    0    0  0.16333462290E-01  0.99769306345E-02  0.13505136142E-01  0.23424556292E-01  0.00000000000E+00 0.  1.
     999901    1    3    3    0    0 -0.91166161460E-01 -0.10929070519E+00 -0.41668149042E-01  0.89240795709E+00  0.88000000000E+00 0. -1.
        -11    1    4    4    0    0  0.18926537787E-01  0.24938072249E-01  0.16790270236E-02  0.31356044598E-01  0.51100000000E-03 0. -1.
         11    1    4    4    0    0  0.55906161383E-01  0.74375702310E-01  0.26483985876E-01  0.96741442017E-01  0.51100000000E-03 0.  1.
</event>
<event>
 8    1  0.1066842E+005  0.1043930E+01  0.7957747E-01            NaN
         13   -1    0    0    0    0  0.00000000000E+00  0.00000000000E+00  0.74505805969E-08  0.10566000000E+00  0.10566000000E+00 0.  1.
     999900   -1    0    0    0    0 -0.00000000000E+00 -0.00000000000E+00 -0.74505805969E-08  0.93827000000E+00  0.93827000000E+00 0. -1.
     999902    2    1    2    0    0  0.21097691236E-01 -0.94767500941E-02  0.92876778173E-04  0.10208014464E+01  0.10205393980E+01 0.  0.
     999903    2    3    3    0    0 -0.11564331674E+00  0.34081128001E-01 -0.37896109314E-01  0.12836738432E+00  0.22520441023E-01 0.  0.
         14    1    1    2    0    0 -0.21097691236E-01  0.94767500941E-02 -0.92876778173E-04  0.23128553650E-01  0.00000000000E+00 0.  1.
     999901    1    3    3    0    0  0.13674100798E+00 -0.43557878095E-01  0.37988986093E-01  0.89243406203E+00  0.88000000000E+00 0.  1.
        -11    1    4    4    0    0 -0.14912617960E-01 -0.73200171811E-03 -0.10694746313E-01  0.18372825602E-01  0.51100000000E-03 0.  1.
         11    1    4    4    0    0 -0.10073069878E+00  0.34813129719E-01 -0.27201363002E-01  0.10999455872E+00  0.51100000000E-03 0. -1.
</event>
<event>
 8    1  0.1066842E+005  0.1043930E+01  0.7957747E-01            NaN
         13   -1    0    0    0    0  0.00000000000E+00  0.00000000000E+00  0.74505805969E-08  0.10566000000E+00  0.10566000000E+00 0. -1.
     999900   -1    0    0    0    0 -0.00000000000E+00 -0.00000000000E+00 -0.74505805969E-08  0.93827000000E+00  0.93827000000E+00 0. -1.
     999902    2    1    2    0    0  0.31916714477E-02  0.25931993322E-01  0.56395412847E-03  0.10177962462E+01  0.10174606752E+01 0.  0.
     999903    2    3    3    0    0 -0.56397637602E-01 -0.82692602263E-01  0.72372858827E-01  0.12622083865E+00  0.25982867805E-01 0.  0.
         14    1    1    2    0    0 -0.31916714477E-02 -0.25931993322E-01 -0.56395412847E-03  0.26133753817E-01  0.00000000000E+00 0. -1.
     999901    1    3    3    0    0  0.59589309049E-01  0.10862459559E+00 -0.71808904698E-01  0.89157540753E+00  0.88000000000E+00 0. -1.
        -11    1    4    4    0    0 -0.52726025749E-01 -0.70105183884E-01  0.71322027371E-01  0.11305690296E+00  0.51100000000E-03 0.  1.
         11    1    4    4    0    0 -0.36716118528E-02 -0.12587418379E-01  0.10508314556E-02  0.13163935688E-01  0.51100000000E-03 0. -1.
</event>
<event>
 8    1  0.1066842E+005  0.1043930E+01  0.7957747E-01            NaN
         13   -1    0    0    0    0  0.00000000000E+00  0.00000000000E+00  0.74505805969E-08  0.10566000000E+00  0.10566000000E+00 0.  1.
     999900   -1    0    0    0    0 -0.00000000000E+00 -0.00000000000E+00 -0.74505805969E-08  0.93827000000E+00  0.93827000000E+00 0. -1.
     999902    2    1    2    0    0  0.23422111579E-01  0.31137976572E-02  0.53022279251E-02  0.10197142062E+01  0.10194266319E+01 0.  0.
     999903    2    3    3    0    0  0.39146222972E-01 -0.63020336737E-01  0.10655921133E+00  0.13130329449E+00  0.19537144380E-01 0.  0.
         14    1    1    2    0    0 -0.23422111579E-01 -0.31137976572E-02 -0.53022279251E-02  0.24215793765E-01  0.00000000000E+00 0.  1.
     999901    1    3    3    0    0 -0.15724111393E-01  0.66134134394E-01 -0.10125698340E+00  0.88841091174E+00  0.88000000000E+00 0. -1.
        -11    1    4    4    0    0  0.12494523689E-01 -0.38230086702E-01  0.52709239311E-01  0.66303677735E-01  0.51100000000E-03 0.  1.
         11    1    4    4    0    0  0.26651699283E-01 -0.24790250034E-01  0.53849972019E-01  0.64999616759E-01  0.51100000000E-03 0. -1.
</event>
<event>
 8    1  0.1066842E+005  0.1043930E+01  0.7957747E-01            NaN
         13   -1    0    0    0    0  0.00000000000E+00  0.00000000000E+00  0.74505805969E-08  0.10566000000E+00  0.10566000000E+00 0.  1.
     999900   -1    0    0    0    0 -0.00000000000E+00 -0.00000000000E+00 -0.74505805969E-08  0.93827000000E+00  0.93827000000E+00 0.  1.
     999902    2    1    2    0    0  0.18601040049E-01  0.50895839858E-02  0.12599179069E-01  0.10208943348E+01  0.10206344111E+01 0.  0.
     999903    2    3    3    0    0  0.74017230580E-01 -0.10667261591E+00  0.14434731800E-01  0.13209451894E+00  0.19570463562E-01 0.  0.
         14    1    1    2    0    0 -0.18601040049E-01 -0.50895839858E-02 -0.12599179069E-01  0.23035665158E-01  0.00000000000E+00 0. -1.
     999901    1    3    3    0    0 -0.55416190531E-01  0.11176219989E+00 -0.18355527314E-02  0.88879981590E+00  0.88000000000E+00 0. -1.
        -11    1    4    4    0    0  0.40351000701E-01 -0.64828849398E-01 -0.44239459791E-03  0.76363864529E-01  0.51100000000E-03 0. -1.
         11    1    4    4    0    0  0.33666229880E-01 -0.41843766509E-01  0.14877126398E-01  0.55730654408E-01  0.51100000000E-03 0.  1.
</event>
<event>
 8    1  0.1066842E+005  0.1043930E+01  0.7957747E-01            NaN
         13   -1    0    0    0    0  0.00000000000E+00  0.00000000000E+00  0.74505805969E-08  0.10566000000E+00  0.10566000000E+00 0. -1.
     999900   -1    0    0    0    0 -0.00000000000E+00 -0.00000000000E+00 -0.74505805969E-08  0.93827000000E+00  0.93827000000E+00 0. -1.
     999902    2    1    2    0    0 -0.46429223278E-02  0.54949227773E-02 -0.22481583688E-01  0.10203254981E+01  0.10200524249E+01 0.  0.
     999903    2    3    3    0    0 -0.23845356690E-01  0.27674777069E-01 -0.12696939556E+00  0.13365849058E+00  0.20220543396E-01 0.  0.
         14    1    1    2    0    0  0.46429223278E-02 -0.54949227773E-02  0.22481583688E-01  0.23604501884E-01  0.00000000000E+00 0. -1.
     999901    1    3    3    0    0  0.19202434362E-01 -0.22179854292E-01  0.10448781187E+00  0.88666700753E+00  0.88000000000E+00 0.  1.
        -11    1    4    4    0    0 -0.37463549381E-03 -0.29599192510E-02 -0.68028560173E-02  0.74459012026E-02  0.51100000000E-03 0. -1.
         11    1    4    4    0    0 -0.23470721196E-01  0.30634696320E-01 -0.12016653954E+00  0.12621258938E+00  0.51100000000E-03 0.  1.
</event>
<event>
 8    1  0.1066842E+005  0.1043930E+01  0.7957747E-01            NaN
         13   -1    0    0    0    0  0.00000000000E+00  0.00000000000E+00  0.74505805969E-08  0.10566000000E+00  0.10566000000E+00 0.  1.
     999900   -1    0    0    0    0 -0.00000000000E+00 -0.00000000000E+00 -0.74505805969E-08  0.93827000000E+00  0.93827000000E+00 0. -1.
     999902    2    1    2    0    0  0.43295708977E-02 -0.18825212830E-01  0.13861755271E-01  0.10201543385E+01  0.10198772437E+01 0.  0.
     999903    2    3    3    0    0 -0.22190746132E-01 -0.11428624149E+00  0.62226802434E-01  0.13327480155E+00  0.18336400425E-01 0.  0.
         14    1    1    2    0    0 -0.43295708977E-02  0.18825212830E-01 -0.13861755271E-01  0.23775661536E-01  0.00000000000E+00 0. -1.
     999901    1    3    3    0    0  0.26520317030E-01  0.95461028656E-01 -0.48365047163E-01  0.88687953691E+00  0.88000000000E+00 0. -1.
        -11    1    4    4    0    0 -0.11160218979E-01 -0.93974296127E-01  0.47792111448E-01  0.10601917684E+00  0.51100000000E-03 0. -1.
         11    1    4    4    0    0 -0.11030527153E-01 -0.20311945359E-01  0.14434690986E-01  0.27255624712E-01  0.51100000000E-03 0.  1.
</event>
<event>
 7    1  0.1066842E+005  0.1043930E+01  0.7957747E-01            NaN
         13   -1    0    0    0    0  0.00000000000E+00  0.00000000000E+00  0.74505805969E-08  0.10566000000E+00  0.10566000000E+00 0.  1.
     999900   -1    0    0    0    0 -0.00000000000E+00 -0.00000000000E+00 -0.74505805969E-08  0.93827000000E+00  0.93827000000E+00 0.  1.
     999902    2    1    2    0    0 -0.18844506022E-01 -0.98387022883E-02 -0.98435335045E-02  0.10205032926E+01  0.10202343650E+01 0.  0.
         14    1    1    2    0    0  0.18844506022E-01  0.98387022883E-02  0.98435335045E-02  0.23426707447E-01  0.00000000000E+00 0.  1.
     999901    1    3    3    0    0  0.43801690096E-01 -0.28526159077E-01  0.10557335540E+00  0.88785024817E+00  0.88000000000E+00 0. -1.
        -11    1    3    3    0    0 -0.12384928367E-01  0.39429350376E-02 -0.22878164143E-01  0.26317384044E-01  0.51100000000E-03 0.  1.
         11    1    3    3    0    0 -0.50261267751E-01  0.14744521751E-01 -0.92538724763E-01  0.10633566034E+00  0.51100000000E-03 0. -1.
</event>
<event>
 8    1  0.1066842E+005  0.1043930E+01  0.7957747E-01            NaN
         13   -1    0    0    0    0  0.00000000000E+00  0.00000000000E+00  0.74505805969E-08  0.10566000000E+00  0.10566000000E+00 0.  1.
     999900   -1    0    0    0    0 -0.00000000000E+00 -0.00000000000E+00 -0.74505805969E-08  0.93827000000E+00  0.93827000000E+00 0. -1.
     999902    2    1    2    0    0 -0.18996082634E-01  0.13354271362E-01  0.21494363076E-02  0.10206103131E+01  0.10203438653E+01 0.  0.
     999903    2    3    3    0    0 -0.16733126317E-02  0.87650448988E-01 -0.96545422364E-01  0.13181299344E+00  0.19189723214E-01 0.  0.
         14    1    1    2    0    0  0.18996082634E-01 -0.13354271362E-01 -0.21494363076E-02  0.23319686865E-01  0.00000000000E+00 0.  1.
     999901    1    3    3    0    0 -0.17322770002E-01 -0.74296177626E-01  0.98694858671E-01  0.88879731970E+00  0.88000000000E+00 0.  1.
        -11    1    4    4    0    0 -0.10440626568E-01  0.46396290236E-01 -0.51808580156E-01  0.70327892970E-01  0.51100000000E-03 0.  1.
         11    1    4    4    0    0  0.87673139363E-02  0.41254158752E-01 -0.44736842207E-01  0.61485100469E-01  0.51100000000E-03 0. -1.
</event>
<event>
 8    1  0.1066842E+005  0.1043930E+01  0.7957747E-01            NaN
         13   -1    0    0    0    0  0.00000000000E+00  0.00000000000E+00  0.74505805969E-08  0.10566000000E+00  0.10566000000E+00 0.  1.
     999900   -1    0    0    0    0 -0.00000000000E+00 -0.00000000000E+00 -0.74505805969E-08  0.93827000000E+00  0.93827000000E+00 0.  1.
     999902    2    1    2    0    0 -0.71428353497E-02  0.16695158087E-01  0.18689515689E-01  0.10178714813E+01  0.10175378647E+01 0.  0.
     999903    2    3    3    0    0 -0.76868278550E-01  0.44852914045E-01 -0.89815854324E-01  0.12802435287E+00  0.20070652548E-01 0.  0.
         14    1    1    2    0    0  0.71428353497E-02 -0.16695158087E-01 -0.18689515689E-01  0.26058518704E-01  0.00000000000E+00 0. -1.
     999901    1    3    3    0    0  0.69725443200E-01 -0.28157755958E-01  0.10850537001E+00  0.88984712843E+00  0.88000000000E+00 0. -1.
        -11    1    4    4    0    0 -0.39363878373E-01  0.26278009322E-01 -0.34089827351E-01  0.58330319254E-01  0.51100000000E-03 0. -1.
         11    1    4    4    0    0 -0.37504400177E-01  0.18574904723E-01 -0.55726026973E-01  0.69694033614E-01  0.51100000000E-03 0.  1.
</event>
<event>
 8    1  0.1066842E+005  0.1043930E+01  0.7957747E-01            NaN
         13   -1    0    0    0    0  0.00000000000E+00  0.00000000000E+00  0.74505805969E-08  0.10566000000E+00  0.10566000000E+00 0.  1.
     999900   -1    0    0    0    0 -0.00000000000E+00 -0.00000000000E+00 -0.74505805969E-08  0.93827000000E+00  0.93827000000E+00 0. -1.
     999902    2    1    2    0    0 -0.27472865302E-02  0.22463413732E-01  0.16342167768E-02  0.10212402842E+01  0.10209881952E+01 0.  0.
     999903    2    3    3    0    0  0.46474893272E-01 -0.11238867822E+00 -0.36520600502E-01  0.12879213455E+00  0.21506486547E-01 0.  0.
         14    1    1    2    0    0  0.27472865302E-02 -0.22463413732E-01 -0.16342167768E-02  0.22689715826E-01  0.00000000000E+00 0. -1.
     999901    1    3    3    0    0 -0.49222179802E-01  0.13485209195E+00  0.38154817278E-01  0.89244814963E+00  0.88000000000E+00 0.  1.
        -11    1    4    4    0    0  0.42140469293E-01 -0.79764513752E-01 -0.31162826340E-01  0.95444118063E-01  0.51100000000E-03 0.  1.
         11    1    4    4    0    0  0.43344239785E-02 -0.32624164469E-01 -0.53577741620E-02  0.33348016485E-01  0.51100000000E-03 0. -1.
</event>
<event>
 8    1  0.1066842E+005  0.1043930E+01  0.7957747E-01            NaN
         13   -1    0    0    0    0  0.00000000000E+00  0.00000000000E+00  0.74505805969E-08  0.10566000000E+00  0.10566000000E+00 0.  1.
     999900   -1    0    0    0    0 -0.00000000000E+00 -0.00000000000E+00 -0.74505805969E-08  0.93827000000E+00  0.93827000000E+00 0. -1.
     999902    2    1    2    0    0  0.22411393700E-01  0.34814743996E-02 -0.75338279559E-02  0.10200312595E+01  0.10197512543E+01 0.  0.
     999903    2    3    3    0    0 -0.68942661572E-01  0.10738656195E+00  0.33780794534E-02  0.12915478082E+00  0.19610755068E-01 0.  0.
         14    1    1    2    0    0 -0.22411393700E-01 -0.34814743996E-02  0.75338279559E-02  0.23898740453E-01  0.00000000000E+00 0.  1.
     999901    1    3    3    0    0  0.91354055272E-01 -0.10390508755E+00 -0.10911907409E-01  0.89087647873E+00  0.88000000000E+00 0. -1.
        -11    1    4    4    0    0 -0.39998566262E-02  0.77451232083E-02 -0.47483352063E-02  0.99394967062E-02  0.51100000000E-03 0. -1.
         11    1    4    4    0    0 -0.64942804946E-01  0.99641438743E-01  0.81264146596E-02  0.11921528411E+00  0.51100000000E-03 0.  1.
</event>
<event>
 8    1  0.1066842E+005  0.1043930E+01  0.7957747E-01            NaN
         13   -1    0    0    0    0  0.00000000000E+00  0.00000000000E+00  0.74505805969E-08  0.10566000000E+00  0.10566000000E+00 0. -1.
     999900   -1    0    0    0    0 -0.00000000000E+00 -0.00000000000E+00 -0.74505805969E-08  0.93827000000E+00  0.93827000000E+00 0. -1.
     999902    2    1    2    0    0 -0.87429605695E-02 -0.20531412101E-02  0.21801293572E-01  0.10203513836E+01  0.10200789160E+01 0.  0.
     999903    2    3    3    0    0  0.78622369761E-01 -0.65624227400E-01  0.80416702307E-01  0.13180777183E+00  0.20455474940E-01 0.  0.
         14    1    1    2    0    0  0.87429605695E-02  0.20531412101E-02 -0.21801293572E-01  0.23578616366E-01  0.00000000000E+00 0.  1.
     999901    1    3    3    0    0 -0.87365330331E-01  0.63571086190E-01 -0.58615408736E-01  0.88854361181E+00  0.88000000000E+00 0.  1.
        -11    1    4    4    0    0  0.19057071800E-01 -0.25301227233E-01  0.32449205919E-01  0.45349048181E-01  0.51100000000E-03 0.  1.
         11    1    4    4    0    0  0.59565297961E-01 -0.40323000167E-01  0.47967496389E-01  0.86458723645E-01  0.51100000000E-03 0. -1.
</event>
<event>
 8    1  0.1066842E+005  0.1043930E+01  0.7957747E-01            NaN
         13   -1    0    0    0    0  0.00000000000E+00  0.00000000000E+00  0.74505805969E-08  0.10566000000E+00  0.10566000000E+00 0. -1.
     999900   -1    0    0    0    0 -0.00000000000E+00 -0.00000000000E+00 -0.74505805969E-08  0.93827000000E+00  0.93827000000E+00 0.  1.
     999902    2    1    2    0    0  0.15637498091E-01  0.17195004764E-01  0.42921455023E-02  0.10202948133E+01  0.10200210214E+01 0.  0.
     999903    2    3    3    0    0 -0.76107907624E-01 -0.96340647983E-01 -0.29668970898E-01  0.12762414543E+00  0.18268568825E-01 0.  0.
         14    1    1    2    0    0 -0.15637498091E-01 -0.17195004764E-01 -0.42921455023E-02  0.23635186659E-01  0.00000000000E+00 0.  1.
     999901    1    3    3    0    0  0.91745405715E-01  0.11353565275E+00  0.33961116400E-01  0.89267066791E+00  0.88000000000E+00 0. -1.
        -11    1    4    4    0    0 -0.11745978280E-01 -0.27289045075E-01 -0.62197767977E-02  0.30357976403E-01  0.51100000000E-03 0.  1.
         11    1    4    4    0    0 -0.64361929344E-01 -0.69051602908E-01 -0.23449194100E-01  0.97266169031E-01  0.51100000000E-03 0. -1.
</event>
<event>
 8    1  0.1066842E+005  0.1043930E+01  0.7957747E-01            NaN
         13   -1    0    0    0    0  0.00000000000E+00  0.00000000000E+00  0.74505805969E-08  0.10566000000E+00  0.10566000000E+00 0.  1.
     999900   -1    0    0    0    0 -0.00000000000E+00 -0.00000000000E+00 -0.74505805969E-08  0.93827000000E+00  0.93827000000E+00 0. -1.
     999902    2    1    2    0    0 -0.78026930942E-02  0.94199839237E-03 -0.23201982573E-01  0.10194330333E+01  0.10191386599E+01 0.  0.
     999903    2    3    3    0    0  0.24701930259E-01 -0.21441616395E-01  0.12089375409E+00  0.12684065264E+00  0.20082905949E-01 0.  0.
         14    1    1    2    0    0  0.78026930942E-02 -0.94199839237E-03  0.23201982573E-01  0.24496966666E-01  0.00000000000E+00 0.  1.
     999901    1    3    3    0    0 -0.32504623353E-01  0.22383614787E-01 -0.14409573666E+00  0.89259238070E+00  0.88000000000E+00 0. -1.
        -11    1    4    4    0    0  0.80869198130E-02  0.30791925376E-02  0.31168017397E-01  0.32350983419E-01  0.51100000000E-03 0. -1.
         11    1    4    4    0    0  0.16615010446E-01 -0.24520808933E-01  0.89725736695E-01  0.94489669220E-01  0.51100000000E-03 0.  1.
</event>
<event>
 8    1  0.1066842E+005  0.1043930E+01  0.7957747E-01            NaN
         13   -1    0    0    0    0  0.00000000000E+00  0.00000000000E+00  0.74505805969E-08  0.10566000000E+00  0.10566000000E+00 0. -1.
     999900   -1    0    0    0    0 -0.00000000000E+00 -0.00000000000E+00 -0.74505805969E-08  0.93827000000E+00  0.93827000000E+00 0.  1.
     999902    2    1    2    0    0  0.56734412318E-02 -0.22804239498E-01  0.77024141694E-02  0.10192004942E+01  0.10189004362E+01 0.  0.
     999903    2    3    3    0    0  0.11220853641E+00  0.35474041421E-01 -0.49062643918E-01  0.12904974494E+00  0.19938164029E-01 0.  0.
         14    1    1    2    0    0 -0.56734412318E-02  0.22804239498E-01 -0.77024141694E-02  0.24729505828E-01  0.00000000000E+00 0. -1.
     999901    1    3    3    0    0 -0.10653509517E+00 -0.58278280919E-01  0.56765058088E-01  0.89015074923E+00  0.88000000000E+00 0. -1.
        -11    1    4    4    0    0  0.62623991500E-01  0.29700519019E-01 -0.25594418112E-01  0.73886538022E-01  0.51100000000E-03 0.  1.
         11    1    4    4    0    0  0.49584544905E-01  0.57735224019E-02 -0.23468225806E-01  0.55163206922E-01  0.51100000000E-03 0. -1.
</event>
<event>
 8    1  0.1066842E+005  0.1043930E+01  0.7957747E-01            NaN
         13   -1    0    0    0    0  0.00000000000E+00  0.00000000000E+00  0.74505805969E-08  0.10566000000E+00  0.10566000000E+00 0.  1.
     999900   -1    0    0    0    0 -0.00000000000E+00 -0.00000000000E+00 -0.74505805969E-08  0.93827000000E+00  0.93827000000E+00 0. -1.
     999902    2    1    2    0    0 -0.89033276134E-02  0.19351663609E-01  0.83342947136E-02  0.10210560717E+01  0.10207998261E+01 0.  0.
     999903    2    3    3    0    0  0.11933502317E+00 -0.29844706359E-01 -0.34760503187E-01  0.12935964409E+00  0.19851213655E-01 0.  0.
         14    1    1    2    0    0  0.89033276134E-02 -0.19351663609E-01 -0.83342947136E-02  0.22873928290E-01  0.00000000000E+00 0. -1.
     999901    1    3    3    0    0 -0.12823835078E+00  0.49196369968E-01  0.43094797900E-01  0.89169642762E+00  0.88000000000E+00 0.  1.
        -11    1    4    4    0    0  0.10887086959E+00 -0.30345946241E-01 -0.26704062125E-01  0.11613402065E+00  0.51100000000E-03 0. -1.
         11    1    4    4    0    0  0.10464153585E-01  0.50123988210E-03 -0.80564410621E-02  0.13225623435E-01  0.51100000000E-03 0.  1.
</event>
<event>
 8    1  0.1066842E+005  0.1043930E+01  0.7957747E-01            NaN
         13   -1    0    0    0    0  0.00000000000E+00  0.00000000000E+00  0.74505805969E-08  0.10566000000E+00  0.10566000000E+00 0.  1.
     999900   -1    0    0    0    0 -0.00000000000E+00 -0.00000000000E+00 -0.74505805969E-08  0.93827000000E+00  0.93827000000E+00 0.  1.
     999902    2    1    2    0    0 -0.30174726851E-02 -0.64710259435E-02  0.22070574919E-01  0.10207332417E+01  0.10204696277E+01 0.  0.
     999903    2    3    3    0    0  0.36643830113E-01  0.11533165690E+00 -0.40139144297E-01  0.12928556424E+00  0.21434664627E-01 0.  0.
         14    1    1    2    0    0  0.30174726851E-02  0.64710259435E-02 -0.22070574919E-01  0.23196758296E-01  0.00000000000E+00 0. -1.
     999901    1    3    3    0    0 -0.39661302798E-01 -0.12180268284E+00  0.62209719217E-01  0.89144767746E+00  0.88000000000E+00 0. -1.
        -11    1    4    4    0    0  0.33794442352E-01  0.72987679365E-01 -0.27396646366E-01  0.84971189389E-01  0.51100000000E-03 0. -1.
         11    1    4    4    0    0  0.28493877609E-02  0.42343977535E-01 -0.12742497931E-01  0.44314374853E-01  0.51100000000E-03 0.  1.
</event>
<event>
 8    1  0.1066842E+005  0.1043930E+01  0.7957747E-01            NaN
         13   -1    0    0    0    0  0.00000000000E+00  0.00000000000E+00  0.74505805969E-08  0.10566000000E+00  0.10566000000E+00 0. -1.
     999900   -1    0    0    0    0 -0.00000000000E+00 -0.00000000000E+00 -0.74505805969E-08  0.93827000000E+00  0.93827000000E+00 0.  1.
     999902    2    1    2    0    0 -0.13585273517E-01  0.21873946717E-02  0.19304184570E-01  0.10202235474E+01  0.10199480824E+01 0.  0.
     999903    2    3    3    0    0  0.12670206208E+00 -0.12706243892E-01  0.42078433739E-02  0.12885928040E+00  0.19291112783E-01 0.  0.
         14    1    1    2    0    0  0.13585273517E-01 -0.21873946717E-02 -0.19304184570E-01  0.23706452579E-01  0.00000000000E+00 0.  1.
     999901    1    3    3    0    0 -0.14028733559E+00  0.14893638563E-01  0.15096341196E-01  0.89136426702E+00  0.88000000000E+00 0.  1.
        -11    1    4    4    0    0  0.92376669598E-01 -0.89280975613E-02 -0.55393634536E-02  0.92973682730E-01  0.51100000000E-03 0.  1.
         11    1    4    4    0    0  0.34325392478E-01 -0.37781463303E-02  0.97472068275E-02  0.35885597673E-01  0.51100000000E-03 0. -1.
</event>
<event>
 8    1  0.1066842E+005  0.1043930E+01  0.7957747E-01            NaN
         13   -1    0    0    0    0  0.00000000000E+00  0.00000000000E+00  0.74505805969E-08  0.10566000000E+00  0.10566000000E+00 0. -1.
     999900   -1    0    0    0    0 -0.00000000000E+00 -0.00000000000E+00 -0.74505805969E-08  0.93827000000E+00  0.93827000000E+00 0. -1.
     999902    2    1    2    0    0  0.13225873461E-01 -0.14165968892E-01 -0.13049115114E-01  0.10205659719E+01  0.10202984981E+01 0.  0.
     999903    2    3    3    0    0  0.53742705224E-01 -0.22825445203E-01 -0.11816363237E+00  0.13334240261E+00  0.20205766592E-01 0.  0.
         14    1    1    2    0    0 -0.13225873461E-01  0.14165968892E-01  0.13049115114E-01  0.23364028092E-01  0.00000000000E+00 0. -1.
     999901    1    3    3    0    0 -0.40516831764E-01  0.86594763116E-02  0.10511451726E+00  0.88722356930E+00  0.88000000000E+00 0.  1.
        -11    1    4    4    0    0  0.46124625927E-01 -0.12954824922E-01 -0.10374044719E+00  0.11427007530E+00  0.51100000000E-03 0. -1.
         11    1    4    4    0    0  0.76180792979E-02 -0.98706202814E-02 -0.14423185185E-01  0.19072327305E-01  0.51100000000E-03 0.  1.
</event>
<event>
 8    1  0.1066842E+005  0.1043930E+01  0.7957747E-01            NaN
         13   -1    0    0    0    0  0.00000000000E+00  0.00000000000E+00  0.74505805969E-08  0.10566000000E+00  0.10566000000E+00 0.  1.
     999900   -1    0    0    0    0 -0.00000000000E+00 -0.00000000000E+00 -0.74505805969E-08  0.93827000000E+00  0.93827000000E+00 0.  1.
     999902    2    1    2    0    0 -0.63988061334E-02  0.20617020012E-01 -0.94700870923E-02  0.10203569479E+01  0.10200846104E+01 0.  0.
     999903    2    3    3    0    0 -0.80597777012E-02  0.13117407202E+00 -0.11203049606E-01  0.13343608127E+00  0.20201046394E-01 0.  0.
         14    1    1    2    0    0  0.63988061334E-02 -0.20617020012E-01  0.94700870923E-02  0.23573052064E-01  0.00000000000E+00 0. -1.
     999901    1    3    3    0    0  0.16609715677E-02 -0.11055705201E+00  0.17329625138E-02  0.88692086667E+00  0.88000000000E+00 0.  1.
        -11    1    4    4    0    0 -0.87921674914E-02  0.22134925725E-01 -0.39950578126E-02  0.24155304883E-01  0.51100000000E-03 0.  1.
         11    1    4    4    0    0  0.73238979027E-03  0.10903914630E+00 -0.72079917935E-02  0.10928077638E+00  0.51100000000E-03 0. -1.
</event>
<event>
 8    1  0.1066842E+005  0.1043930E+01  0.7957747E-01            NaN
         13   -1    0    0    0    0  0.00000000000E+00  0.00000000000E+00  0.74505805969E-08  0.10566000000E+00  0.10566000000E+00 0.  1.
     999900   -1    0    0    0    0 -0.00000000000E+00 -0.00000000000E+00 -0.74505805969E-08  0.93827000000E+00  0.93827000000E+00 0. -1.
     999902    2    1    2    0    0  0.19769402940E-01 -0.12056395023E-01 -0.49996136880E-02  0.10202407178E+01  0.10199656564E+01 0.  0.
     999903    2    3    3    0    0  0.66310079805E-01 -0.60463012978E-01 -0.96203534894E-01  0.13298236169E+00  0.19400664225E-01 0.  0.
         14    1    1    2    0    0 -0.19769402940E-01  0.12056395023E-01  0.49996136880E-02  0.23689282188E-01  0.00000000000E+00 0. -1.
     999901    1    3    3    0    0 -0.46540676865E-01  0.48406617954E-01  0.91203921206E-01  0.88725835612E+00  0.88000000000E+00 0.  1.
        -11    1    4    4    0    0  0.39706061400E-01 -0.46281403297E-01 -0.71724114629E-01  0.94144300642E-01  0.51100000000E-03 0. -1.
         11    1    4    4    0    0  0.26604018405E-01 -0.14181609680E-01 -0.24479420265E-01  0.38838061048E-01  0.51100000000E-03 0.  1.
</event>
<event>
 8    1  0.1066842E+005  0.1043930E+01  0.7957747E-01            NaN
         13   -1    0    0    0    0  0.00000000000E+00  0.00000000000E+00  0.74505805969E-08  0.10566000000E+00  0.10566000000E+00 0. -1.
     999900   -1    0    0    0    0 -0.00000000000E+00 -0.00000000000E+00 -0.74505805969E-08  0.93827000000E+00  0.93827000000E+00 0.  1.
     999902    2    1    2    0    0  0.17705948210E-01 -0.15717313374E-01  0.14627695145E-01  0.10161000879E+01  0.10157189004E+01 0.  0.
     999903    2    3    3    0    0  0.18210441750E-01  0.11258476119E+00 -0.46400247400E-01  0.12470450422E+00  0.19780843581E-01 0.  0.
         14    1    1    2    0    0 -0.17705948210E-01  0.15717313374E-01 -0.14627695145E-01  0.27829912091E-01  0.00000000000E+00 0.  1.
     999901    1    3    3    0    0 -0.50449354018E-03 -0.12830207456E+00  0.61027942546E-01  0.89139558369E+00  0.88000000000E+00 0. -1.
        -11    1    4    4    0    0  0.97862583466E-02  0.67074111995E-01 -0.17052650201E-01  0.69898221381E-01  0.51100000000E-03 0. -1.
         11    1    4    4    0    0  0.84241834038E-02  0.45510649195E-01 -0.29347597199E-01  0.54806282838E-01  0.51100000000E-03 0.  1.
</event>
<event>
 8    1  0.1066842E+005  0.1043930E+01  0.7957747E-01            NaN
         13   -1    0    0    0    0  0.00000000000E+00  0.00000000000E+00  0.74505805969E-08  0.10566000000E+00  0.10566000000E+00 0.  1.
     999900   -1    0    0    0    0 -0.00000000000E+00 -0.00000000000E+00 -0.74505805969E-08  0.93827000000E+00  0.93827000000E+00 0. -1.
     999902    2    1    2    0    0  0.39014529814E-02 -0.82536175548E-02 -0.21161288689E-01  0.10208834454E+01  0.10206232731E+01 0.  0.
     999903    2    3    3    0    0 -0.71016314898E-01  0.95742862795E-01 -0.50785574741E-01  0.13110508079E+00  0.19983864749E-01 0.  0.
         14    1    1    2    0    0 -0.39014529814E-02  0.82536175548E-02  0.21161288689E-01  0.23046554560E-01  0.00000000000E+00 0.  1.
     999901    1    3    3    0    0  0.74917767880E-01 -0.10399648035E+00  0.29624286052E-01  0.88977836465E+00  0.88000000000E+00 0.  1.
        -11    1    4    4    0    0 -0.48051176217E-01  0.51542097366E-01 -0.36072588392E-01  0.79164361243E-01  0.51100000000E-03 0.  1.
         11    1    4    4    0    0 -0.22965138682E-01  0.44200765429E-01 -0.14712986349E-01  0.51940719551E-01  0.51100000000E-03 0. -1.
</event>
<event>
 8    1  0.1066842E+005  0.1043930E+01  0.7957747E-01            NaN
         13   -1    0    0    0    0  0.00000000000E+00  0.00000000000E+00  0.74505805969E-08  0.10566000000E+00  0.10566000000E+00 0. -1.
     999900   -1    0    0    0    0 -0.00000000000E+00 -0.00000000000E+00 -0.74505805969E-08  0.93827000000E+00  0.93827000000E+00 0. -1.
     999902    2    1    2    0    0 -0.57251021234E-02  0.14607345028E-01  0.16596038021E-01  0.10210918783E+01  0.10208364434E+01 0.  0.
     999903    2    3    3    0    0  0.20166694581E-01  0.12653350645E+00 -0.26640320919E-01  0.13257219173E+00  0.21172045198E-01 0.  0.
         14    1    1    2    0    0  0.57251021234E-02 -0.14607345028E-01 -0.16596038021E-01  0.22838121663E-01  0.00000000000E+00 0.  1.
     999901    1    3    3    0    0 -0.25891796704E-01 -0.11192616142E+00  0.43236358940E-01  0.88851968660E+00  0.88000000000E+00 0.  1.
        -11    1    4    4    0    0  0.90513385194E-02  0.54530433895E-01 -0.85308055965E-03  0.55285475644E-01  0.51100000000E-03 0.  1.
         11    1    4    4    0    0  0.11115356062E-01  0.72003072554E-01 -0.25787240359E-01  0.77286716090E-01  0.51100000000E-03 0. -1.
</event>
<event>
 8    1  0.1066842E+005  0.1043930E+01  0.7957747E-01            NaN
         13   -1    0    0    0    0  0.00000000000E+00  0.00000000000E+00  0.74505805969E-08  0.10566000000E+00  0.10566000000E+00 0. -1.
     999900   -1    0    0    0    0 -0.00000000000E+00 -0.00000000000E+00 -0.74505805969E-08  0.93827000000E+00  0.93827000000E+00 0. -1.
     999902    2    1    2    0    0 -0.13254505412E-01 -0.20100624331E-01 -0.22030873881E-02  0.10197521050E+01  0.10194654408E+01 0.  0.
     999903    2    3    3    0    0  0.27073844588E-01  0.23137033247E-01 -0.12299932253E+00  0.12953437812E+00  0.19544984118E-01 0.  0.
         14    1    1    2    0    0  0.13254505412E-01  0.20100624331E-01  0.22030873881E-02  0.24177894992E-01  0.00000000000E+00 0.  1.
     999901    1    3    3    0    0 -0.40328350000E-01 -0.43237657578E-01  0.12079623514E+00  0.89021772689E+00  0.88000000000E+00 0.  1.
        -11    1    4    4    0    0  0.15674813490E-01  0.22080621021E-01 -0.65049551006E-01  0.70462463835E-01  0.51100000000E-03 0.  1.
         11    1    4    4    0    0  0.11399031098E-01  0.10564122258E-02 -0.57949771519E-01  0.59071914282E-01  0.51100000000E-03 0. -1.
</event>
<event>
 8    1  0.1066842E+005  0.1043930E+01  0.7957747E-01            NaN
         13   -1    0    0    0    0  0.00000000000E+00  0.00000000000E+00  0.74505805969E-08  0.10566000000E+00  0.10566000000E+00 0.  1.
     999900   -1    0    0    0    0 -0.00000000000E+00 -0.00000000000E+00 -0.74505805969E-08  0.93827000000E+00  0.93827000000E+00 0.  1.
     999902    2    1    2    0    0  0.22228289418E-01  0.90818170945E-02 -0.62948856826E-02  0.10191065869E+01  0.10188042175E+01 0.  0.
     999903    2    3    3    0    0  0.20972983409E-01  0.59075927910E-01  0.11280290327E+00  0.12967684249E+00  0.12718380443E-01 0.  0.
         14    1    1    2    0    0 -0.22228289418E-01 -0.90818170945E-02  0.62948856826E-02  0.24823413100E-01  0.00000000000E+00 0. -1.
     999901    1    3    3    0    0  0.12553060092E-02 -0.49994110816E-01 -0.11909778895E+00  0.88942974441E+00  0.88000000000E+00 0.  1.
        -11    1    4    4    0    0  0.18332040982E-01  0.33078381987E-01  0.67659372894E-01  0.77513192057E-01  0.51100000000E-03 0. -1.
         11    1    4    4    0    0  0.26409424272E-02  0.25997545923E-01  0.45143530373E-01  0.52163650433E-01  0.51100000000E-03 0.  1.
</event>
<event>
 8    1  0.1066842E+005  0.1043930E+01  0.7957747E-01            NaN
         13   -1    0    0    0    0  0.00000000000E+00  0.00000000000E+00  0.74505805969E-08  0.10566000000E+00  0.10566000000E+00 0.  1.
     999900   -1    0    0    0    0 -0.00000000000E+00 -0.00000000000E+00 -0.74505805969E-08  0.93827000000E+00  0.93827000000E+00 0. -1.
     999902    2    1    2    0    0 -0.14988510412E-01 -0.15279150588E-01  0.51361887593E-02  0.10219189046E+01  0.10216818287E+01 0.  0.
     999903    2    3    3    0    0 -0.81997922296E-01 -0.51014136979E-01 -0.89934296859E-01  0.13354643327E+00  0.20502942576E-01 0.  0.
         14    1    1    2    0    0  0.14988510412E-01  0.15279150588E-01 -0.51361887593E-02  0.22011095430E-01  0.00000000000E+00 0. -1.
     999901    1    3    3    0    0  0.67009411884E-01  0.35734986391E-01  0.95070485618E-01  0.88837247130E+00  0.88000000000E+00 0.  1.
        -11    1    4    4    0    0 -0.29925655917E-01 -0.30291745189E-01 -0.41724449528E-01  0.59618164330E-01  0.51100000000E-03 0.  1.
         11    1    4    4    0    0 -0.52072266380E-01 -0.20722391789E-01 -0.48209847331E-01  0.73928268937E-01  0.51100000000E-03 0. -1.
</event>
<event>
 8    1  0.1066842E+005  0.1043930E+01  0.7957747E-01            NaN
         13   -1    0    0    0    0  0.00000000000E+00  0.00000000000E+00  0.74505805969E-08  0.10566000000E+00  0.10566000000E+00 0. -1.
     999900   -1    0    0    0    0 -0.00000000000E+00 -0.00000000000E+00 -0.74505805969E-08  0.93827000000E+00  0.93827000000E+00 0. -1.
     999902    2    1    2    0    0 -0.15748222039E-01 -0.77468521784E-02 -0.15686605208E-01  0.10203908879E+01  0.10201193432E+01 0.  0.
     999903    2    3    3    0    0 -0.20581026252E-01 -0.10268831404E+00 -0.79565576654E-01  0.13296891376E+00  0.19534138226E-01 0.  0.
         14    1    1    2    0    0  0.15748222039E-01  0.77468521784E-02  0.15686605208E-01  0.23539112112E-01  0.00000000000E+00 0. -1.
     999901    1    3    3    0    0  0.48328042131E-02  0.94941461858E-01  0.63878971446E-01  0.88742197413E+00  0.88000000000E+00 0.  1.
        -11    1    4    4    0    0 -0.11675536592E-01 -0.19227203188E-01 -0.14511748838E-01  0.26774156802E-01  0.51100000000E-03 0.  1.
         11    1    4    4    0    0 -0.89054896601E-02 -0.83461110849E-01 -0.65053827817E-01  0.10619475696E+00  0.51100000000E-03 0. -1.
</event>
<event>
 8    1  0.1066842E+005  0.1043930E+01  0.7957747E-01            NaN
         13   -1    0    0    0    0  0.00000000000E+00  0.00000000000E+00  0.74505805969E-08  0.10566000000E+00  0.10566000000E+00 0. -1.
     999900   -1    0    0    0    0 -0.00000000000E+00 -0.00000000000E+00 -0.74505805969E-08  0.93827000000E+00  0.93827000000E+00 0. -1.
     999902    2    1    2    0    0 -0.18311122343E-01 -0.15607463493E-01  0.39509346516E-02  0.10195476293E+01  0.10192560367E+01 0.  0.
     999903    2    3    3    0    0  0.12537992342E-01  0.81569405463E-01  0.97015015633E-01  0.12878619380E+00  0.19057840801E-01 0.  0.
         14    1    1    2    0    0  0.18311122343E-01  0.15607463493E-01 -0.39509346516E-02  0.24382370737E-01  0.00000000000E+00 0.  1.
     999901    1    3    3    0    0 -0.30849114684E-01 -0.97176868956E-01 -0.93064080982E-01  0.89076143546E+00  0.88000000000E+00 0. -1.
        -11    1    4    4    0    0 -0.21411997640E-02  0.44634064016E-01  0.46272704710E-01  0.64328910524E-01  0.51100000000E-03 0. -1.
         11    1    4    4    0    0  0.14679192106E-01  0.36935341447E-01  0.50742310923E-01  0.64457283277E-01  0.51100000000E-03 0.  1.
</event>
<event>
 8    1  0.1066842E+005  0.1043930E+01  0.7957747E-01            NaN
         13   -1    0    0    0    0  0.00000000000E+00  0.00000000000E+00  0.74505805969E-08  0.10566000000E+00  0.10566000000E+00 0.  1.
     999900   -1    0    0    0    0 -0.00000000000E+00 -0.00000000000E+00 -0.74505805969E-08  0.93827000000E+00  0.93827000000E+00 0. -1.
     999902    2    1    2    0    0 -0.30596791930E-02 -0.16314364962E-01  0.23903191502E-01  0.10148287508E+01  0.10144114110E+01 0.  0.
     999903    2    3    3    0    0  0.14569927409E-01 -0.12235735041E+00 -0.23823455045E-01  0.12700345798E+00  0.19460661422E-01 0.  0.
         14    1    1    2    0    0  0.30596791930E-02  0.16314364962E-01 -0.23903191502E-01  0.29101249197E-01  0.00000000000E+00 0. -1.
     999901    1    3    3    0    0 -0.17629606602E-01  0.10604298545E+00  0.47726646547E-01  0.88782529283E+00  0.88000000000E+00 0.  1.
        -11    1    4    4    0    0  0.59900521221E-02 -0.92443798728E-01 -0.24671457732E-01  0.95868026971E-01  0.51100000000E-03 0.  1.
         11    1    4    4    0    0  0.85798752871E-02 -0.29913551685E-01  0.84800268745E-03  0.31135431005E-01  0.51100000000E-03 0. -1.
</event>
<event>
 8    1  0.1066842E+005  0.1043930E+01  0.7957747E-01            NaN
         13   -1    0    0    0    0  0.00000000000E+00  0.00000000000E+00  0.74505805969E-08  0.10566000000E+00  0.10566000000E+00 0. -1.
     999900   -1    0    0    0    0 -0.00000000000E+00 -0.00000000000E+00 -0.74505805969E-08  0.93827000000E+00  0.93827000000E+00 0.  1.
     999902    2    1    2    0    0  0.12865130375E-01  0.57259707768E-02 -0.17297857416E-01  0.10216249738E+01  0.10213814532E+01 0.  0.
     999903    2    3    3    0    0 -0.73950262727E-01 -0.10533039125E+00  0.17713433865E-02  0.13020248004E+00  0.19657453389E-01 0.  0.
         14    1    1    2    0    0 -0.12865130375E-01 -0.57259707768E-02  0.17297857416E-01  0.22305026162E-01  0.00000000000E+00 0. -1.
     999901    1    3    3    0    0  0.86815393102E-01  0.11105636203E+00 -0.19069200803E-01  0.89142249380E+00  0.88000000000E+00 0.  1.
        -11    1    4    4    0    0 -0.55756927524E-01 -0.90382230641E-01 -0.26865244015E-02  0.10623210963E+00  0.51100000000E-03 0. -1.
         11    1    4    4    0    0 -0.18193335203E-01 -0.14948160607E-01  0.44578677881E-02  0.23970370409E-01  0.51100000000E-03 0.  1.
</event>
<event>
 8    1  0.1066842E+005  0.1043930E+01  0.7957747E-01            NaN
         13   -1    0    0    0    0  0.00000000000E+00  0.00000000000E+00  0.74505805969E-08  0.10566000000E+00  0.10566000000E+00 0.  1.
     999900   -1    0    0    0    0 -0.00000000000E+00 -0.00000000000E+00 -0.74505805969E-08  0.93827000000E+00  0.93827000000E+00 0.  1.
     999902    2    1    2    0    0 -0.82565538104E-02  0.10713667314E-01 -0.19263123472E-01  0.10203923435E+01  0.10201208327E+01 0.  0.
     999903    2    3    3    0    0 -0.49241673815E-01  0.10177718757E-01  0.11704649654E+00  0.12895508837E+00  0.20030079015E-01 0.  0.
         14    1    1    2    0    0  0.82565538104E-02 -0.10713667314E-01  0.19263123472E-01  0.23537656511E-01  0.00000000000E+00 0.  1.
     999901    1    3    3    0    0  0.40985120005E-01  0.53594855720E-03 -0.13630962001E+00  0.89143725512E+00  0.88000000000E+00 0.  1.
        -11    1    4    4    0    0 -0.16243486715E-01  0.95542408992E-02  0.61672917948E-01  0.64489877570E-01  0.51100000000E-03 0.  1.
         11    1    4    4    0    0 -0.32998187100E-01  0.62347785727E-03  0.55373578593E-01  0.64465210802E-01  0.51100000000E-03 0. -1.
</event>
<event>
 8    1  0.1066842E+005  0.1043930E+01  0.7957747E-01            NaN
         13   -1    0    0    0    0  0.00000000000E+00  0.00000000000E+00  0.74505805969E-08  0.10566000000E+00  0.10566000000E+00 0. -1.
     999900   -1    0    0    0    0 -0.00000000000E+00 -0.00000000000E+00 -0.74505805969E-08  0.93827000000E+00  0.93827000000E+00 0. -1.
     999902    2    1    2    0    0 -0.21934130620E-01 -0.23037349609E-02 -0.88924864691E-02  0.10201499748E+01  0.10198727772E+01 0.  0.
     999903    2    3    3    0    0  0.73129822815E-01 -0.66066683809E-01 -0.81998831195E-01  0.12973018254E+00  0.19832656150E-01 0.  0.
         14    1    1    2    0    0  0.21934130620E-01  0.23037349609E-02  0.88924864691E-02  0.23780025156E-01  0.00000000000E+00 0.  1.
     999901    1    3    3    0    0 -0.95063953434E-01  0.63762948849E-01  0.73106344725E-01  0.89041979230E+00  0.88000000000E+00 0.  1.
        -11    1    4    4    0    0  0.23848634077E-01 -0.30502206290E-01 -0.23057067732E-01  0.45066966054E-01  0.51100000000E-03 0. -1.
         11    1    4    4    0    0  0.49281188737E-01 -0.35564477519E-01 -0.58941763463E-01  0.84663216486E-01  0.51100000000E-03 0.  1.
</event>
<event>
 8    1  0.1066842E+005  0.1043930E+01  0.7957747E-01            NaN
         13   -1    0    0    0    0  0.00000000000E+00  0.00000000000E+00  0.74505805969E-08  0.10566000000E+00  0.10566000000E+00 0. -1.
     999900   -1    0    0    0    0 -0.00000000000E+00 -0.00000000000E+00 -0.74505805969E-08  0.93827000000E+00  0.93827000000E+00 0. -1.
     999902    2    1    2    0    0 -0.52129230326E-02 -0.77442882156E-02 -0.22947836074E-01  0.10191559865E+01  0.10188548341E+01 0.  0.
     999903    2    3    3    0    0 -0.51603044829E-01 -0.11698651649E+00 -0.21872687141E-01  0.13118804572E+00  0.19574718876E-01 0.  0.
         14    1    1    2    0    0  0.52129230326E-02  0.77442882156E-02  0.22947836074E-01  0.24774013542E-01  0.00000000000E+00 0. -1.
     999901    1    3    3    0    0  0.46390121796E-01  0.10924222828E+00 -0.10751489326E-02  0.88796794074E+00  0.88000000000E+00 0. -1.
        -11    1    4    4    0    0 -0.27556297774E-01 -0.84347697150E-01 -0.12983208861E-01  0.89681148492E-01  0.51100000000E-03 0. -1.
         11    1    4    4    0    0 -0.24046747055E-01 -0.32638819344E-01 -0.88894782807E-02  0.41506897225E-01  0.51100000000E-03 0.  1.
</event>
<event>
 8    1  0.1066842E+005  0.1043930E+01  0.7957747E-01            NaN
         13   -1    0    0    0    0  0.00000000000E+00  0.00000000000E+00  0.74505805969E-08  0.10566000000E+00  0.10566000000E+00 0.  1.
     999900   -1    0    0    0    0 -0.00000000000E+00 -0.00000000000E+00 -0.74505805969E-08  0.93827000000E+00  0.93827000000E+00 0.  1.
     999902    2    1    2    0    0 -0.74487628322E-02  0.13720497265E-02  0.23365926873E-01  0.10193671596E+01  0.10190711815E+01 0.  0.
     999903    2    3    3    0    0  0.47656168207E-01 -0.56465455424E-01  0.10675680426E+00  0.13182236141E+00  0.22818012348E-01 0.  0.
         14    1    1    2    0    0  0.74487628322E-02 -0.13720497265E-02 -0.23365926873E-01  0.24562840365E-01  0.00000000000E+00 0. -1.
     999901    1    3    3    0    0 -0.55104931040E-01  0.57837505151E-01 -0.83390877385E-01  0.88754479823E+00  0.88000000000E+00 0.  1.
        -11    1    4    4    0    0  0.23703767944E-01 -0.17208660179E-01  0.27457397926E-01  0.40151916788E-01  0.51100000000E-03 0.  1.
         11    1    4    4    0    0  0.23952400263E-01 -0.39256795245E-01  0.79299406332E-01  0.91670444620E-01  0.51100000000E-03 0. -1.
</event>
<event>
 8    1  0.1066842E+005  0.1043930E+01  0.7957747E-01            NaN
         13   -1    0    0    0    0  0.00000000000E+00  0.00000000000E+00  0.74505805969E-08  0.10566000000E+00  0.10566000000E+00 0.  1.
     999900   -1    0    0    0    0 -0.00000000000E+00 -0.00000000000E+00 -0.74505805969E-08  0.93827000000E+00  0.93827000000E+00 0.  1.
     999902    2    1    2    0    0 -0.12961546458E-01  0.13452054852E-01 -0.12925923913E-01  0.10212135087E+01  0.10209608178E+01 0.  0.
     999903    2    3    3    0    0  0.67402739499E-01 -0.10822622820E+00 -0.12277474248E-01  0.12921326013E+00  0.17008364322E-01 0.  0.
         14    1    1    2    0    0  0.12961546458E-01 -0.13452054852E-01  0.12925923913E-01  0.22716491264E-01  0.00000000000E+00 0.  1.
     999901    1    3    3    0    0 -0.80364285957E-01  0.12167828305E+00 -0.64844966570E-03  0.89200024861E+00  0.88000000000E+00 0.  1.
        -11    1    4    4    0    0  0.28051417169E-01 -0.57595084064E-01 -0.11452746052E-01  0.65080736218E-01  0.51100000000E-03 0.  1.
         11    1    4    4    0    0  0.39351322330E-01 -0.50631144139E-01 -0.82472819581E-03  0.64132523913E-01  0.51100000000E-03 0. -1.
</event>
<event>
 8    1  0.1066842E+005  0.1043930E+01  0.7957747E-01            NaN
         13   -1    0    0    0    0  0.00000000000E+00  0.00000000000E+00  0.74505805969E-08  0.10566000000E+00  0.10566000000E+00 0. -1.
     999900   -1    0    0    0    0 -0.00000000000E+00 -0.00000000000E+00 -0.74505805969E-08  0.93827000000E+00  0.93827000000E+00 0. -1.
     999902    2    1    2    0    0  0.16597867751E-01  0.15676552563E-01  0.54321238583E-02  0.10204619050E+01  0.10201920153E+01 0.  0.
     999903    2    3    3    0    0  0.88054356496E-01 -0.86937928174E-01  0.38084618710E-01  0.13102278573E+00  0.20118626799E-01 0.  0.
         14    1    1    2    0    0 -0.16597867751E-01 -0.15676552563E-01 -0.54321238583E-02  0.23468095018E-01  0.00000000000E+00 0.  1.
     999901    1    3    3    0    0 -0.71456488745E-01  0.10261448074E+00 -0.32652494851E-01  0.88943911925E+00  0.88000000000E+00 0. -1.
        -11    1    4    4    0    0  0.20723658664E-01 -0.27948163079E-01  0.31855719080E-02  0.34942507599E-01  0.51100000000E-03 0.  1.
         11    1    4    4    0    0  0.67330697832E-01 -0.58989765095E-01  0.34899046801E-01  0.96080278128E-01  0.51100000000E-03 0. -1.
</event>
<event>
 8    1  0.1066842E+005  0.1043930E+01  0.7957747E-01            NaN
         13   -1    0    0    0    0  0.00000000000E+00  0.00000000000E+00  0.74505805969E-08  0.10566000000E+00  0.10566000000E+00 0. -1.
     999900   -1    0    0    0    0 -0.00000000000E+00 -0.00000000000E+00 -0.74505805969E-08  0.93827000000E+00  0.93827000000E+00 0. -1.
     999902    2    1    2    0    0 -0.19077981381E-01 -0.13913199316E-01 -0.30100713477E-02  0.10201264915E+01  0.10198487396E+01 0.  0.
     999903    2    3    3    0    0  0.81873249476E-02 -0.12694929137E+00 -0.28796133695E-01  0.13210313815E+00  0.20949150875E-01 0.  0.
         14    1    1    2    0    0  0.19077981381E-01  0.13913199316E-01  0.30100713477E-02  0.23803508529E-01  0.00000000000E+00 0. -1.
     999901    1    3    3    0    0 -0.27265306329E-01  0.11303609206E+00  0.25786062347E-01  0.88802335332E+00  0.88000000000E+00 0. -1.
        -11    1    4    4    0    0 -0.31001787653E-02 -0.29745469249E-01  0.62584119051E-03  0.29917500688E-01  0.51100000000E-03 0. -1.
         11    1    4    4    0    0  0.11287503713E-01 -0.97203822125E-01 -0.29421974886E-01  0.10218563746E+00  0.51100000000E-03 0.  1.
</event>
<event>
 8    1  0.1066842E+005  0.1043930E+01  0.7957747E-01            NaN
         13   -1    0    0    0    0  0.00000000000E+00  0.00000000000E+00  0.74505805969E-08  0.10566000000E+00  0.10566000000E+00 0. -1.
     999900   -1    0    0    0    0 -0.00000000000E+00 -0.00000000000E+00 -0.74505805969E-08  0.93827000000E+00  0.93827000000E+00 0. -1.
     999902    2    1    2    0    0  0.17546599747E-01  0.15239465028E-01 -0.36641547000E-02  0.10204023463E+01  0.10201310690E+01 0.  0.
     999903    2    3    3    0    0  0.95422309297E-01 -0.82100152821E-01  0.26644264786E-01  0.13110024490E+00  0.25129766440E-01 0.  0.
         14    1    1    2    0    0 -0.17546599747E-01 -0.15239465028E-01  0.36641547000E-02  0.23527653659E-01  0.00000000000E+00 0.  1.
     999901    1    3    3    0    0 -0.77875709550E-01  0.97339617849E-01 -0.30308419486E-01  0.88930210144E+00  0.88000000000E+00 0. -1.
        -11    1    4    4    0    0  0.59051210309E-01 -0.65165312797E-01  0.22418497442E-01  0.90754689022E-01  0.51100000000E-03 0. -1.
         11    1    4    4    0    0  0.36371098988E-01 -0.16934840023E-01  0.42257673435E-02  0.40345555875E-01  0.51100000000E-03 0.  1.
</event>
<event>
 8    1  0.1066842E+005  0.1043930E+01  0.7957747E-01            NaN
         13   -1    0    0    0    0  0.00000000000E+00  0.00000000000E+00  0.74505805969E-08  0.10566000000E+00  0.10566000000E+00 0.  1.
     999900   -1    0    0    0    0 -0.00000000000E+00 -0.00000000000E+00 -0.74505805969E-08  0.93827000000E+00  0.93827000000E+00 0.  1.
     999902    2    1    2    0    0 -0.11561969569E-01 -0.20297173775E-01  0.19675522408E-02  0.10204880362E+01  0.10202187542E+01 0.  0.
     999903    2    3    3    0    0 -0.89839580911E-01  0.64330655529E-01 -0.66045671877E-01  0.13036722837E+00  0.20591258342E-01 0.  0.
         14    1    1    2    0    0  0.11561969569E-01  0.20297173775E-01 -0.19675522408E-02  0.23441963770E-01  0.00000000000E+00 0.  1.
     999901    1    3    3    0    0  0.78277611342E-01 -0.84627829305E-01  0.68013224118E-01  0.89012080786E+00  0.88000000000E+00 0. -1.
        -11    1    4    4    0    0 -0.70886504862E-01  0.46322618013E-01 -0.59244589267E-01  0.10334826554E+00  0.51100000000E-03 0. -1.
         11    1    4    4    0    0 -0.18953076048E-01  0.18008037516E-01 -0.68010826104E-02  0.27018962833E-01  0.51100000000E-03 0.  1.
</event>
<event>
 8    1  0.1066842E+005  0.1043930E+01  0.7957747E-01            NaN
         13   -1    0    0    0    0  0.00000000000E+00  0.00000000000E+00  0.74505805969E-08  0.10566000000E+00  0.10566000000E+00 0. -1.
     999900   -1    0    0    0    0 -0.00000000000E+00 -0.00000000000E+00 -0.74505805969E-08  0.93827000000E+00  0.93827000000E+00 0.  1.
     999902    2    1    2    0    0 -0.22288359104E-01  0.16181382750E-02  0.79121434007E-02  0.10202236435E+01  0.10199481808E+01 0.  0.
     999903    2    3    3    0    0 -0.16229450014E-01 -0.10744781507E+00 -0.68210205130E-01  0.13020864114E+00  0.22208785060E-01 0.  0.
         14    1    1    2    0    0  0.22288359104E-01 -0.16181382750E-02 -0.79121434007E-02  0.23706356452E-01  0.00000000000E+00 0.  1.
     999901    1    3    3    0    0 -0.60589090897E-02  0.10906595334E+00  0.76122348531E-01  0.89001500240E+00  0.88000000000E+00 0. -1.
        -11    1    4    4    0    0 -0.33796233621E-02 -0.43973013993E-01 -0.40089529364E-01  0.59602678626E-01  0.51100000000E-03 0.  1.
         11    1    4    4    0    0 -0.12849826652E-01 -0.63474801076E-01 -0.28120675766E-01  0.70605962518E-01  0.51100000000E-03 0. -1.
</event>
<event>
 8    1  0.1066842E+005  0.1043930E+01  0.7957747E-01            NaN
         13   -1    0    0    0    0  0.00000000000E+00  0.00000000000E+00  0.74505805969E-08  0.10566000000E+00  0.10566000000E+00 0. -1.
     999900   -1    0    0    0    0 -0.00000000000E+00 -0.00000000000E+00 -0.74505805969E-08  0.93827000000E+00  0.93827000000E+00 0.  1.
     999902    2    1    2    0    0  0.11164673580E-01 -0.27318340069E-02  0.20244648615E-01  0.10206499946E+01  0.10203844633E+01 0.  0.
     999903    2    3    3    0    0 -0.11061538618E-02 -0.11362268918E+00 -0.60057967532E-01  0.12997841366E+00  0.19393026564E-01 0.  0.
         14    1    1    2    0    0 -0.11164673580E-01  0.27318340069E-02 -0.20244648615E-01  0.23280005385E-01  0.00000000000E+00 0.  1.
     999901    1    3    3    0    0  0.12270827442E-01  0.11089085517E+00  0.80302616148E-01  0.89067158096E+00  0.88000000000E+00 0. -1.
        -11    1    4    4    0    0 -0.97950426119E-02 -0.65553232236E-01 -0.37696392257E-01  0.76252529313E-01  0.51100000000E-03 0. -1.
         11    1    4    4    0    0  0.86888887501E-02 -0.48069456944E-01 -0.22361575276E-01  0.53725884343E-01  0.51100000000E-03 0.  1.
</event>
<event>
 8    1  0.1066842E+005  0.1043930E+01  0.7957747E-01            NaN
         13   -1    0    0    0    0  0.00000000000E+00  0.00000000000E+00  0.74505805969E-08  0.10566000000E+00  0.10566000000E+00 0.  1.
     999900   -1    0    0    0    0 -0.00000000000E+00 -0.00000000000E+00 -0.74505805969E-08  0.93827000000E+00  0.93827000000E+00 0.  1.
     999902    2    1    2    0    0  0.15345862443E-01  0.15014434386E-01 -0.10380113693E-01  0.10200830821E+01  0.10198043042E+01 0.  0.
     999903    2    3    3    0    0 -0.10238174398E-01  0.12674532559E+00 -0.30996365122E-01  0.13241007651E+00  0.20061304490E-01 0.  0.
         14    1    1    2    0    0 -0.15345862443E-01 -0.15014434386E-01  0.10380113693E-01  0.23846917921E-01  0.00000000000E+00 0.  1.
     999901    1    3    3    0    0  0.25584036840E-01 -0.11173089120E+00  0.20616251429E-01  0.88767300557E+00  0.88000000000E+00 0. -1.
        -11    1    4    4    0    0  0.47379992301E-02  0.41388241823E-01 -0.51702325322E-02  0.41981277057E-01  0.51100000000E-03 0. -1.
         11    1    4    4    0    0 -0.14976173628E-01  0.85357083765E-01 -0.25826132590E-01  0.90428799455E-01  0.51100000000E-03 0.  1.
</event>
<event>
 8    1  0.1066842E+005  0.1043930E+01  0.7957747E-01            NaN
         13   -1    0    0    0    0  0.00000000000E+00  0.00000000000E+00  0.74505805969E-08  0.10566000000E+00  0.10566000000E+00 0.  1.
     999900   -1    0    0    0    0 -0.00000000000E+00 -0.00000000000E+00 -0.74505805969E-08  0.93827000000E+00  0.93827000000E+00 0.  1.
     999902    2    1    2    0    0 -0.16268786500E-02  0.24234673451E-01  0.22612521399E-02  0.10195357508E+01  0.10192438706E+01 0.  0.
     999903    2    3    3    0    0 -0.29176538192E-01 -0.89231528662E-01 -0.83998854357E-01  0.12764205271E+00  0.20570610093E-01 0.  0.
         14    1    1    2    0    0  0.16268786500E-02 -0.24234673451E-01 -0.22612521399E-02  0.24394249172E-01  0.00000000000E+00 0. -1.
     999901    1    3    3    0    0  0.27549659542E-01  0.11346620211E+00  0.86260106497E-01  0.89189369811E+00  0.88000000000E+00 0. -1.
        -11    1    4    4    0    0 -0.10722140808E-01 -0.41165715195E-01 -0.25037469872E-01  0.49363107982E-01  0.51100000000E-03 0.  1.
         11    1    4    4    0    0 -0.18454397384E-01 -0.48065813467E-01 -0.58961384485E-01  0.78278944732E-01  0.51100000000E-03 0. -1.
</event>
<event>
 8    1  0.1066842E+005  0.1043930E+01  0.7957747E-01            NaN
         13   -1    0    0    0    0  0.00000000000E+00  0.00000000000E+00  0.74505805969E-08  0.10566000000E+00  0.10566000000E+00 0. -1.
     999900   -1    0    0    0    0 -0.00000000000E+00 -0.00000000000E+00 -0.74505805969E-08  0.93827000000E+00  0.93827000000E+00 0. -1.
     999902    2    1    2    0    0 -0.17947953785E-01 -0.12156357367E-01  0.90088108404E-02  0.10204552318E+01  0.10201851868E+01 0.  0.
     999903    2    3    3    0    0 -0.85921865088E-01  0.67857991159E-01  0.71663258040E-01  0.13200245964E+00  0.17371037250E-01 0.  0.
         14    1    1    2    0    0  0.17947953785E-01  0.12156357367E-01 -0.90088108404E-02  0.23474768205E-01  0.00000000000E+00 0.  1.
     999901    1    3    3    0    0  0.67973911303E-01 -0.80014348526E-01 -0.62654447199E-01  0.88845277215E+00  0.88000000000E+00 0. -1.
        -11    1    4    4    0    0 -0.53629136686E-01  0.31840701372E-01  0.43235798507E-01  0.75891435347E-01  0.51100000000E-03 0. -1.
         11    1    4    4    0    0 -0.32292728402E-01  0.36017289787E-01  0.28427459533E-01  0.56111024298E-01  0.51100000000E-03 0.  1.
</event>
<event>
 8    1  0.1066842E+005  0.1043930E+01  0.7957747E-01            NaN
         13   -1    0    0    0    0  0.00000000000E+00  0.00000000000E+00  0.74505805969E-08  0.10566000000E+00  0.10566000000E+00 0.  1.
     999900   -1    0    0    0    0 -0.00000000000E+00 -0.00000000000E+00 -0.74505805969E-08  0.93827000000E+00  0.93827000000E+00 0.  1.
     999902    2    1    2    0    0  0.22944998467E-01 -0.58825777220E-02  0.22855178999E-02  0.10201329147E+01  0.10198553145E+01 0.  0.
     999903    2    3    3    0    0 -0.73293516060E-01  0.62662440278E-01 -0.82093687812E-01  0.12823599158E+00  0.20163705988E-01 0.  0.
         14    1    1    2    0    0 -0.22944998467E-01  0.58825777220E-02 -0.22855178999E-02  0.23797085271E-01  0.00000000000E+00 0. -1.
     999901    1    3    3    0    0  0.96238514528E-01 -0.68545018000E-01  0.84379205712E-01  0.89189692315E+00  0.88000000000E+00 0. -1.
        -11    1    4    4    0    0 -0.52299229393E-01  0.33635244226E-01 -0.58210449203E-01  0.85177793859E-01  0.51100000000E-03 0. -1.
         11    1    4    4    0    0 -0.20994286667E-01  0.29027196052E-01 -0.23883238608E-01  0.43058197718E-01  0.51100000000E-03 0.  1.
</event>
<event>
 8    1  0.1066842E+005  0.1043930E+01  0.7957747E-01            NaN
         13   -1    0    0    0    0  0.00000000000E+00  0.00000000000E+00  0.74505805969E-08  0.10566000000E+00  0.10566000000E+00 0.  1.
     999900   -1    0    0    0    0 -0.00000000000E+00 -0.00000000000E+00 -0.74505805969E-08  0.93827000000E+00  0.93827000000E+00 0. -1.
     999902    2    1    2    0    0 -0.89120117611E-02  0.14472481856E-01  0.16021371687E-01  0.10205727520E+01  0.10203054352E+01 0.  0.
     999903    2    3    3    0    0 -0.17173226079E-01  0.12086659890E+00  0.49974254587E-01  0.13347593986E+00  0.20365313067E-01 0.  0.
         14    1    1    2    0    0  0.89120117611E-02 -0.14472481856E-01 -0.16021371687E-01  0.23357248028E-01  0.00000000000E+00 0. -1.
     999901    1    3    3    0    0  0.82612143176E-02 -0.10639411704E+00 -0.33952882899E-01  0.88709681211E+00  0.88000000000E+00 0.  1.
        -11    1    4    4    0    0 -0.63383384186E-02  0.97847192587E-01  0.43161711944E-01  0.10713282471E+00  0.51100000000E-03 0.  1.
         11    1    4    4    0    0 -0.10834887660E-01  0.23019406312E-01  0.68125426427E-02  0.26343115151E-01  0.51100000000E-03 0. -1.
</event>
<event>
 8    1  0.1066842E+005  0.1043930E+01  0.7957747E-01            NaN
         13   -1    0    0    0    0  0.00000000000E+00  0.00000000000E+00  0.74505805969E-08  0.10566000000E+00  0.10566000000E+00 0. -1.
     999900   -1    0    0    0    0 -0.00000000000E+00 -0.00000000000E+00 -0.74505805969E-08  0.93827000000E+00  0.93827000000E+00 0.  1.
     999902    2    1    2    0    0 -0.76023745281E-02 -0.21247459634E-01  0.73772235227E-02  0.10201881790E+01  0.10199118817E+01 0.  0.
     999903    2    3    3    0    0  0.11855337499E+00  0.38801629045E-01  0.25842705243E-01  0.12897432123E+00  0.20150954960E-01 0.  0.
         14    1    1    2    0    0  0.76023745281E-02  0.21247459634E-01 -0.73772235227E-02  0.23741821040E-01  0.00000000000E+00 0.  1.
     999901    1    3    3    0    0 -0.12615574952E+00 -0.60049088679E-01 -0.18465481721E-01  0.89121385773E+00  0.88000000000E+00 0. -1.
        -11    1    4    4    0    0  0.87431704443E-01  0.25721596222E-01  0.27424051592E-01  0.95174803287E-01  0.51100000000E-03 0.  1.
         11    1    4    4    0    0  0.31121670546E-01  0.13080032822E-01 -0.15813463483E-02  0.33799517947E-01  0.51100000000E-03 0. -1.
</event>
<event>
 8    1  0.1066842E+005  0.1043930E+01  0.7957747E-01            NaN
         13   -1    0    0    0    0  0.00000000000E+00  0.00000000000E+00  0.74505805969E-08  0.10566000000E+00  0.10566000000E+00 0.  1.
     999900   -1    0    0    0    0 -0.00000000000E+00 -0.00000000000E+00 -0.74505805969E-08  0.93827000000E+00  0.93827000000E+00 0. -1.
     999902    2    1    2    0    0  0.13550274442E-01  0.13240469409E-01  0.13414989738E-01  0.10207161697E+01  0.10204521631E+01 0.  0.
     999903    2    3    3    0    0  0.12727993047E+00  0.26442041851E-01  0.22260538707E-01  0.13325520723E+00  0.19027779489E-01 0.  0.
         14    1    1    2    0    0 -0.13550274442E-01 -0.13240469409E-01 -0.13414989738E-01  0.23213830302E-01  0.00000000000E+00 0. -1.
     999901    1    3    3    0    0 -0.11372965603E+00 -0.13201572442E-01 -0.88455489695E-02  0.88746096247E+00  0.88000000000E+00 0. -1.
        -11    1    4    4    0    0  0.20227388310E-01  0.11169937437E-01  0.62181775363E-02  0.23934109406E-01  0.51100000000E-03 0. -1.
         11    1    4    4    0    0  0.10705254216E+00  0.15272104413E-01  0.16042361171E-01  0.10932109782E+00  0.51100000000E-03 0.  1.
</event>
<event>
 8    1  0.1066842E+005  0.1043930E+01  0.7957747E-01            NaN
         13   -1    0    0    0    0  0.00000000000E+00  0.00000000000E+00  0.74505805969E-08  0.10566000000E+00  0.10566000000E+00 0.  1.
     999900   -1    0    0    0    0 -0.00000000000E+00 -0.00000000000E+00 -0.74505805969E-08  0.93827000000E+00  0.93827000000E+00 0. -1.
     999902    2    1    2    0    0 -0.17722427996E-01 -0.99052482922E-02  0.14222951338E-01  0.10191410762E+01  0.10188395568E+01 0.  0.
     999903    2    3    3    0    0 -0.24705809792E-01 -0.69948415030E-01  0.10754471569E+00  0.13214451410E+00  0.19827983537E-01 0.  0.
         14    1    1    2    0    0  0.17722427996E-01  0.99052482922E-02 -0.14222951338E-01  0.24788923788E-01  0.00000000000E+00 0.  1.
     999901    1    3    3    0    0  0.69833817964E-02  0.60043166737E-01 -0.93321764355E-01  0.88699656211E+00  0.88000000000E+00 0. -1.
        -11    1    4    4    0    0 -0.14327128911E-01 -0.59891301730E-01  0.79211583210E-01  0.10033429464E+00  0.51100000000E-03 0.  1.
         11    1    4    4    0    0 -0.10378680882E-01 -0.10057113299E-01  0.28333132483E-01  0.31810219460E-01  0.51100000000E-03 0. -1.
</event>
<event>
 8    1  0.1066842E+005  0.1043930E+01  0.7957747E-01            NaN
         13   -1    0    0    0    0  0.00000000000E+00  0.00000000000E+00  0.74505805969E-08  0.10566000000E+00  0.10566000000E+00 0.  1.
     999900   -1    0    0    0    0 -0.00000000000E+00 -0.00000000000E+00 -0.74505805969E-08  0.93827000000E+00  0.93827000000E+00 0.  1.
     999902    2    1    2    0    0 -0.20288547415E-02 -0.24537006679E-01  0.11525441752E-02  0.10192822961E+01  0.10189842442E+01 0.  0.
     999903    2    3    3    0    0  0.10304595587E+00 -0.25117639702E-01  0.72404071878E-01  0.13017159820E+00  0.21282164104E-01 0.  0.
         14    1    1    2    0    0  0.20288547415E-02  0.24537006679E-01 -0.11525441752E-02  0.24647703877E-01  0.00000000000E+00 0. -1.
     999901    1    3    3    0    0 -0.10507481061E+00  0.58063302306E-03 -0.71251527703E-01  0.88911069792E+00  0.88000000000E+00 0.  1.
        -11    1    4    4    0    0  0.53674979063E-01 -0.18761541983E-01  0.49437700706E-01  0.75348166580E-01  0.51100000000E-03 0.  1.
         11    1    4    4    0    0  0.49370976804E-01 -0.63560977189E-02  0.22966371172E-01  0.54823431621E-01  0.51100000000E-03 0. -1.
</event>
<event>
 8    1  0.1066842E+005  0.1043930E+01  0.7957747E-01            NaN
         13   -1    0    0    0    0  0.00000000000E+00  0.00000000000E+00  0.74505805969E-08  0.10566000000E+00  0.10566000000E+00 0.  1.
     999900   -1    0    0    0    0 -0.00000000000E+00 -0.00000000000E+00 -0.74505805969E-08  0.93827000000E+00  0.93827000000E+00 0. -1.
     999902    2    1    2    0    0  0.11773095438E-01  0.12749450075E-01 -0.17501731235E-01  0.10192831980E+01  0.10189851681E+01 0.  0.
     999903    2    3    3    0    0  0.12492281684E+00  0.17174274354E-01  0.28491990913E-01  0.13083631662E+00  0.20141557394E-01 0.  0.
         14    1    1    2    0    0 -0.11773095438E-01 -0.12749450075E-01  0.17501731235E-01  0.24646802016E-01  0.00000000000E+00 0. -1.
     999901    1    3    3    0    0 -0.11314972140E+00 -0.44248242790E-02 -0.45993722148E-01  0.88844688136E+00  0.88000000000E+00 0. -1.
        -11    1    4    4    0    0  0.53322504416E-01  0.16215699615E-01  0.17294915603E-01  0.58357635472E-01  0.51100000000E-03 0.  1.
         11    1    4    4    0    0  0.71600312425E-01  0.95857473918E-03  0.11197075309E-01  0.72478681151E-01  0.51100000000E-03 0. -1.
</event>
<event>
 8    1  0.1066842E+005  0.1043930E+01  0.7957747E-01            NaN
         13   -1    0    0    0    0  0.00000000000E+00  0.00000000000E+00  0.74505805969E-08  0.10566000000E+00  0.10566000000E+00 0. -1.
     999900   -1    0    0    0    0 -0.00000000000E+00 -0.00000000000E+00 -0.74505805969E-08  0.93827000000E+00  0.93827000000E+00 0. -1.
     999902    2    1    2    0    0 -0.16878799942E-01  0.17460132867E-01 -0.18799423526E-02  0.10195725718E+01  0.10192815827E+01 0.  0.
     999903    2    3    3    0    0 -0.21816837524E-01  0.12498426762E+00  0.33028196240E-01  0.13232717058E+00  0.17960422466E-01 0.  0.
         14    1    1    2    0    0  0.16878799942E-01 -0.17460132867E-01  0.18799423526E-02  0.24357428240E-01  0.00000000000E+00 0.  1.
     999901    1    3    3    0    0  0.49380375816E-02 -0.10752413475E+00 -0.34908138593E-01  0.88724540118E+00  0.88000000000E+00 0.  1.
        -11    1    4    4    0    0 -0.53346662993E-02  0.77174095521E-01  0.23619552322E-01  0.80885376039E-01  0.51100000000E-03 0.  1.
         11    1    4    4    0    0 -0.16482171224E-01  0.47810172100E-01  0.94086439185E-02  0.51441794544E-01  0.51100000000E-03 0. -1.
</event>
<event>
 8    1  0.1066842E+005  0.1043930E+01  0.7957747E-01            NaN
         13   -1    0    0    0    0  0.00000000000E+00  0.00000000000E+00  0.74505805969E-08  0.10566000000E+00  0.10566000000E+00 0. -1.
     999900   -1    0    0    0    0 -0.00000000000E+00 -0.00000000000E+00 -0.74505805969E-08  0.93827000000E+00  0.93827000000E+00 0. -1.
     999902    2    1    2    0    0  0.33525619894E-01 -0.91912503282E-03 -0.13376451827E-01  0.10078226400E+01  0.10071756214E+01 0.  0.
     999903    2    3    3    0    0  0.37323900481E-01 -0.21057507199E-01  0.10908726036E+00  0.11910595730E+00  0.21206285248E-01 0.  0.
         14    1    1    2    0    0 -0.33525619894E-01  0.91912503282E-03  0.13376451827E-01  0.36107359964E-01  0.00000000000E+00 0. -1.
     999901    1    3    3    0    0 -0.37982805872E-02  0.20138382166E-01 -0.12246371219E+00  0.88871668274E+00  0.88000000000E+00 0. -1.
        -11    1    4    4    0    0  0.14540042507E-01  0.13236370118E-02  0.47967696755E-01  0.50143054394E-01  0.51100000000E-03 0. -1.
         11    1    4    4    0    0  0.22783857974E-01 -0.22381144210E-01  0.61119563609E-01  0.68962902905E-01  0.51100000000E-03 0.  1.
</event>
<event>
 8    1  0.1066842E+005  0.1043930E+01  0.7957747E-01            NaN
         13   -1    0    0    0    0  0.00000000000E+00  0.00000000000E+00  0.74505805969E-08  0.10566000000E+00  0.10566000000E+00 0. -1.
     999900   -1    0    0    0    0 -0.00000000000E+00 -0.00000000000E+00 -0.74505805969E-08  0.93827000000E+00  0.93827000000E+00 0.  1.
     999902    2    1    2    0    0  0.18808101561E-01 -0.55514589364E-02 -0.11730381594E-01  0.10210790649E+01  0.10208233401E+01 0.  0.
     999903    2    3    3    0    0 -0.12141522999E+00 -0.16374345631E-01 -0.37101186648E-01  0.12955038041E+00  0.19925504906E-01 0.  0.
         14    1    1    2    0    0 -0.18808101561E-01  0.55514589364E-02  0.11730381594E-01  0.22850935058E-01  0.00000000000E+00 0. -1.
     999901    1    3    3    0    0  0.14022333155E+00  0.10822886695E-01  0.25370805054E-01  0.89152868453E+00  0.88000000000E+00 0. -1.
        -11    1    4    4    0    0 -0.65739106305E-01  0.22990205265E-03 -0.15341337565E-01  0.67507782603E-01  0.51100000000E-03 0.  1.
         11    1    4    4    0    0 -0.55676123687E-01 -0.16604247684E-01 -0.21759849082E-01  0.62042597811E-01  0.51100000000E-03 0. -1.
</event>
<event>
 8    1  0.1066842E+005  0.1043930E+01  0.7957747E-01            NaN
         13   -1    0    0    0    0  0.00000000000E+00  0.00000000000E+00  0.74505805969E-08  0.10566000000E+00  0.10566000000E+00 0. -1.
     999900   -1    0    0    0    0 -0.00000000000E+00 -0.00000000000E+00 -0.74505805969E-08  0.93827000000E+00  0.93827000000E+00 0.  1.
     999902    2    1    2    0    0  0.82694951586E-02 -0.51524097529E-02  0.21696687298E-01  0.10201460113E+01  0.10198687202E+01 0.  0.
     999903    2    3    3    0    0  0.10943438615E+00  0.56900640843E-01 -0.36799957398E-01  0.13025457207E+00  0.19961184379E-01 0.  0.
         14    1    1    2    0    0 -0.82694951586E-02  0.51524097529E-02 -0.21696687298E-01  0.23783988651E-01  0.00000000000E+00 0.  1.
     999901    1    3    3    0    0 -0.10116489099E+00 -0.62053050596E-01  0.58496644697E-01  0.88989143928E+00  0.88000000000E+00 0. -1.
        -11    1    4    4    0    0  0.38036808355E-01  0.28539758541E-01 -0.20129595450E-01  0.51640859224E-01  0.51100000000E-03 0. -1.
         11    1    4    4    0    0  0.71397577791E-01  0.28360882302E-01 -0.16670361949E-01  0.78613712848E-01  0.51100000000E-03 0.  1.
</event>
<event>
 8    1  0.1066842E+005  0.1043930E+01  0.7957747E-01            NaN
         13   -1    0    0    0    0  0.00000000000E+00  0.00000000000E+00  0.74505805969E-08  0.10566000000E+00  0.10566000000E+00 0. -1.
     999900   -1    0    0    0    0 -0.00000000000E+00 -0.00000000000E+00 -0.74505805969E-08  0.93827000000E+00  0.93827000000E+00 0.  1.
     999902    2    1    2    0    0 -0.81872174448E-02  0.20139286257E-01  0.10193410156E-01  0.10199190235E+01  0.10196363507E+01 0.  0.
     999903    2    3    3    0    0  0.52825088568E-01  0.27268221242E-01 -0.11257690294E+00  0.12927550731E+00  0.22462231490E-01 0.  0.
         14    1    1    2    0    0  0.81872174448E-02 -0.20139286257E-01 -0.10193410156E-01  0.24010976470E-01  0.00000000000E+00 0. -1.
     999901    1    3    3    0    0 -0.61012306013E-01 -0.71289349848E-02  0.12277031310E+00  0.89064351622E+00  0.88000000000E+00 0. -1.
        -11    1    4    4    0    0  0.52979083957E-01  0.25252849954E-01 -0.95656003414E-01  0.11222665404E+00  0.51100000000E-03 0. -1.
         11    1    4    4    0    0 -0.15399538920E-03  0.20153712878E-02 -0.16920899527E-01  0.17048853270E-01  0.51100000000E-03 0.  1.
</event>
<event>
 8    1  0.1066842E+005  0.1043930E+01  0.7957747E-01            NaN
         13   -1    0    0    0    0  0.00000000000E+00  0.00000000000E+00  0.74505805969E-08  0.10566000000E+00  0.10566000000E+00 0. -1.
     999900   -1    0    0    0    0 -0.00000000000E+00 -0.00000000000E+00 -0.74505805969E-08  0.93827000000E+00  0.93827000000E+00 0.  1.
     999902    2    1    2    0    0  0.66061887125E-02 -0.16130900135E-02  0.22979105560E-01  0.10199657958E+01  0.10196842362E+01 0.  0.
     999903    2    3    3    0    0 -0.11189024989E+00 -0.62998718011E-01 -0.21841328015E-02  0.12954859595E+00  0.17023565587E-01 0.  0.
         14    1    1    2    0    0 -0.66061887125E-02  0.16130900135E-02 -0.22979105560E-01  0.23964204160E-01  0.00000000000E+00 0.  1.
     999901    1    3    3    0    0  0.11849643861E+00  0.61385627997E-01  0.25163238361E-01  0.89041719989E+00  0.88000000000E+00 0. -1.
        -11    1    4    4    0    0 -0.24255397421E-01 -0.20755516235E-01  0.33630576711E-02  0.32104314915E-01  0.51100000000E-03 0. -1.
         11    1    4    4    0    0 -0.87634852473E-01 -0.42243201776E-01 -0.55471904726E-02  0.97444281040E-01  0.51100000000E-03 0.  1.
</event>
<event>
 8    1  0.1066842E+005  0.1043930E+01  0.7957747E-01            NaN
         13   -1    0    0    0    0  0.00000000000E+00  0.00000000000E+00  0.74505805969E-08  0.10566000000E+00  0.10566000000E+00 0. -1.
     999900   -1    0    0    0    0 -0.00000000000E+00 -0.00000000000E+00 -0.74505805969E-08  0.93827000000E+00  0.93827000000E+00 0. -1.
     999902    2    1    2    0    0 -0.67196389607E-02 -0.14508356073E-01  0.16527094782E-01  0.10209345482E+01  0.10206755414E+01 0.  0.
     999903    2    3    3    0    0 -0.91549126612E-01  0.76509056948E-02  0.94318127842E-01  0.13316288850E+00  0.19916492990E-01 0.  0.
         14    1    1    2    0    0  0.67196389607E-02  0.14508356073E-01 -0.16527094782E-01  0.22995451846E-01  0.00000000000E+00 0.  1.
     999901    1    3    3    0    0  0.84829487652E-01 -0.22159261768E-01 -0.77791033060E-01  0.88777165965E+00  0.88000000000E+00 0. -1.
        -11    1    4    4    0    0 -0.85358481753E-01  0.22646978174E-02  0.82249449727E-01  0.11855982610E+00  0.51100000000E-03 0.  1.
         11    1    4    4    0    0 -0.61906448595E-02  0.53862078774E-02  0.12068678115E-01  0.14603062402E-01  0.51100000000E-03 0. -1.
</event>
<event>
 8    1  0.1066842E+005  0.1043930E+01  0.7957747E-01            NaN
         13   -1    0    0    0    0  0.00000000000E+00  0.00000000000E+00  0.74505805969E-08  0.10566000000E+00  0.10566000000E+00 0.  1.
     999900   -1    0    0    0    0 -0.00000000000E+00 -0.00000000000E+00 -0.74505805969E-08  0.93827000000E+00  0.93827000000E+00 0.  1.
     999902    2    1    2    0    0  0.10706315248E-01  0.14441415029E-02 -0.20861313434E-01  0.10204373388E+01  0.10201668772E+01 0.  0.
     999903    2    3    3    0    0  0.60508553478E-01 -0.70087239119E-02  0.11224583718E+00  0.12899512117E+00  0.18171573051E-01 0.  0.
         14    1    1    2    0    0 -0.10706315248E-01 -0.14441415029E-02  0.20861313434E-01  0.23492661174E-01  0.00000000000E+00 0.  1.
     999901    1    3    3    0    0 -0.49802238230E-01  0.84528654148E-02 -0.13310715062E+00  0.89144221765E+00  0.88000000000E+00 0.  1.
        -11    1    4    4    0    0  0.29987902143E-01 -0.24911940630E-02  0.73778508467E-01  0.79680673663E-01  0.51100000000E-03 0.  1.
         11    1    4    4    0    0  0.30520651334E-01 -0.45175298489E-02  0.38467328715E-01  0.49314447511E-01  0.51100000000E-03 0. -1.
</event>
<event>
 8    1  0.1066842E+005  0.1043930E+01  0.7957747E-01            NaN
         13   -1    0    0    0    0  0.00000000000E+00  0.00000000000E+00  0.74505805969E-08  0.10566000000E+00  0.10566000000E+00 0. -1.
     999900   -1    0    0    0    0 -0.00000000000E+00 -0.00000000000E+00 -0.74505805969E-08  0.93827000000E+00  0.93827000000E+00 0. -1.
     999902    2    1    2    0    0  0.16651977147E-01  0.15912858317E-01  0.69396183006E-02  0.10198745286E+01  0.10195907946E+01 0.  0.
     999903    2    3    3    0    0  0.95381615870E-02 -0.69192526257E-01 -0.10662027721E+00  0.12847709606E+00  0.16121367231E-01 0.  0.
         14    1    1    2    0    0 -0.16651977147E-01 -0.15912858317E-01 -0.69396183006E-02  0.24055471413E-01  0.00000000000E+00 0.  1.
     999901    1    3    3    0    0  0.71138155600E-02  0.85105384574E-01  0.11355989551E+00  0.89139743253E+00  0.88000000000E+00 0.  1.
        -11    1    4    4    0    0 -0.18657221936E-02 -0.18078430602E-01 -0.38260313443E-01  0.42360633589E-01  0.51100000000E-03 0.  1.
         11    1    4    4    0    0  0.11403883781E-01 -0.51114095655E-01 -0.68359963771E-01  0.86116462466E-01  0.51100000000E-03 0. -1.
</event>
<event>
 8    1  0.1066842E+005  0.1043930E+01  0.7957747E-01            NaN
         13   -1    0    0    0    0  0.00000000000E+00  0.00000000000E+00  0.74505805969E-08  0.10566000000E+00  0.10566000000E+00 0.  1.
     999900   -1    0    0    0    0 -0.00000000000E+00 -0.00000000000E+00 -0.74505805969E-08  0.93827000000E+00  0.93827000000E+00 0. -1.
     999902    2    1    2    0    0  0.19361454916E-01  0.19558869232E-01  0.27761671712E-02  0.10162691539E+01  0.10158926473E+01 0.  0.
     999903    2    3    3    0    0 -0.59153207471E-01 -0.10457260751E+00  0.22718727716E-01  0.12387300788E+00  0.19845636745E-01 0.  0.
         14    1    1    2    0    0 -0.19361454916E-01 -0.19558869232E-01 -0.27761671712E-02  0.27660846087E-01  0.00000000000E+00 0. -1.
     999901    1    3    3    0    0  0.78514662387E-01  0.12413147674E+00 -0.19942560545E-01  0.89239614603E+00  0.88000000000E+00 0. -1.
        -11    1    4    4    0    0 -0.40569382527E-01 -0.81345849163E-01  0.97684811259E-02  0.91425960860E-01  0.51100000000E-03 0.  1.
         11    1    4    4    0    0 -0.18583824944E-01 -0.23226758346E-01  0.12950246590E-01  0.32447047024E-01  0.51100000000E-03 0. -1.
</event>
<event>
 8    1  0.1066842E+005  0.1043930E+01  0.7957747E-01            NaN
         13   -1    0    0    0    0  0.00000000000E+00  0.00000000000E+00  0.74505805969E-08  0.10566000000E+00  0.10566000000E+00 0.  1.
     999900   -1    0    0    0    0 -0.00000000000E+00 -0.00000000000E+00 -0.74505805969E-08  0.93827000000E+00  0.93827000000E+00 0. -1.
     999902    2    1    2    0    0 -0.17277201958E-02  0.11662994122E-01  0.20470955313E-01  0.10203064850E+01  0.10200329666E+01 0.  0.
     999903    2    3    3    0    0 -0.10913138309E+00 -0.66071789695E-01  0.19631780046E-01  0.13037449456E+00  0.18356521307E-01 0.  0.
         14    1    1    2    0    0  0.17277201958E-02 -0.11662994122E-01 -0.20470955313E-01  0.23623514988E-01  0.00000000000E+00 0. -1.
     999901    1    3    3    0    0  0.10740366290E+00  0.77734783817E-01  0.83917526687E-03  0.88993199045E+00  0.88000000000E+00 0. -1.
        -11    1    4    4    0    0 -0.47511736424E-01 -0.24220529012E-01  0.16471989799E-01  0.55817440756E-01  0.51100000000E-03 0. -1.
         11    1    4    4    0    0 -0.61619646667E-01 -0.41851260683E-01  0.31597902471E-02  0.74557053802E-01  0.51100000000E-03 0.  1.
</event>
<event>
 8    1  0.1066842E+005  0.1043930E+01  0.7957747E-01            NaN
         13   -1    0    0    0    0  0.00000000000E+00  0.00000000000E+00  0.74505805969E-08  0.10566000000E+00  0.10566000000E+00 0.  1.
     999900   -1    0    0    0    0 -0.00000000000E+00 -0.00000000000E+00 -0.74505805969E-08  0.93827000000E+00  0.93827000000E+00 0. -1.
     999902    2    1    2    0    0  0.78904275983E-02 -0.11597591040E-01  0.19000144823E-01  0.10203128776E+01  0.10200395089E+01 0.  0.
     999903    2    3    3    0    0  0.95136552902E-02  0.12160758427E+00  0.40355374469E-01  0.13003073166E+00  0.20013014257E-01 0.  0.
         14    1    1    2    0    0 -0.78904275983E-02  0.11597591040E-01 -0.19000144823E-01  0.23617122367E-01  0.00000000000E+00 0. -1.
     999901    1    3    3    0    0 -0.16232276919E-02 -0.13320517531E+00 -0.21355229646E-01  0.89028214597E+00  0.88000000000E+00 0. -1.
        -11    1    4    4    0    0  0.68699464145E-02  0.16935613493E-01  0.14900423756E-02  0.18343732319E-01  0.51100000000E-03 0.  1.
         11    1    4    4    0    0  0.26437088756E-02  0.10467197078E+00  0.38865332094E-01  0.11168699935E+00  0.51100000000E-03 0. -1.
</event>
<event>
 8    1  0.1066842E+005  0.1043930E+01  0.7957747E-01            NaN
         13   -1    0    0    0    0  0.00000000000E+00  0.00000000000E+00  0.74505805969E-08  0.10566000000E+00  0.10566000000E+00 0.  1.
     999900   -1    0    0    0    0 -0.00000000000E+00 -0.00000000000E+00 -0.74505805969E-08  0.93827000000E+00  0.93827000000E+00 0.  1.
     999902    2    1    2    0    0  0.23331363497E-01 -0.94461541531E-02  0.65786987082E-02  0.10179134355E+01  0.10175809062E+01 0.  0.
     999903    2    3    3    0    0 -0.11675870859E+00  0.40919095194E-01 -0.13891068182E-01  0.12517556918E+00  0.12999729191E-01 0.  0.
         14    1    1    2    0    0 -0.23331363497E-01  0.94461541531E-02 -0.65786987082E-02  0.26016564485E-01  0.00000000000E+00 0. -1.
     999901    1    3    3    0    0  0.14009007209E+00 -0.50365249347E-01  0.20469766891E-01  0.89273786634E+00  0.88000000000E+00 0. -1.
        -11    1    4    4    0    0 -0.86512389849E-02  0.18288783822E-02  0.21193093857E-02  0.91072128218E-02  0.51100000000E-03 0. -1.
         11    1    4    4    0    0 -0.10810746961E+00  0.39090216812E-01 -0.16010377568E-01  0.11606835635E+00  0.51100000000E-03 0.  1.
</event>
<event>
 8    1  0.1066842E+005  0.1043930E+01  0.7957747E-01            NaN
         13   -1    0    0    0    0  0.00000000000E+00  0.00000000000E+00  0.74505805969E-08  0.10566000000E+00  0.10566000000E+00 0.  1.
     999900   -1    0    0    0    0 -0.00000000000E+00 -0.00000000000E+00 -0.74505805969E-08  0.93827000000E+00  0.93827000000E+00 0.  1.
     999902    2    1    2    0    0  0.13442589468E-01  0.96795548540E-02 -0.17460281669E-01  0.10198622118E+01  0.10195781837E+01 0.  0.
     999903    2    3    3    0    0  0.65448162574E-01  0.69771935253E-01  0.86276600405E-01  0.13021227247E+00  0.18973644640E-01 0.  0.
         14    1    1    2    0    0 -0.13442589468E-01 -0.96795548540E-02  0.17460281669E-01  0.24067788218E-01  0.00000000000E+00 0.  1.
     999901    1    3    3    0    0 -0.52005573106E-01 -0.60092380399E-01 -0.10373688207E+00  0.88964993931E+00  0.88000000000E+00 0.  1.
        -11    1    4    4    0    0  0.50305102837E-01  0.52756914202E-01  0.75700217997E-01  0.10509367009E+00  0.51100000000E-03 0. -1.
         11    1    4    4    0    0  0.15143059737E-01  0.17015021051E-01  0.10576382408E-01  0.25118602378E-01  0.51100000000E-03 0.  1.
</event>
<event>
 8    1  0.1066842E+005  0.1043930E+01  0.7957747E-01            NaN
         13   -1    0    0    0    0  0.00000000000E+00  0.00000000000E+00  0.74505805969E-08  0.10566000000E+00  0.10566000000E+00 0. -1.
     999900   -1    0    0    0    0 -0.00000000000E+00 -0.00000000000E+00 -0.74505805969E-08  0.93827000000E+00  0.93827000000E+00 0. -1.
     999902    2    1    2    0    0  0.52517619830E-02  0.19151810298E-01  0.11076550645E-01  0.10211909847E+01  0.10209377868E+01 0.  0.
     999903    2    3    3    0    0 -0.37015133307E-01  0.93896545224E-01  0.85645123042E-01  0.13387270033E+00  0.20003287049E-01 0.  0.
         14    1    1    2    0    0 -0.52517619830E-02 -0.19151810298E-01 -0.11076550645E-01  0.22739015277E-01  0.00000000000E+00 0.  1.
     999901    1    3    3    0    0  0.42266895290E-01 -0.74744734926E-01 -0.74568572398E-01  0.88731828440E+00  0.88000000000E+00 0. -1.
        -11    1    4    4    0    0 -0.18802405170E-01  0.57099141993E-01  0.62576819952E-01  0.86775353487E-01  0.51100000000E-03 0.  1.
         11    1    4    4    0    0 -0.18212728136E-01  0.36797403231E-01  0.23068303090E-01  0.47097346838E-01  0.51100000000E-03 0. -1.
</event>
<event>
 8    1  0.1066842E+005  0.1043930E+01  0.7957747E-01            NaN
         13   -1    0    0    0    0  0.00000000000E+00  0.00000000000E+00  0.74505805969E-08  0.10566000000E+00  0.10566000000E+00 0. -1.
     999900   -1    0    0    0    0 -0.00000000000E+00 -0.00000000000E+00 -0.74505805969E-08  0.93827000000E+00  0.93827000000E+00 0. -1.
     999902    2    1    2    0    0 -0.15215012845E-01  0.80570369153E-02 -0.16462640606E-01  0.10201091899E+01  0.10198310293E+01 0.  0.
     999903    2    3    3    0    0  0.12155344769E+00  0.35839458337E-01  0.10490378597E-01  0.12870359196E+00  0.19871062422E-01 0.  0.
         14    1    1    2    0    0  0.15215012845E-01 -0.80570369153E-02  0.16462640606E-01  0.23820810134E-01  0.00000000000E+00 0. -1.
     999901    1    3    3    0    0 -0.13676846053E+00 -0.27782421422E-01 -0.26953019202E-01  0.89140559791E+00  0.88000000000E+00 0. -1.
        -11    1    4    4    0    0  0.37615680766E-01  0.73148193937E-02  0.11607298284E-01  0.40042933418E-01  0.51100000000E-03 0.  1.
         11    1    4    4    0    0  0.83937766919E-01  0.28524638943E-01 -0.11169196867E-02  0.88660658541E-01  0.51100000000E-03 0. -1.
</event>
<event>
 8    1  0.1066842E+005  0.1043930E+01  0.7957747E-01            NaN
         13   -1    0    0    0    0  0.00000000000E+00  0.00000000000E+00  0.74505805969E-08  0.10566000000E+00  0.10566000000E+00 0.  1.
     999900   -1    0    0    0    0 -0.00000000000E+00 -0.00000000000E+00 -0.74505805969E-08  0.93827000000E+00  0.93827000000E+00 0.  1.
     999902    2    1    2    0    0 -0.22586885945E-02 -0.18945225118E-01  0.13534076874E-01  0.10205378119E+01  0.10202696854E+01 0.  0.
     999903    2    3    3    0    0 -0.69518922554E-02 -0.20430452720E-01 -0.12614753463E+00  0.12950740573E+00  0.19830164980E-01 0.  0.
         14    1    1    2    0    0  0.22586885945E-02  0.18945225118E-01 -0.13534076874E-01  0.23392188135E-01  0.00000000000E+00 0. -1.
     999901    1    3    3    0    0  0.46932036609E-02  0.14852276024E-02  0.13968161150E+00  0.89103040613E+00  0.88000000000E+00 0. -1.
        -11    1    4    4    0    0 -0.11165620341E-01 -0.21556715005E-01 -0.11479578957E+00  0.11733583197E+00  0.51100000000E-03 0. -1.
         11    1    4    4    0    0  0.42137280860E-02  0.11262622851E-02 -0.11351745057E-01  0.12171573767E-01  0.51100000000E-03 0.  1.
</event>
<event>
 8    1  0.1066842E+005  0.1043930E+01  0.7957747E-01            NaN
         13   -1    0    0    0    0  0.00000000000E+00  0.00000000000E+00  0.74505805969E-08  0.10566000000E+00  0.10566000000E+00 0. -1.
     999900   -1    0    0    0    0 -0.00000000000E+00 -0.00000000000E+00 -0.74505805969E-08  0.93827000000E+00  0.93827000000E+00 0.  1.
     999902    2    1    2    0    0 -0.45042761470E-02  0.92761241134E-02 -0.24781740950E-01  0.10170884340E+01  0.10167341899E+01 0.  0.
     999903    2    3    3    0    0 -0.63980174851E-01 -0.59658993392E-01 -0.93657298425E-01  0.12971406238E+00  0.20034723940E-01 0.  0.
         14    1    1    2    0    0  0.45042761470E-02 -0.92761241134E-02  0.24781740950E-01  0.26841566026E-01  0.00000000000E+00 0. -1.
     999901    1    3    3    0    0  0.59475898704E-01  0.68935117505E-01  0.68875557475E-01  0.88737437160E+00  0.88000000000E+00 0. -1.
        -11    1    4    4    0    0 -0.99217519359E-02 -0.20900548529E-01 -0.26665674903E-01  0.35307130007E-01  0.51100000000E-03 0. -1.
         11    1    4    4    0    0 -0.54058422915E-01 -0.38758444863E-01 -0.66991623523E-01  0.94406932369E-01  0.51100000000E-03 0.  1.
</event>
<event>
 8    1  0.1066842E+005  0.1043930E+01  0.7957747E-01            NaN
         13   -1    0    0    0    0  0.00000000000E+00  0.00000000000E+00  0.74505805969E-08  0.10566000000E+00  0.10566000000E+00 0. -1.
     999900   -1    0    0    0    0 -0.00000000000E+00 -0.00000000000E+00 -0.74505805969E-08  0.93827000000E+00  0.93827000000E+00 0. -1.
     999902    2    1    2    0    0  0.27326384808E-03  0.11650455512E-02  0.25936505711E-01  0.10179659030E+01  0.10176347308E+01 0.  0.
     999903    2    3    3    0    0 -0.59160502556E-01  0.90960208856E-01  0.69514566302E-01  0.13033163637E+00  0.19502201221E-01 0.  0.
         14    1    1    2    0    0 -0.27326384808E-03 -0.11650455512E-02 -0.25936505711E-01  0.25964096995E-01  0.00000000000E+00 0.  1.
     999901    1    3    3    0    0  0.59433766404E-01 -0.89795163305E-01 -0.43578060591E-01  0.88763426664E+00  0.88000000000E+00 0. -1.
        -11    1    4    4    0    0 -0.31898850516E-01  0.37717510560E-01  0.22670919948E-01  0.54354199464E-01  0.51100000000E-03 0.  1.
         11    1    4    4    0    0 -0.27261652039E-01  0.53242698296E-01  0.46843646354E-01  0.75977436904E-01  0.51100000000E-03 0. -1.
</event>
<event>
 8    1  0.1066842E+005  0.1043930E+01  0.7957747E-01            NaN
         13   -1    0    0    0    0  0.00000000000E+00  0.00000000000E+00  0.74505805969E-08  0.10566000000E+00  0.10566000000E+00 0.  1.
     999900   -1    0    0    0    0 -0.00000000000E+00 -0.00000000000E+00 -0.74505805969E-08  0.93827000000E+00  0.93827000000E+00 0.  1.
     999902    2    1    2    0    0 -0.76321093032E-02 -0.21933781824E-01 -0.30897570219E-03  0.10207042526E+01  0.10204399717E+01 0.  0.
     999903    2    3    3    0    0 -0.94093999423E-01 -0.32055586536E-01 -0.84951191440E-01  0.13236737162E+00  0.20571212596E-01 0.  0.
         14    1    1    2    0    0  0.76321093032E-02  0.21933781824E-01  0.30897570219E-03  0.23225747426E-01  0.00000000000E+00 0.  1.
     999901    1    3    3    0    0  0.86461890120E-01  0.10121804712E-01  0.84642215738E-01  0.88833688095E+00  0.88000000000E+00 0.  1.
        -11    1    4    4    0    0 -0.30901687132E-02 -0.38522072029E-02 -0.99258043944E-02  0.11098259183E-01  0.51100000000E-03 0. -1.
         11    1    4    4    0    0 -0.91003830710E-01 -0.28203379333E-01 -0.75025387046E-01  0.12126911244E+00  0.51100000000E-03 0.  1.
</event>
<event>
 8    1  0.1066842E+005  0.1043930E+01  0.7957747E-01            NaN
         13   -1    0    0    0    0  0.00000000000E+00  0.00000000000E+00  0.74505805969E-08  0.10566000000E+00  0.10566000000E+00 0.  1.
     999900   -1    0    0    0    0 -0.00000000000E+00 -0.00000000000E+00 -0.74505805969E-08  0.93827000000E+00  0.93827000000E+00 0. -1.
     999902    2    1    2    0    0 -0.24282091330E-01 -0.11370671889E-02  0.13784775327E-02  0.10195822469E+01  0.10192914917E+01 0.  0.
     999903    2    3    3    0    0 -0.45586634855E-01 -0.25019256112E-01 -0.11855570202E+00  0.13087056702E+00  0.19171499079E-01 0.  0.
         14    1    1    2    0    0  0.24282091330E-01  0.11370671889E-02 -0.13784775327E-02  0.24347753109E-01  0.00000000000E+00 0. -1.
     999901    1    3    3    0    0  0.21304543525E-01  0.23882188923E-01  0.11993417955E+00  0.88871167988E+00  0.88000000000E+00 0. -1.
        -11    1    4    4    0    0 -0.61993428786E-03 -0.65327274176E-02 -0.18282399405E-01  0.19431111524E-01  0.51100000000E-03 0. -1.
         11    1    4    4    0    0 -0.44966700567E-01 -0.18486528694E-01 -0.10027330261E+00  0.11143945549E+00  0.51100000000E-03 0.  1.
</event>
<event>
 8    1  0.1066842E+005  0.1043930E+01  0.7957747E-01            NaN
         13   -1    0    0    0    0  0.00000000000E+00  0.00000000000E+00  0.74505805969E-08  0.10566000000E+00  0.10566000000E+00 0.  1.
     999900   -1    0    0    0    0 -0.00000000000E+00 -0.00000000000E+00 -0.74505805969E-08  0.93827000000E+00  0.93827000000E+00 0. -1.
     999902    2    1    2    0    0  0.13119939897E-01 -0.19501525090E-01  0.69474897025E-02  0.10194206157E+01  0.10191259401E+01 0.  0.
     999903    2    3    3    0    0  0.10931599938E-01  0.11690616984E+00  0.46988454070E-01  0.12800874298E+00  0.19793206872E-01 0.  0.
         14    1    1    2    0    0 -0.13119939897E-01  0.19501525090E-01 -0.69474897025E-02  0.24509384262E-01  0.00000000000E+00 0. -1.
     999901    1    3    3    0    0  0.21883399587E-02 -0.13640769493E+00 -0.40040964367E-01  0.89141187276E+00  0.88000000000E+00 0. -1.
        -11    1    4    4    0    0  0.22096833658E-02  0.76650525111E-01  0.21789692784E-01  0.79719743683E-01  0.51100000000E-03 0.  1.
         11    1    4    4    0    0  0.87219165724E-02  0.40255644733E-01  0.25198761286E-01  0.48288999295E-01  0.51100000000E-03 0. -1.
</event>
<event>
 8    1  0.1066842E+005  0.1043930E+01  0.7957747E-01            NaN
         13   -1    0    0    0    0  0.00000000000E+00  0.00000000000E+00  0.74505805969E-08  0.10566000000E+00  0.10566000000E+00 0. -1.
     999900   -1    0    0    0    0 -0.00000000000E+00 -0.00000000000E+00 -0.74505805969E-08  0.93827000000E+00  0.93827000000E+00 0.  1.
     999902    2    1    2    0    0 -0.11037832863E-01  0.16996233324E-01  0.11393860269E-01  0.10206807903E+01  0.10204159690E+01 0.  0.
     999903    2    3    3    0    0  0.48871356491E-01  0.68483416251E-01  0.10048793224E+00  0.13266176196E+00  0.20565280782E-01 0.  0.
         14    1    1    2    0    0  0.11037832863E-01 -0.16996233324E-01 -0.11393860269E-01  0.23249209737E-01  0.00000000000E+00 0. -1.
     999901    1    3    3    0    0 -0.59909189355E-01 -0.51487182926E-01 -0.89094071967E-01  0.88801902831E+00  0.88000000000E+00 0.  1.
        -11    1    4    4    0    0  0.17494231497E-01  0.30958217036E-01  0.57131465360E-01  0.67295800708E-01  0.51100000000E-03 0.  1.
         11    1    4    4    0    0  0.31377124994E-01  0.37525199214E-01  0.43356466876E-01  0.65365961248E-01  0.51100000000E-03 0. -1.
</event>
<event>
 8    1  0.1066842E+005  0.1043930E+01  0.7957747E-01            NaN
         13   -1    0    0    0    0  0.00000000000E+00  0.00000000000E+00  0.74505805969E-08  0.10566000000E+00  0.10566000000E+00 0. -1.
     999900   -1    0    0    0    0 -0.00000000000E+00 -0.00000000000E+00 -0.74505805969E-08  0.93827000000E+00  0.93827000000E+00 0. -1.
     999902    2    1    2    0    0  0.22536711383E-01 -0.54386116124E-03 -0.78947764255E-02  0.10200443005E+01  0.10197646044E+01 0.  0.
     999903    2    3    3    0    0 -0.61665173813E-01  0.52201764382E-01  0.97530180132E-01  0.12819987465E+00  0.19886024191E-01 0.  0.
         14    1    1    2    0    0 -0.22536711383E-01  0.54386116124E-03  0.78947764255E-02  0.23885699481E-01  0.00000000000E+00 0. -1.
     999901    1    3    3    0    0  0.84201885196E-01 -0.52745625543E-01 -0.10542495656E+00  0.89184442587E+00  0.88000000000E+00 0.  1.
        -11    1    4    4    0    0 -0.31677335769E-01  0.21055600852E-01  0.32104194757E-01  0.49776825638E-01  0.51100000000E-03 0. -1.
         11    1    4    4    0    0 -0.29987838044E-01  0.31146163531E-01  0.65425985376E-01  0.78423049014E-01  0.51100000000E-03 0.  1.
</event>
<event>
 8    1  0.1066842E+005  0.1043930E+01  0.7957747E-01            NaN
         13   -1    0    0    0    0  0.00000000000E+00  0.00000000000E+00  0.74505805969E-08  0.10566000000E+00  0.10566000000E+00 0.  1.
     999900   -1    0    0    0    0 -0.00000000000E+00 -0.00000000000E+00 -0.74505805969E-08  0.93827000000E+00  0.93827000000E+00 0.  1.
     999902    2    1    2    0    0  0.92495138580E-03 -0.14876656586E-01 -0.20451062806E-01  0.10186235499E+01  0.10183091476E+01 0.  0.
     999903    2    3    3    0    0 -0.92919635438E-01  0.85461117369E-01 -0.97980042118E-03  0.12775116544E+00  0.19538142951E-01 0.  0.
         14    1    1    2    0    0 -0.92495138580E-03  0.14876656586E-01  0.20451062806E-01  0.25306450090E-01  0.00000000000E+00 0.  1.
     999901    1    3    3    0    0  0.93844586823E-01 -0.10033777395E+00 -0.19471262385E-01  0.89087238447E+00  0.88000000000E+00 0.  1.
        -11    1    4    4    0    0 -0.53268659283E-01  0.49471026006E-01 -0.10201501331E-01  0.73411608253E-01  0.51100000000E-03 0. -1.
         11    1    4    4    0    0 -0.39650976155E-01  0.35990091363E-01  0.92217009100E-02  0.54339557185E-01  0.51100000000E-03 0.  1.
</event>
<event>
 8    1  0.1066842E+005  0.1043930E+01  0.7957747E-01            NaN
         13   -1    0    0    0    0  0.00000000000E+00  0.00000000000E+00  0.74505805969E-08  0.10566000000E+00  0.10566000000E+00 0. -1.
     999900   -1    0    0    0    0 -0.00000000000E+00 -0.00000000000E+00 -0.74505805969E-08  0.93827000000E+00  0.93827000000E+00 0. -1.
     999902    2    1    2    0    0 -0.23134751210E-01  0.28045024117E-02 -0.44978314125E-02  0.10201957961E+01  0.10199196782E+01 0.  0.
     999903    2    3    3    0    0  0.53244192816E-01 -0.17819386114E-02 -0.11648025545E+00  0.12980552109E+00  0.21064283106E-01 0.  0.
         14    1    1    2    0    0  0.23134751210E-01 -0.28045024117E-02  0.44978314125E-02  0.23734203900E-01  0.00000000000E+00 0. -1.
     999901    1    3    3    0    0 -0.76378944026E-01  0.45864410231E-02  0.11198242404E+00  0.89039027501E+00  0.88000000000E+00 0.  1.
        -11    1    4    4    0    0  0.77100633618E-02  0.51350904688E-03 -0.40185261866E-01  0.40924627803E-01  0.51100000000E-03 0. -1.
         11    1    4    4    0    0  0.45534129454E-01 -0.22954476583E-02 -0.76294993585E-01  0.88880893291E-01  0.51100000000E-03 0.  1.
</event>
<event>
 8    1  0.1066842E+005  0.1043930E+01  0.7957747E-01            NaN
         13   -1    0    0    0    0  0.00000000000E+00  0.00000000000E+00  0.74505805969E-08  0.10566000000E+00  0.10566000000E+00 0.  1.
     999900   -1    0    0    0    0 -0.00000000000E+00 -0.00000000000E+00 -0.74505805969E-08  0.93827000000E+00  0.93827000000E+00 0.  1.
     999902    2    1    2    0    0 -0.48242057276E-02 -0.14919702201E-01 -0.17384155033E-01  0.10205189060E+01  0.10202503410E+01 0.  0.
     999903    2    3    3    0    0 -0.84111399663E-01 -0.81934079274E-01  0.55492520410E-01  0.13142476271E+00  0.20127780135E-01 0.  0.
         14    1    1    2    0    0  0.48242057276E-02  0.14919702201E-01  0.17384155033E-01  0.23411093970E-01  0.00000000000E+00 0.  1.
     999901    1    3    3    0    0  0.79287193935E-01  0.67014377073E-01 -0.72876675442E-01  0.88909414332E+00  0.88000000000E+00 0. -1.
        -11    1    4    4    0    0 -0.41650729659E-01 -0.51552717816E-01  0.24228884043E-01  0.70567456652E-01  0.51100000000E-03 0. -1.
         11    1    4    4    0    0 -0.42460670004E-01 -0.30381361458E-01  0.31263636367E-01  0.60857306062E-01  0.51100000000E-03 0.  1.
</event>
<event>
 8    1  0.1066842E+005  0.1043930E+01  0.7957747E-01            NaN
         13   -1    0    0    0    0  0.00000000000E+00  0.00000000000E+00  0.74505805969E-08  0.10566000000E+00  0.10566000000E+00 0.  1.
     999900   -1    0    0    0    0 -0.00000000000E+00 -0.00000000000E+00 -0.74505805969E-08  0.93827000000E+00  0.93827000000E+00 0.  1.
     999902    2    1    2    0    0  0.12332176635E-01 -0.18905139641E-01 -0.75582331914E-02  0.10201263496E+01  0.10198485943E+01 0.  0.
     999903    2    3    3    0    0 -0.10812939432E+00 -0.12067400571E-01  0.67301278644E-01  0.12874444977E+00  0.14425088121E-01 0.  0.
         14    1    1    2    0    0 -0.12332176635E-01  0.18905139641E-01  0.75582331914E-02  0.23803650442E-01  0.00000000000E+00 0. -1.
     999901    1    3    3    0    0  0.12046157096E+00 -0.68377390708E-02 -0.74859511835E-01  0.89138189979E+00  0.88000000000E+00 0.  1.
        -11    1    4    4    0    0 -0.33187253379E-01 -0.10261615036E-01  0.23054277543E-01  0.41694788212E-01  0.51100000000E-03 0. -1.
         11    1    4    4    0    0 -0.74942140941E-01 -0.18057855343E-02  0.44247001101E-01  0.87049661560E-01  0.51100000000E-03 0.  1.
</event>
<event>
 8    1  0.1066842E+005  0.1043930E+01  0.7957747E-01            NaN
         13   -1    0    0    0    0  0.00000000000E+00  0.00000000000E+00  0.74505805969E-08  0.10566000000E+00  0.10566000000E+00 0. -1.
     999900   -1    0    0    0    0 -0.00000000000E+00 -0.00000000000E+00 -0.74505805969E-08  0.93827000000E+00  0.93827000000E+00 0.  1.
     999902    2    1    2    0    0  0.84814553435E-02  0.28325292073E-01  0.42310408586E-02  0.10140609698E+01  0.10136209802E+01 0.  0.
     999903    2    3    3    0    0  0.46057070237E-03  0.34975268600E-01  0.11992873252E+00  0.12642674752E+00  0.19425243006E-01 0.  0.
         14    1    1    2    0    0 -0.84814553435E-02 -0.28325292073E-01 -0.42310408586E-02  0.29869030157E-01  0.00000000000E+00 0.  1.
     999901    1    3    3    0    0  0.80208846411E-02 -0.66499765272E-02 -0.11569769166E+00  0.88763422232E+00  0.88000000000E+00 0.  1.
        -11    1    4    4    0    0  0.34526098622E-02  0.34892965953E-01  0.94127175014E-01  0.10044712930E+00  0.51100000000E-03 0.  1.
         11    1    4    4    0    0 -0.29920391599E-02  0.82302646538E-04  0.25801557508E-01  0.25979618221E-01  0.51100000000E-03 0. -1.
</event>
<event>
 8    1  0.1066842E+005  0.1043930E+01  0.7957747E-01            NaN
         13   -1    0    0    0    0  0.00000000000E+00  0.00000000000E+00  0.74505805969E-08  0.10566000000E+00  0.10566000000E+00 0. -1.
     999900   -1    0    0    0    0 -0.00000000000E+00 -0.00000000000E+00 -0.74505805969E-08  0.93827000000E+00  0.93827000000E+00 0. -1.
     999902    2    1    2    0    0  0.12937604611E-01  0.10041231575E-01  0.16694187513E-01  0.10205440247E+01  0.10202760423E+01 0.  0.
     999903    2    3    3    0    0 -0.70964983077E-01 -0.10474799862E+00  0.18759172659E-01  0.12912915172E+00  0.17727358127E-01 0.  0.
         14    1    1    2    0    0 -0.12937604611E-01 -0.10041231575E-01 -0.16694187513E-01  0.23385975313E-01  0.00000000000E+00 0. -1.
     999901    1    3    3    0    0  0.83902587688E-01  0.11478923020E+00 -0.20649851464E-02  0.89141487297E+00  0.88000000000E+00 0.  1.
        -11    1    4    4    0    0 -0.16702453879E-01 -0.33037786618E-01 -0.10788321527E-02  0.37039064649E-01  0.51100000000E-03 0.  1.
         11    1    4    4    0    0 -0.54262529197E-01 -0.71710212002E-01  0.19838004812E-01  0.92090087068E-01  0.51100000000E-03 0. -1.
</event>
<event>
 8    1  0.1066842E+005  0.1043930E+01  0.7957747E-01            NaN
         13   -1    0    0    0    0  0.00000000000E+00  0.00000000000E+00  0.74505805969E-08  0.10566000000E+00  0.10566000000E+00 0.  1.
     999900   -1    0    0    0    0 -0.00000000000E+00 -0.00000000000E+00 -0.74505805969E-08  0.93827000000E+00  0.93827000000E+00 0.  1.
     999902    2    1    2    0    0  0.15445761937E-01 -0.17251431388E-01 -0.61961193591E-02  0.10199596988E+01  0.10196779941E+01 0.  0.
     999903    2    3    3    0    0 -0.18666817340E-01 -0.48607715718E-01 -0.11919603520E+00  0.13152519604E+00  0.19494160392E-01 0.  0.
         14    1    1    2    0    0 -0.15445761937E-01  0.17251431388E-01  0.61961193591E-02  0.23970301247E-01  0.00000000000E+00 0.  1.
     999901    1    3    3    0    0  0.34112579277E-01  0.31356284330E-01  0.11299991584E+00  0.88843450271E+00  0.88000000000E+00 0. -1.
        -11    1    4    4    0    0 -0.33861607421E-02 -0.34574909425E-01 -0.70724278473E-01  0.78797684819E-01  0.51100000000E-03 0. -1.
         11    1    4    4    0    0 -0.15280656597E-01 -0.14032806294E-01 -0.48471756725E-01  0.52727511221E-01  0.51100000000E-03 0.  1.
</event>
<event>
 8    1  0.1066842E+005  0.1043930E+01  0.7957747E-01            NaN
         13   -1    0    0    0    0  0.00000000000E+00  0.00000000000E+00  0.74505805969E-08  0.10566000000E+00  0.10566000000E+00 0.  1.
     999900   -1    0    0    0    0 -0.00000000000E+00 -0.00000000000E+00 -0.74505805969E-08  0.93827000000E+00  0.93827000000E+00 0.  1.
     999902    2    1    2    0    0  0.91570765945E-02 -0.16250492039E-01  0.13850193882E-01  0.10206972986E+01  0.10204328577E+01 0.  0.
     999903    2    3    3    0    0 -0.88857790621E-01 -0.79632375834E-01 -0.49550678888E-01  0.13072884521E+00  0.19943393781E-01 0.  0.
         14    1    1    2    0    0 -0.91570765945E-02  0.16250492039E-01 -0.13850193882E-01  0.23232701389E-01  0.00000000000E+00 0. -1.
     999901    1    3    3    0    0  0.98014867215E-01  0.63381883795E-01  0.63400872770E-01  0.88996845341E+00  0.88000000000E+00 0. -1.
        -11    1    4    4    0    0 -0.45786493355E-01 -0.53646559954E-01 -0.31985344989E-01  0.77444688544E-01  0.51100000000E-03 0.  1.
         11    1    4    4    0    0 -0.43071297266E-01 -0.25985815880E-01 -0.17565333899E-01  0.53284156661E-01  0.51100000000E-03 0. -1.
</event>
<event>
 8    1  0.1066842E+005  0.1043930E+01  0.7957747E-01            NaN
         13   -1    0    0    0    0  0.00000000000E+00  0.00000000000E+00  0.74505805969E-08  0.10566000000E+00  0.10566000000E+00 0. -1.
     999900   -1    0    0    0    0 -0.00000000000E+00 -0.00000000000E+00 -0.74505805969E-08  0.93827000000E+00  0.93827000000E+00 0.  1.
     999902    2    1    2    0    0 -0.37450176560E-02 -0.13474464081E-03  0.25558188199E-01  0.10180985405E+01  0.10177707866E+01 0.  0.
     999903    2    3    3    0    0  0.55220756093E-01  0.11017406287E+00  0.33602852950E-01  0.12921738307E+00  0.19501905766E-01 0.  0.
         14    1    1    2    0    0  0.37450176560E-02  0.13474464081E-03 -0.25558188199E-01  0.25831459451E-01  0.00000000000E+00 0.  1.
     999901    1    3    3    0    0 -0.58965773749E-01 -0.11030880751E+00 -0.80446647514E-02  0.88888115748E+00  0.88000000000E+00 0.  1.
        -11    1    4    4    0    0  0.16359458784E-01  0.27442704653E-01  0.17411848180E-01  0.36389112499E-01  0.51100000000E-03 0.  1.
         11    1    4    4    0    0  0.38861297309E-01  0.82731358217E-01  0.16191004770E-01  0.92828270572E-01  0.51100000000E-03 0. -1.
</event>
<event>
 8    1  0.1066842E+005  0.1043930E+01  0.7957747E-01            NaN
         13   -1    0    0    0    0  0.00000000000E+00  0.00000000000E+00  0.74505805969E-08  0.10566000000E+00  0.10566000000E+00 0. -1.
     999900   -1    0    0    0    0 -0.00000000000E+00 -0.00000000000E+00 -0.74505805969E-08  0.93827000000E+00  0.93827000000E+00 0.  1.
     999902    2    1    2    0    0  0.20583873329E-01 -0.10162023923E-01  0.71100741871E-02  0.10198984431E+01  0.10196152797E+01 0.  0.
     999903    2    3    3    0    0 -0.11286874902E+00  0.40250098173E-01 -0.37752702045E-01  0.12728225843E+00  0.20398085487E-01 0.  0.
         14    1    1    2    0    0 -0.20583873329E-01  0.10162023923E-01 -0.71100741871E-02  0.24031556886E-01  0.00000000000E+00 0.  1.
     999901    1    3    3    0    0  0.13345262235E+00 -0.50412122096E-01  0.44862776232E-01  0.89261618468E+00  0.88000000000E+00 0. -1.
        -11    1    4    4    0    0 -0.23870263054E-01  0.41546417053E-02 -0.41320169308E-03  0.24238035453E-01  0.51100000000E-03 0. -1.
         11    1    4    4    0    0 -0.88998485966E-01  0.36095456468E-01 -0.37339500352E-01  0.10304422298E+00  0.51100000000E-03 0.  1.
</event>
<event>
 8    1  0.1066842E+005  0.1043930E+01  0.7957747E-01            NaN
         13   -1    0    0    0    0  0.00000000000E+00  0.00000000000E+00  0.74505805969E-08  0.10566000000E+00  0.10566000000E+00 0. -1.
     999900   -1    0    0    0    0 -0.00000000000E+00 -0.00000000000E+00 -0.74505805969E-08  0.93827000000E+00  0.93827000000E+00 0.  1.
     999902    2    1    2    0    0 -0.10513877299E-01  0.21969335611E-03 -0.19765299485E-01  0.10215412317E+01  0.10212958588E+01 0.  0.
     999903    2    3    3    0    0 -0.49718563122E-01  0.11893704783E+00 -0.23104209986E-01  0.13269818261E+00  0.21378640822E-01 0.  0.
         14    1    1    2    0    0  0.10513877299E-01 -0.21969335611E-03  0.19765299485E-01  0.22388768272E-01  0.00000000000E+00 0. -1.
     999901    1    3    3    0    0  0.39204685823E-01 -0.11871735447E+00  0.33389105016E-02  0.88884304912E+00  0.88000000000E+00 0. -1.
        -11    1    4    4    0    0 -0.17767059841E-01  0.44193587397E-01  0.18383361211E-02  0.47669509994E-01  0.51100000000E-03 0.  1.
         11    1    4    4    0    0 -0.31951503281E-01  0.74743460432E-01 -0.24942546108E-01  0.85028672615E-01  0.51100000000E-03 0. -1.
</event>
<event>
 8    1  0.1066842E+005  0.1043930E+01  0.7957747E-01            NaN
         13   -1    0    0    0    0  0.00000000000E+00  0.00000000000E+00  0.74505805969E-08  0.10566000000E+00  0.10566000000E+00 0. -1.
     999900   -1    0    0    0    0 -0.00000000000E+00 -0.00000000000E+00 -0.74505805969E-08  0.93827000000E+00  0.93827000000E+00 0. -1.
     999902    2    1    2    0    0 -0.12531721850E-01 -0.16255624912E-01  0.76740848661E-02  0.10220169680E+01  0.10217820227E+01 0.  0.
     999903    2    3    3    0    0 -0.28870805267E-01  0.34013168120E-01 -0.12168208713E+00  0.13099119033E+00  0.19019532445E-01 0.  0.
         14    1    1    2    0    0  0.12531721850E-01  0.16255624912E-01 -0.76740848661E-02  0.21913032021E-01  0.00000000000E+00 0. -1.
     999901    1    3    3    0    0  0.16339083418E-01 -0.50268793032E-01  0.12935617199E+00  0.89102577765E+00  0.88000000000E+00 0.  1.
        -11    1    4    4    0    0 -0.31048249556E-01  0.29380173473E-01 -0.10090818345E+00  0.10958973949E+00  0.51100000000E-03 0.  1.
         11    1    4    4    0    0  0.21774442885E-02  0.46329946467E-02 -0.20773903675E-01  0.21401450837E-01  0.51100000000E-03 0. -1.
</event>
<event>
 8    1  0.1066842E+005  0.1043930E+01  0.7957747E-01            NaN
         13   -1    0    0    0    0  0.00000000000E+00  0.00000000000E+00  0.74505805969E-08  0.10566000000E+00  0.10566000000E+00 0.  1.
     999900   -1    0    0    0    0 -0.00000000000E+00 -0.00000000000E+00 -0.74505805969E-08  0.93827000000E+00  0.93827000000E+00 0. -1.
     999902    2    1    2    0    0 -0.20178240162E-01 -0.97949559895E-02  0.55180705668E-02  0.10208312632E+01  0.10205698978E+01 0.  0.
     999903    2    3    3    0    0  0.90879963985E-01  0.47406629988E-01 -0.74785492649E-01  0.12838820708E+00  0.19598606762E-01 0.  0.
         14    1    1    2    0    0  0.20178240162E-01  0.97949559895E-02 -0.55180705668E-02  0.23098736798E-01  0.00000000000E+00 0. -1.
     999901    1    3    3    0    0 -0.11105820415E+00 -0.57201585977E-01  0.80303563216E-01  0.89244305612E+00  0.88000000000E+00 0. -1.
        -11    1    4    4    0    0  0.65812570674E-01  0.43592756899E-01 -0.54792534372E-01  0.96094255066E-01  0.51100000000E-03 0.  1.
         11    1    4    4    0    0  0.25067393310E-01  0.38138730889E-02 -0.19992958277E-01  0.32293952019E-01  0.51100000000E-03 0. -1.
</event>
<event>
 8    1  0.1066842E+005  0.1043930E+01  0.7957747E-01            NaN
         13   -1    0    0    0    0  0.00000000000E+00  0.00000000000E+00  0.74505805969E-08  0.10566000000E+00  0.10566000000E+00 0. -1.
     999900   -1    0    0    0    0 -0.00000000000E+00 -0.00000000000E+00 -0.74505805969E-08  0.93827000000E+00  0.93827000000E+00 0. -1.
     999902    2    1    2    0    0 -0.21718089114E-01  0.62872820454E-02 -0.62148731507E-02  0.10204815468E+01  0.10202121139E+01 0.  0.
     999903    2    3    3    0    0  0.11834356400E-01 -0.50042675524E-01 -0.11879710432E+00  0.13088973617E+00  0.19366199312E-01 0.  0.
         14    1    1    2    0    0  0.21718089114E-01 -0.62872820454E-02  0.62148731507E-02  0.23448453223E-01  0.00000000000E+00 0.  1.
     999901    1    3    3    0    0 -0.33552445514E-01  0.56329957569E-01  0.11258223117E+00  0.88959181060E+00  0.88000000000E+00 0.  1.
        -11    1    4    4    0    0  0.16692682672E-01 -0.35739122675E-01 -0.92456310347E-01  0.10052045060E+00  0.51100000000E-03 0. -1.
         11    1    4    4    0    0 -0.48583262720E-02 -0.14303552848E-01 -0.26340793971E-01  0.30369285574E-01  0.51100000000E-03 0.  1.
</event>
<event>
 8    1  0.1179022E+005  0.1043930E+01  0.7957747E-01            NaN
         13   -1    0    0    0    0  0.00000000000E+00  0.00000000000E+00  0.74505805969E-08  0.10566000000E+00  0.10566000000E+00 0. -1.
     999900   -1    0    0    0    0 -0.00000000000E+00 -0.00000000000E+00 -0.74505805969E-08  0.93827000000E+00  0.93827000000E+00 0. -1.
     999902    2    1    2    0    0  0.55921402715E-02 -0.16654471958E-01  0.15758298161E-01  0.10203298426E+01  0.10200568711E+01 0.  0.
     999903    2    3    3    0    0  0.54925586404E-01 -0.82354455136E-01 -0.83857238857E-01  0.13090669700E+00  0.17477141839E-01 0.  0.
         14    1    1    2    0    0 -0.55921402715E-02  0.16654471958E-01 -0.15758298161E-01  0.23600157414E-01  0.00000000000E+00 0. -1.
     999901    1    3    3    0    0 -0.49333446133E-01  0.65699983178E-01  0.99615537019E-01  0.88942314559E+00  0.88000000000E+00 0.  1.
        -11    1    4    4    0    0  0.20154451876E-01 -0.45320369238E-01 -0.44587553457E-01  0.66696692891E-01  0.51100000000E-03 0. -1.
         11    1    4    4    0    0  0.34771134528E-01 -0.37034085898E-01 -0.39269685401E-01  0.64210004105E-01  0.51100000000E-03 0.  1.
</event>
<event>
 8    1  0.1066842E+005  0.1043930E+01  0.7957747E-01            NaN
         13   -1    0    0    0    0  0.00000000000E+00  0.00000000000E+00  0.74505805969E-08  0.10566000000E+00  0.10566000000E+00 0. -1.
     999900   -1    0    0    0    0 -0.00000000000E+00 -0.00000000000E+00 -0.74505805969E-08  0.93827000000E+00  0.93827000000E+00 0.  1.
     999902    2    1    2    0    0  0.12784393028E-01  0.12263052043E-01  0.15284950281E-01  0.10205322895E+01  0.10202640350E+01 0.  0.
     999903    2    3    3    0    0  0.10453246197E+00  0.79562302950E-01  0.11074569275E-01  0.13319660071E+00  0.19012961406E-01 0.  0.
         14    1    1    2    0    0 -0.12784393028E-01 -0.12263052043E-01 -0.15284950281E-01  0.23397710477E-01  0.00000000000E+00 0.  1.
     999901    1    3    3    0    0 -0.91748068939E-01 -0.67299250907E-01  0.42103810061E-02  0.88733568881E+00  0.88000000000E+00 0. -1.
        -11    1    4    4    0    0  0.63896551515E-01  0.38243567314E-01  0.10750283068E-01  0.75240743241E-01  0.51100000000E-03 0.  1.
         11    1    4    4    0    0  0.40635910451E-01  0.41318735636E-01  0.32428620691E-03  0.57955857472E-01  0.51100000000E-03 0. -1.
</event>
<event>
 8    1  0.1066842E+005  0.1043930E+01  0.7957747E-01            NaN
         13   -1    0    0    0    0  0.00000000000E+00  0.00000000000E+00  0.74505805969E-08  0.10566000000E+00  0.10566000000E+00 0. -1.
     999900   -1    0    0    0    0 -0.00000000000E+00 -0.00000000000E+00 -0.74505805969E-08  0.93827000000E+00  0.93827000000E+00 0.  1.
     999902    2    1    2    0    0 -0.70815265180E-03  0.22115471113E-01 -0.77926175897E-02  0.10204710906E+01  0.10202014146E+01 0.  0.
     999903    2    3    3    0    0  0.99603868372E-01  0.76816846678E-01 -0.37874307839E-01  0.13257489724E+00  0.17885235660E-01 0.  0.
         14    1    1    2    0    0  0.70815265180E-03 -0.22115471113E-01  0.77926175897E-02  0.23458909430E-01  0.00000000000E+00 0. -1.
     999901    1    3    3    0    0 -0.10031202102E+00 -0.54701375565E-01  0.30081690249E-01  0.88789619333E+00  0.88000000000E+00 0. -1.
        -11    1    4    4    0    0  0.52467702823E-01  0.30116305615E-01 -0.21738854310E-01  0.64286006340E-01  0.51100000000E-03 0.  1.
         11    1    4    4    0    0  0.47136165549E-01  0.46700541062E-01 -0.16135453529E-01  0.68288890895E-01  0.51100000000E-03 0. -1.
</event>
<event>
 8    1  0.1066842E+005  0.1043930E+01  0.7957747E-01            NaN
         13   -1    0    0    0    0  0.00000000000E+00  0.00000000000E+00  0.74505805969E-08  0.10566000000E+00  0.10566000000E+00 0.  1.
     999900   -1    0    0    0    0 -0.00000000000E+00 -0.00000000000E+00 -0.74505805969E-08  0.93827000000E+00  0.93827000000E+00 0. -1.
     999902    2    1    2    0    0  0.84518067705E-02 -0.43264825776E-02 -0.21960344274E-01  0.10200049460E+01  0.10197243165E+01 0.  0.
     999903    2    3    3    0    0  0.88704706523E-01  0.74236580338E-01  0.55226031836E-01  0.12951608056E+00  0.18571637327E-01 0.  0.
         14    1    1    2    0    0 -0.84518067705E-02  0.43264825776E-02  0.21960344274E-01  0.23925054019E-01  0.00000000000E+00 0.  1.
     999901    1    3    3    0    0 -0.80252899752E-01 -0.78563062915E-01 -0.77186376110E-01  0.89048886542E+00  0.88000000000E+00 0. -1.
        -11    1    4    4    0    0  0.14634031037E-01  0.11401052725E-01  0.16881277830E-01  0.25087397829E-01  0.51100000000E-03 0. -1.
         11    1    4    4    0    0  0.74070675486E-01  0.62835527613E-01  0.38344754006E-01  0.10442868274E+00  0.51100000000E-03 0.  1.
</event>
<event>
 8    1  0.1066842E+005  0.1043930E+01  0.7957747E-01            NaN
         13   -1    0    0    0    0  0.00000000000E+00  0.00000000000E+00  0.74505805969E-08  0.10566000000E+00  0.10566000000E+00 0.  1.
     999900   -1    0    0    0    0 -0.00000000000E+00 -0.00000000000E+00 -0.74505805969E-08  0.93827000000E+00  0.93827000000E+00 0.  1.
     999902    2    1    2    0    0 -0.49349405585E-02 -0.13693158604E-01 -0.18885671974E-01  0.10200862411E+01  0.10198075380E+01 0.  0.
     999903    2    3    3    0    0  0.12535437780E+00  0.11192764199E-01 -0.26909999809E-01  0.13010927207E+00  0.19112210375E-01 0.  0.
         14    1    1    2    0    0  0.49349405585E-02  0.13693158604E-01  0.18885671974E-01  0.23843758864E-01  0.00000000000E+00 0.  1.
     999901    1    3    3    0    0 -0.13028931836E+00 -0.24885922804E-01  0.80243278349E-02  0.88997696907E+00  0.88000000000E+00 0. -1.
        -11    1    4    4    0    0  0.10532987499E-01  0.88811334271E-03 -0.80416257163E-02  0.13291404596E-01  0.51100000000E-03 0. -1.
         11    1    4    4    0    0  0.11482139030E+00  0.10304650856E-01 -0.18868374092E-01  0.11681786747E+00  0.51100000000E-03 0.  1.
</event>
<event>
 8    1  0.1066842E+005  0.1043930E+01  0.7957747E-01            NaN
         13   -1    0    0    0    0  0.00000000000E+00  0.00000000000E+00  0.74505805969E-08  0.10566000000E+00  0.10566000000E+00 0.  1.
     999900   -1    0    0    0    0 -0.00000000000E+00 -0.00000000000E+00 -0.74505805969E-08  0.93827000000E+00  0.93827000000E+00 0. -1.
     999902    2    1    2    0    0  0.21099881899E-01 -0.19572291599E-02  0.10499558099E-01  0.10202809729E+01  0.10200068564E+01 0.  0.
     999903    2    3    3    0    0 -0.11211858920E+00 -0.51255583035E-01  0.30975908370E-01  0.12865505939E+00  0.19872205981E-01 0.  0.
         14    1    1    2    0    0 -0.21099881899E-01  0.19572291599E-02 -0.10499558099E-01  0.23649027092E-01  0.00000000000E+00 0. -1.
     999901    1    3    3    0    0  0.13321847110E+00  0.49298353875E-01 -0.20476350271E-01  0.89162591352E+00  0.88000000000E+00 0. -1.
        -11    1    4    4    0    0 -0.67020497836E-01 -0.20712014623E-01  0.21467860534E-01  0.73361194353E-01  0.51100000000E-03 0. -1.
         11    1    4    4    0    0 -0.45098091365E-01 -0.30543568411E-01  0.95080478359E-02  0.55293865037E-01  0.51100000000E-03 0.  1.
</event>
<event>
 8    1  0.1066842E+005  0.1043930E+01  0.7957747E-01            NaN
         13   -1    0    0    0    0  0.00000000000E+00  0.00000000000E+00  0.74505805969E-08  0.10566000000E+00  0.10566000000E+00 0.  1.
     999900   -1    0    0    0    0 -0.00000000000E+00 -0.00000000000E+00 -0.74505805969E-08  0.93827000000E+00  0.93827000000E+00 0. -1.
     999902    2    1    2    0    0 -0.59527208247E-02 -0.55690561166E-02  0.21180520227E-01  0.10212349849E+01  0.10209827769E+01 0.  0.
     999903    2    3    3    0    0  0.10560615323E+00 -0.73614124996E-01 -0.13346921865E-01  0.13091613305E+00  0.19728014882E-01 0.  0.
         14    1    1    2    0    0  0.59527208247E-02  0.55690561166E-02 -0.21180520227E-01  0.22695015055E-01  0.00000000000E+00 0. -1.
     999901    1    3    3    0    0 -0.11155887405E+00  0.68045068880E-01  0.34527442093E-01  0.89031885189E+00  0.88000000000E+00 0.  1.
        -11    1    4    4    0    0  0.97577520376E-01 -0.61329568103E-01 -0.90032197631E-02  0.11560280054E+00  0.51100000000E-03 0.  1.
         11    1    4    4    0    0  0.80286328528E-02 -0.12284556893E-01 -0.43437021020E-02  0.15313332508E-01  0.51100000000E-03 0. -1.
</event>
<event>
 8    1  0.1066842E+005  0.1043930E+01  0.7957747E-01            NaN
         13   -1    0    0    0    0  0.00000000000E+00  0.00000000000E+00  0.74505805969E-08  0.10566000000E+00  0.10566000000E+00 0. -1.
     999900   -1    0    0    0    0 -0.00000000000E+00 -0.00000000000E+00 -0.74505805969E-08  0.93827000000E+00  0.93827000000E+00 0.  1.
     999902    2    1    2    0    0  0.97326148633E-02  0.19356700771E-01 -0.90769605857E-02  0.10204396430E+01  0.10201692351E+01 0.  0.
     999903    2    3    3    0    0  0.81586122833E-01  0.15714085894E-01 -0.10172885659E+00  0.13265556507E+00  0.18587919373E-01 0.  0.
         14    1    1    2    0    0 -0.97326148633E-02 -0.19356700771E-01  0.90769605857E-02  0.23490356964E-01  0.00000000000E+00 0.  1.
     999901    1    3    3    0    0 -0.71853507970E-01  0.36426148772E-02  0.92651896008E-01  0.88778407796E+00  0.88000000000E+00 0. -1.
        -11    1    4    4    0    0  0.56558438488E-01  0.50008705448E-02 -0.58188601769E-01  0.81302153522E-01  0.51100000000E-03 0.  1.
         11    1    4    4    0    0  0.25027684345E-01  0.10713215349E-01 -0.43540254825E-01  0.51353411551E-01  0.51100000000E-03 0. -1.
</event>
<event>
 8    1  0.1066842E+005  0.1043930E+01  0.7957747E-01            NaN
         13   -1    0    0    0    0  0.00000000000E+00  0.00000000000E+00  0.74505805969E-08  0.10566000000E+00  0.10566000000E+00 0.  1.
     999900   -1    0    0    0    0 -0.00000000000E+00 -0.00000000000E+00 -0.74505805969E-08  0.93827000000E+00  0.93827000000E+00 0. -1.
     999902    2    1    2    0    0  0.78273489457E-02 -0.22387472903E-01  0.21123773610E-02  0.10201197402E+01  0.10198418288E+01 0.  0.
     999903    2    3    3    0    0  0.44763661894E-01  0.11808030653E+00 -0.65805480841E-02  0.12817184079E+00  0.20927803093E-01 0.  0.
         14    1    1    2    0    0 -0.78273489457E-02  0.22387472903E-01 -0.21123773610E-02  0.23810259818E-01  0.00000000000E+00 0. -1.
     999901    1    3    3    0    0 -0.36936312948E-01 -0.14046777943E+00  0.86929254451E-02  0.89194789939E+00  0.88000000000E+00 0. -1.
        -11    1    4    4    0    0  0.87505145208E-02  0.44983118063E-01  0.39801245524E-02  0.46001683964E-01  0.51100000000E-03 0.  1.
         11    1    4    4    0    0  0.36013147373E-01  0.73097188468E-01 -0.10560672636E-01  0.82170156828E-01  0.51100000000E-03 0. -1.
</event>
<event>
 8    1  0.1066842E+005  0.1043930E+01  0.7957747E-01            NaN
         13   -1    0    0    0    0  0.00000000000E+00  0.00000000000E+00  0.74505805969E-08  0.10566000000E+00  0.10566000000E+00 0.  1.
     999900   -1    0    0    0    0 -0.00000000000E+00 -0.00000000000E+00 -0.74505805969E-08  0.93827000000E+00  0.93827000000E+00 0. -1.
     999902    2    1    2    0    0  0.20799702554E-01  0.42490047414E-02  0.25741800539E-02  0.10225452374E+01  0.10223216003E+01 0.  0.
     999903    2    3    3    0    0 -0.12296194830E+00  0.35374837831E-01 -0.94274554959E-02  0.13025589590E+00  0.22510033697E-01 0.  0.
         14    1    1    2    0    0 -0.20799702554E-01 -0.42490047414E-02 -0.25741800539E-02  0.21384762580E-01  0.00000000000E+00 0.  1.
     999901    1    3    3    0    0  0.14376165085E+00 -0.31125833090E-01  0.12001635550E-01  0.89228934152E+00  0.88000000000E+00 0.  1.
        -11    1    4    4    0    0 -0.78028589145E-01  0.32819561074E-01 -0.10026574218E-01  0.85243050301E-01  0.51100000000E-03 0. -1.
         11    1    4    4    0    0 -0.44933359155E-01  0.25552767571E-02  0.59911872168E-03  0.45012845594E-01  0.51100000000E-03 0.  1.
</event>
<event>
 8    1  0.1066842E+005  0.1043930E+01  0.7957747E-01            NaN
         13   -1    0    0    0    0  0.00000000000E+00  0.00000000000E+00  0.74505805969E-08  0.10566000000E+00  0.10566000000E+00 0.  1.
     999900   -1    0    0    0    0 -0.00000000000E+00 -0.00000000000E+00 -0.74505805969E-08  0.93827000000E+00  0.93827000000E+00 0. -1.
     999902    2    1    2    0    0 -0.68906916874E-02  0.45430849650E-02  0.22514535320E-01  0.10199503096E+01  0.10196683816E+01 0.  0.
     999903    2    3    3    0    0  0.69565336858E-01 -0.92508337747E-01  0.57345234135E-01  0.13063727101E+00  0.19506205540E-01 0.  0.
         14    1    1    2    0    0  0.68906916874E-02 -0.45430849650E-02 -0.22514535320E-01  0.23979690440E-01  0.00000000000E+00 0. -1.
     999901    1    3    3    0    0 -0.76456028545E-01  0.97051422712E-01 -0.34830698815E-01  0.88931303855E+00  0.88000000000E+00 0. -1.
        -11    1    4    4    0    0  0.22412354018E-01 -0.17476845406E-01  0.18232418263E-01  0.33770341051E-01  0.51100000000E-03 0. -1.
         11    1    4    4    0    0  0.47152982840E-01 -0.75031492341E-01  0.39112815872E-01  0.96866929961E-01  0.51100000000E-03 0.  1.
</event>
<event>
 8    1  0.1066842E+005  0.1043930E+01  0.7957747E-01            NaN
         13   -1    0    0    0    0  0.00000000000E+00  0.00000000000E+00  0.74505805969E-08  0.10566000000E+00  0.10566000000E+00 0.  1.
     999900   -1    0    0    0    0 -0.00000000000E+00 -0.00000000000E+00 -0.74505805969E-08  0.93827000000E+00  0.93827000000E+00 0.  1.
     999902    2    1    2    0    0  0.22064153722E-01 -0.16636126198E-02  0.77158256397E-02  0.10204965100E+01  0.10202274249E+01 0.  0.
     999903    2    3    3    0    0  0.91540157326E-02  0.87617303072E-01  0.95715546735E-01  0.13151861128E+00  0.19367277165E-01 0.  0.
         14    1    1    2    0    0 -0.22064153722E-01  0.16636126198E-02 -0.77158256397E-02  0.23433489960E-01  0.00000000000E+00 0.  1.
     999901    1    3    3    0    0  0.12910137989E-01 -0.89280915691E-01 -0.87999721095E-01  0.88897789876E+00  0.88000000000E+00 0.  1.
        -11    1    4    4    0    0 -0.57046148604E-02  0.30040693524E-01  0.36161829583E-01  0.47359528480E-01  0.51100000000E-03 0.  1.
         11    1    4    4    0    0  0.14858630593E-01  0.57576609548E-01  0.59553717152E-01  0.84159082800E-01  0.51100000000E-03 0. -1.
</event>
<event>
 8    1  0.1066842E+005  0.1043930E+01  0.7957747E-01            NaN
         13   -1    0    0    0    0  0.00000000000E+00  0.00000000000E+00  0.74505805969E-08  0.10566000000E+00  0.10566000000E+00 0.  1.
     999900   -1    0    0    0    0 -0.00000000000E+00 -0.00000000000E+00 -0.74505805969E-08  0.93827000000E+00  0.93827000000E+00 0. -1.
     999902    2    1    2    0    0  0.34553698507E-02  0.13473345226E-01 -0.22311953988E-01  0.10176375314E+01  0.10172978185E+01 0.  0.
     999903    2    3    3    0    0  0.39634062978E-01  0.10554250211E+00 -0.63835184424E-01  0.13112198947E+00  0.20198184402E-01 0.  0.
         14    1    1    2    0    0 -0.34553698507E-02 -0.13473345226E-01  0.22311953988E-01  0.26292468563E-01  0.00000000000E+00 0. -1.
     999901    1    3    3    0    0 -0.36178693127E-01 -0.92069156880E-01  0.41523230436E-01  0.88651554197E+00  0.88000000000E+00 0. -1.
        -11    1    4    4    0    0  0.22837879859E-01  0.63326635497E-01 -0.26632946450E-01  0.72397558504E-01  0.51100000000E-03 0.  1.
         11    1    4    4    0    0  0.16796183119E-01  0.42215866609E-01 -0.37202237973E-01  0.58724430965E-01  0.51100000000E-03 0. -1.
</event>
<event>
 8    1  0.1066842E+005  0.1043930E+01  0.7957747E-01            NaN
         13   -1    0    0    0    0  0.00000000000E+00  0.00000000000E+00  0.74505805969E-08  0.10566000000E+00  0.10566000000E+00 0. -1.
     999900   -1    0    0    0    0 -0.00000000000E+00 -0.00000000000E+00 -0.74505805969E-08  0.93827000000E+00  0.93827000000E+00 0. -1.
     999902    2    1    2    0    0 -0.17126787159E-01 -0.28354543178E-02  0.16316130411E-01  0.10201060047E+01  0.10198277688E+01 0.  0.
     999903    2    3    3    0    0 -0.10022926206E+00 -0.71163264213E-01 -0.42288833269E-01  0.13161894645E+00  0.20617625940E-01 0.  0.
         14    1    1    2    0    0  0.17126787159E-01  0.28354543178E-02 -0.16316130411E-01  0.23823995281E-01  0.00000000000E+00 0.  1.
     999901    1    3    3    0    0  0.83102474901E-01  0.68327809896E-01  0.58604963680E-01  0.88848705827E+00  0.88000000000E+00 0.  1.
        -11    1    4    4    0    0 -0.83640760560E-01 -0.57768078958E-01 -0.42775540677E-01  0.11028570068E+00  0.51100000000E-03 0.  1.
         11    1    4    4    0    0 -0.16588501499E-01 -0.13395185255E-01  0.48670740756E-03  0.21333245771E-01  0.51100000000E-03 0. -1.
</event>
<event>
 8    1  0.1066842E+005  0.1043930E+01  0.7957747E-01            NaN
         13   -1    0    0    0    0  0.00000000000E+00  0.00000000000E+00  0.74505805969E-08  0.10566000000E+00  0.10566000000E+00 0. -1.
     999900   -1    0    0    0    0 -0.00000000000E+00 -0.00000000000E+00 -0.74505805969E-08  0.93827000000E+00  0.93827000000E+00 0.  1.
     999902    2    1    2    0    0  0.17731056437E-02  0.10067444683E-01  0.21253707735E-01  0.10203457375E+01  0.10200731378E+01 0.  0.
     999903    2    3    3    0    0 -0.95695644158E-02  0.36264409303E-01 -0.12113695255E+00  0.12844325556E+00  0.20416284715E-01 0.  0.
         14    1    1    2    0    0 -0.17731056437E-02 -0.10067444683E-01 -0.21253707735E-01  0.23584262519E-01  0.00000000000E+00 0. -1.
     999901    1    3    3    0    0  0.11342670059E-01 -0.26196964620E-01  0.14239066028E+00  0.89190248192E+00  0.88000000000E+00 0. -1.
        -11    1    4    4    0    0 -0.12897102814E-01  0.31347323176E-01 -0.80138223033E-01  0.87013710662E-01  0.51100000000E-03 0.  1.
         11    1    4    4    0    0  0.33275383985E-02  0.49170861270E-02 -0.40998729514E-01  0.41429544899E-01  0.51100000000E-03 0. -1.
</event>
<event>
 8    1  0.1066842E+005  0.1043930E+01  0.7957747E-01            NaN
         13   -1    0    0    0    0  0.00000000000E+00  0.00000000000E+00  0.74505805969E-08  0.10566000000E+00  0.10566000000E+00 0.  1.
     999900   -1    0    0    0    0 -0.00000000000E+00 -0.00000000000E+00 -0.74505805969E-08  0.93827000000E+00  0.93827000000E+00 0.  1.
     999902    2    1    2    0    0  0.29493656217E-02 -0.20117296400E-01  0.12167828252E-01  0.10202348440E+01  0.10199596446E+01 0.  0.
     999903    2    3    3    0    0  0.78035562861E-01 -0.12804324906E-01 -0.10150321275E+00  0.12972233871E+00  0.16476745899E-01 0.  0.
         14    1    1    2    0    0 -0.29493656217E-02  0.20117296400E-01 -0.12167828252E-01  0.23695155969E-01  0.00000000000E+00 0. -1.
     999901    1    3    3    0    0 -0.75086197239E-01 -0.73129714943E-02  0.11367104100E+00  0.89051250532E+00  0.88000000000E+00 0. -1.
        -11    1    4    4    0    0  0.71675216074E-01 -0.81342658781E-02 -0.85453626101E-01  0.11183061395E+00  0.51100000000E-03 0. -1.
         11    1    4    4    0    0  0.63603467864E-02 -0.46700590274E-02 -0.16049586647E-01  0.17891724766E-01  0.51100000000E-03 0.  1.
</event>
<event>
 8    1  0.1066842E+005  0.1043930E+01  0.7957747E-01            NaN
         13   -1    0    0    0    0  0.00000000000E+00  0.00000000000E+00  0.74505805969E-08  0.10566000000E+00  0.10566000000E+00 0.  1.
     999900   -1    0    0    0    0 -0.00000000000E+00 -0.00000000000E+00 -0.74505805969E-08  0.93827000000E+00  0.93827000000E+00 0.  1.
     999902    2    1    2    0    0  0.18062184608E-01  0.38514777150E-02 -0.14359943257E-01  0.10205358904E+01  0.10202677194E+01 0.  0.
     999903    2    3    3    0    0 -0.56977894546E-02 -0.12669157361E+00  0.20736539059E-01  0.12989691322E+00  0.18973254436E-01 0.  0.
         14    1    1    2    0    0 -0.18062184608E-01 -0.38514777150E-02  0.14359943257E-01  0.23394109595E-01  0.00000000000E+00 0.  1.
     999901    1    3    3    0    0  0.23759974062E-01  0.13054305132E+00 -0.35096482317E-01  0.89063897719E+00  0.88000000000E+00 0.  1.
        -11    1    4    4    0    0  0.41440676248E-03 -0.58031320769E-01  0.43777855493E-03  0.58036701270E-01  0.51100000000E-03 0.  1.
         11    1    4    4    0    0 -0.61121962171E-02 -0.68660252836E-01  0.20298760504E-01  0.71860211947E-01  0.51100000000E-03 0. -1.
</event>
<event>
 8    1  0.1066842E+005  0.1043930E+01  0.7957747E-01            NaN
         13   -1    0    0    0    0  0.00000000000E+00  0.00000000000E+00  0.74505805969E-08  0.10566000000E+00  0.10566000000E+00 0.  1.
     999900   -1    0    0    0    0 -0.00000000000E+00 -0.00000000000E+00 -0.74505805969E-08  0.93827000000E+00  0.93827000000E+00 0. -1.
     999902    2    1    2    0    0 -0.11296874358E-01  0.15470928063E-01 -0.13751241655E-01  0.10203489561E+01  0.10200764317E+01 0.  0.
     999903    2    3    3    0    0  0.91356843235E-01 -0.85521453265E-01  0.18537691702E-01  0.12805986501E+00  0.19891989300E-01 0.  0.
         14    1    1    2    0    0  0.11296874358E-01 -0.15470928063E-01  0.13751241655E-01  0.23581043922E-01  0.00000000000E+00 0.  1.
     999901    1    3    3    0    0 -0.10265371759E+00  0.10099238133E+00 -0.32288933357E-01  0.89228909107E+00  0.88000000000E+00 0.  1.
        -11    1    4    4    0    0  0.10950498873E-01 -0.16474527217E-01 -0.26868913072E-02  0.19970077077E-01  0.51100000000E-03 0.  1.
         11    1    4    4    0    0  0.80406344362E-01 -0.69046926048E-01  0.21224583009E-01  0.10808978793E+00  0.51100000000E-03 0. -1.
</event>
<event>
 8    1  0.1066842E+005  0.1043930E+01  0.7957747E-01            NaN
         13   -1    0    0    0    0  0.00000000000E+00  0.00000000000E+00  0.74505805969E-08  0.10566000000E+00  0.10566000000E+00 0. -1.
     999900   -1    0    0    0    0 -0.00000000000E+00 -0.00000000000E+00 -0.74505805969E-08  0.93827000000E+00  0.93827000000E+00 0. -1.
     999902    2    1    2    0    0  0.13389264823E-01  0.21398940968E-01 -0.11871168027E-01  0.10160353461E+01  0.10156523582E+01 0.  0.
     999903    2    3    3    0    0  0.91513602401E-01  0.46903136623E-01  0.73511619415E-01  0.12809159983E+00  0.20708841291E-01 0.  0.
         14    1    1    2    0    0 -0.13389264823E-01 -0.21398940968E-01  0.11871168027E-01  0.27894653920E-01  0.00000000000E+00 0. -1.
     999901    1    3    3    0    0 -0.78124337579E-01 -0.25504195655E-01 -0.85382787441E-01  0.88794374625E+00  0.88000000000E+00 0. -1.
        -11    1    4    4    0    0  0.56286375913E-01  0.17362773965E-01  0.40203106949E-01  0.71317409954E-01  0.51100000000E-03 0. -1.
         11    1    4    4    0    0  0.35227226488E-01  0.29540362658E-01  0.33308512466E-01  0.56774189873E-01  0.51100000000E-03 0.  1.
</event>
<event>
 8    1  0.1066842E+005  0.1043930E+01  0.7957747E-01            NaN
         13   -1    0    0    0    0  0.00000000000E+00  0.00000000000E+00  0.74505805969E-08  0.10566000000E+00  0.10566000000E+00 0. -1.
     999900   -1    0    0    0    0 -0.00000000000E+00 -0.00000000000E+00 -0.74505805969E-08  0.93827000000E+00  0.93827000000E+00 0. -1.
     999902    2    1    2    0    0  0.17596965561E-03  0.22985339544E-01  0.85229072319E-03  0.10209281914E+01  0.10206690398E+01 0.  0.
     999903    2    3    3    0    0 -0.75915203491E-01  0.10177386918E+00 -0.35520834059E-01  0.13339199313E+00  0.20264639395E-01 0.  0.
         14    1    1    2    0    0 -0.17596965561E-03 -0.22985339544E-01 -0.85229072319E-03  0.23001808597E-01  0.00000000000E+00 0. -1.
     999901    1    3    3    0    0  0.76091173147E-01 -0.78788529640E-01  0.36373124782E-01  0.88753619827E+00  0.88000000000E+00 0. -1.
        -11    1    4    4    0    0 -0.60382017894E-01  0.76017399524E-01 -0.18501685281E-01  0.98829178863E-01  0.51100000000E-03 0.  1.
         11    1    4    4    0    0 -0.15533185597E-01  0.25756469660E-01 -0.17019148778E-01  0.34562814270E-01  0.51100000000E-03 0. -1.
</event>
<event>
 8    1  0.1066842E+005  0.1043930E+01  0.7957747E-01            NaN
         13   -1    0    0    0    0  0.00000000000E+00  0.00000000000E+00  0.74505805969E-08  0.10566000000E+00  0.10566000000E+00 0. -1.
     999900   -1    0    0    0    0 -0.00000000000E+00 -0.00000000000E+00 -0.74505805969E-08  0.93827000000E+00  0.93827000000E+00 0. -1.
     999902    2    1    2    0    0 -0.22003596894E-01  0.96335794603E-02 -0.19455561627E-02  0.10198312590E+01  0.10195464911E+01 0.  0.
     999903    2    3    3    0    0 -0.50209098538E-01  0.12050305810E+00 -0.73918153923E-02  0.13240957041E+00  0.20873782948E-01 0.  0.
         14    1    1    2    0    0  0.22003596894E-01 -0.96335794603E-02  0.19455561627E-02  0.24098741010E-01  0.00000000000E+00 0. -1.
     999901    1    3    3    0    0  0.28205501645E-01 -0.11086947864E+00  0.54462592296E-02  0.88742168858E+00  0.88000000000E+00 0. -1.
        -11    1    4    4    0    0 -0.44933741945E-01  0.84005939817E-01 -0.70176152909E-02  0.95527729666E-01  0.51100000000E-03 0. -1.
         11    1    4    4    0    0 -0.52753565932E-02  0.36497118284E-01 -0.37420010144E-03  0.36881840747E-01  0.51100000000E-03 0.  1.
</event>
<event>
 8    1  0.1066842E+005  0.1043930E+01  0.7957747E-01            NaN
         13   -1    0    0    0    0  0.00000000000E+00  0.00000000000E+00  0.74505805969E-08  0.10566000000E+00  0.10566000000E+00 0. -1.
     999900   -1    0    0    0    0 -0.00000000000E+00 -0.00000000000E+00 -0.74505805969E-08  0.93827000000E+00  0.93827000000E+00 0.  1.
     999902    2    1    2    0    0  0.54264370306E-02  0.38654734033E-02  0.22538028187E-01  0.10204278550E+01  0.10201571725E+01 0.  0.
     999903    2    3    3    0    0 -0.51986983691E-01  0.71117613202E-01  0.97392197375E-01  0.13283431189E+00  0.19983816570E-01 0.  0.
         14    1    1    2    0    0 -0.54264370306E-02 -0.38654734033E-02 -0.22538028187E-01  0.23502144967E-01  0.00000000000E+00 0.  1.
     999901    1    3    3    0    0  0.57413420722E-01 -0.67252139799E-01 -0.74854169187E-01  0.88759354314E+00  0.88000000000E+00 0.  1.
        -11    1    4    4    0    0 -0.41280074084E-01  0.64506994839E-01  0.75293771752E-01  0.10739930207E+00  0.51100000000E-03 0.  1.
         11    1    4    4    0    0 -0.10706909607E-01  0.66106183633E-02  0.22098425623E-01  0.25435009819E-01  0.51100000000E-03 0. -1.
</event>
<event>
 8    1  0.1066842E+005  0.1043930E+01  0.7957747E-01            NaN
         13   -1    0    0    0    0  0.00000000000E+00  0.00000000000E+00  0.74505805969E-08  0.10566000000E+00  0.10566000000E+00 0. -1.
     999900   -1    0    0    0    0 -0.00000000000E+00 -0.00000000000E+00 -0.74505805969E-08  0.93827000000E+00  0.93827000000E+00 0.  1.
     999902    2    1    2    0    0 -0.14138830337E-01  0.82792362337E-02  0.15667362567E-01  0.10212602288E+01  0.10210085878E+01 0.  0.
     999903    2    3    3    0    0 -0.48502760661E-01  0.11446731380E+00 -0.41785011535E-01  0.13235215549E+00  0.17771385793E-01 0.  0.
         14    1    1    2    0    0  0.14138830337E-01 -0.82792362337E-02 -0.15667362567E-01  0.22669771188E-01  0.00000000000E+00 0.  1.
     999901    1    3    3    0    0  0.34363930323E-01 -0.10618807757E+00  0.57452374102E-01  0.88890807332E+00  0.88000000000E+00 0. -1.
        -11    1    4    4    0    0 -0.25922503056E-01  0.39817552870E-01 -0.18062855153E-01  0.50832485071E-01  0.51100000000E-03 0.  1.
         11    1    4    4    0    0 -0.22580257605E-01  0.74649760933E-01 -0.23722156382E-01  0.81519670420E-01  0.51100000000E-03 0. -1.
</event>
<event>
 8    1  0.1066842E+005  0.1043930E+01  0.7957747E-01            NaN
         13   -1    0    0    0    0  0.00000000000E+00  0.00000000000E+00  0.74505805969E-08  0.10566000000E+00  0.10566000000E+00 0.  1.
     999900   -1    0    0    0    0 -0.00000000000E+00 -0.00000000000E+00 -0.74505805969E-08  0.93827000000E+00  0.93827000000E+00 0. -1.
     999902    2    1    2    0    0 -0.13044002856E-01 -0.16853597066E-02  0.18706276545E-01  0.10210627477E+01  0.10208066533E+01 0.  0.
     999903    2    3    3    0    0 -0.57288486549E-02 -0.12959321192E+00 -0.64170357907E-02  0.13143073892E+00  0.20140518900E-01 0.  0.
         14    1    1    2    0    0  0.13044002856E-01  0.16853597066E-02 -0.18706276545E-01  0.22867252350E-01  0.00000000000E+00 0. -1.
     999901    1    3    3    0    0 -0.73151542012E-02  0.12790785221E+00  0.25123312336E-01  0.88963200873E+00  0.88000000000E+00 0.  1.
        -11    1    4    4    0    0 -0.12402240254E-02 -0.54805374475E-01  0.71567208062E-02  0.55286951450E-01  0.51100000000E-03 0. -1.
         11    1    4    4    0    0 -0.44886246296E-02 -0.74787837445E-01 -0.13573756597E-01  0.76143787467E-01  0.51100000000E-03 0.  1.
</event>
<event>
 8    1  0.1066842E+005  0.1043930E+01  0.7957747E-01            NaN
         13   -1    0    0    0    0  0.00000000000E+00  0.00000000000E+00  0.74505805969E-08  0.10566000000E+00  0.10566000000E+00 0. -1.
     999900   -1    0    0    0    0 -0.00000000000E+00 -0.00000000000E+00 -0.74505805969E-08  0.93827000000E+00  0.93827000000E+00 0. -1.
     999902    2    1    2    0    0 -0.61660382867E-02 -0.15011861695E-01 -0.18049233400E-01  0.10196575702E+01  0.10193686329E+01 0.  0.
     999903    2    3    3    0    0  0.48381515747E-02  0.10709497590E+00  0.65455908618E-01  0.12724271116E+00  0.20334453409E-01 0.  0.
         14    1    1    2    0    0  0.61660382867E-02  0.15011861695E-01  0.18049233400E-01  0.24272429751E-01  0.00000000000E+00 0.  1.
     999901    1    3    3    0    0 -0.11004189861E-01 -0.12210683760E+00 -0.83505142018E-01  0.89241485909E+00  0.88000000000E+00 0. -1.
        -11    1    4    4    0    0  0.12636768374E-01  0.66496006547E-01  0.43035420650E-01  0.80210444165E-01  0.51100000000E-03 0.  1.
         11    1    4    4    0    0 -0.77986167992E-02  0.40598969356E-01  0.22420487968E-01  0.47032266993E-01  0.51100000000E-03 0. -1.
</event>
<event>
 8    1  0.1066842E+005  0.1043930E+01  0.7957747E-01            NaN
         13   -1    0    0    0    0  0.00000000000E+00  0.00000000000E+00  0.74505805969E-08  0.10566000000E+00  0.10566000000E+00 0.  1.
     999900   -1    0    0    0    0 -0.00000000000E+00 -0.00000000000E+00 -0.74505805969E-08  0.93827000000E+00  0.93827000000E+00 0.  1.
     999902    2    1    2    0    0  0.18798116896E-01 -0.10787125186E-01  0.76529718564E-02  0.10209452388E+01  0.10206864756E+01 0.  0.
     999903    2    3    3    0    0  0.49666051597E-01  0.13930219269E-01 -0.11868877034E+00  0.13104299006E+00  0.20602751030E-01 0.  0.
         14    1    1    2    0    0 -0.18798116896E-01  0.10787125186E-01 -0.76529718564E-02  0.22984761188E-01  0.00000000000E+00 0. -1.
     999901    1    3    3    0    0 -0.30867934701E-01 -0.24717344455E-01  0.12634174219E+00  0.88990224875E+00  0.88000000000E+00 0. -1.
        -11    1    4    4    0    0  0.21583090111E-02 -0.39249916163E-02 -0.13835888285E-01  0.14551865262E-01  0.51100000000E-03 0. -1.
         11    1    4    4    0    0  0.47507742586E-01  0.17855210885E-01 -0.10485288205E+00  0.11649112480E+00  0.51100000000E-03 0.  1.
</event>
<event>
 8    1  0.1066842E+005  0.1043930E+01  0.7957747E-01            NaN
         13   -1    0    0    0    0  0.00000000000E+00  0.00000000000E+00  0.74505805969E-08  0.10566000000E+00  0.10566000000E+00 0.  1.
     999900   -1    0    0    0    0 -0.00000000000E+00 -0.00000000000E+00 -0.74505805969E-08  0.93827000000E+00  0.93827000000E+00 0.  1.
     999902    2    1    2    0    0  0.50381893480E-02 -0.20339218738E-01  0.92288024944E-02  0.10210337565E+01  0.10207770050E+01 0.  0.
     999903    2    3    3    0    0  0.25954482035E-01  0.12393390451E+00 -0.11944907522E-01  0.12878908637E+00  0.20265737719E-01 0.  0.
         14    1    1    2    0    0 -0.50381893480E-02  0.20339218738E-01 -0.92288024944E-02  0.22896243496E-01  0.00000000000E+00 0.  1.
     999901    1    3    3    0    0 -0.20916292687E-01 -0.14427312325E+00  0.21173710017E-01  0.89224467014E+00  0.88000000000E+00 0.  1.
        -11    1    4    4    0    0  0.87798587884E-02  0.79985906171E-01 -0.13416154127E-01  0.81578706896E-01  0.51100000000E-03 0.  1.
         11    1    4    4    0    0  0.17174623247E-01  0.43947998344E-01  0.14712466044E-02  0.47210379470E-01  0.51100000000E-03 0. -1.
</event>
<event>
 8    1  0.1066842E+005  0.1043930E+01  0.7957747E-01            NaN
         13   -1    0    0    0    0  0.00000000000E+00  0.00000000000E+00  0.74505805969E-08  0.10566000000E+00  0.10566000000E+00 0.  1.
     999900   -1    0    0    0    0 -0.00000000000E+00 -0.00000000000E+00 -0.74505805969E-08  0.93827000000E+00  0.93827000000E+00 0. -1.
     999902    2    1    2    0    0  0.15114977803E-01  0.14129538368E-01  0.11782397762E-01  0.10201196807E+01  0.10198417679E+01 0.  0.
     999903    2    3    3    0    0 -0.64183441242E-01  0.11045727382E+00  0.21856972510E-01  0.13126155425E+00  0.20773658977E-01 0.  0.
         14    1    1    2    0    0 -0.15114977803E-01 -0.14129538368E-01 -0.11782397762E-01  0.23810319307E-01  0.00000000000E+00 0. -1.
     999901    1    3    3    0    0  0.79298419045E-01 -0.96327735457E-01 -0.10074574748E-01  0.88885812644E+00  0.88000000000E+00 0.  1.
        -11    1    4    4    0    0 -0.21049293196E-01  0.19412969059E-01  0.34323021671E-02  0.28844027648E-01  0.51100000000E-03 0.  1.
         11    1    4    4    0    0 -0.43134148046E-01  0.91044304765E-01  0.18424670343E-01  0.10241752661E+00  0.51100000000E-03 0. -1.
</event>
<event>
 8    1  0.1066842E+005  0.1043930E+01  0.7957747E-01            NaN
         13   -1    0    0    0    0  0.00000000000E+00  0.00000000000E+00  0.74505805969E-08  0.10566000000E+00  0.10566000000E+00 0.  1.
     999900   -1    0    0    0    0 -0.00000000000E+00 -0.00000000000E+00 -0.74505805969E-08  0.93827000000E+00  0.93827000000E+00 0.  1.
     999902    2    1    2    0    0 -0.12375968377E-01 -0.16370607086E-01  0.13830588875E-01  0.10191823424E+01  0.10188818383E+01 0.  0.
     999903    2    3    3    0    0 -0.61467979974E-01  0.90673386141E-01 -0.63131104716E-01  0.12800809208E+00  0.20013988605E-01 0.  0.
         14    1    1    2    0    0  0.12375968377E-01  0.16370607086E-01 -0.13830588875E-01  0.24747657632E-01  0.00000000000E+00 0. -1.
     999901    1    3    3    0    0  0.49092011596E-01 -0.10704399323E+00  0.76961693591E-01  0.89117425028E+00  0.88000000000E+00 0. -1.
        -11    1    4    4    0    0 -0.25598606811E-01  0.55176460302E-01 -0.36648559891E-01  0.71014847076E-01  0.51100000000E-03 0.  1.
         11    1    4    4    0    0 -0.35869373163E-01  0.35496925839E-01 -0.26482544825E-01  0.56993245008E-01  0.51100000000E-03 0. -1.
</event>
<event>
 8    1  0.1066842E+005  0.1043930E+01  0.7957747E-01            NaN
         13   -1    0    0    0    0  0.00000000000E+00  0.00000000000E+00  0.74505805969E-08  0.10566000000E+00  0.10566000000E+00 0.  1.
     999900   -1    0    0    0    0 -0.00000000000E+00 -0.00000000000E+00 -0.74505805969E-08  0.93827000000E+00  0.93827000000E+00 0.  1.
     999902    2    1    2    0    0 -0.23637134740E-01 -0.30181665463E-02 -0.16423922416E-02  0.10200444202E+01  0.10197647270E+01 0.  0.
     999903    2    3    3    0    0 -0.78578486352E-01 -0.52863531622E-01  0.89571091264E-01  0.13222517506E+00  0.22167206361E-01 0.  0.
         14    1    1    2    0    0  0.23637134740E-01  0.30181665463E-02  0.16423922416E-02  0.23885579756E-01  0.00000000000E+00 0. -1.
     999901    1    3    3    0    0  0.54941351612E-01  0.49845365075E-01 -0.91213483505E-01  0.88781924518E+00  0.88000000000E+00 0.  1.
        -11    1    4    4    0    0 -0.40336719361E-01 -0.39623466868E-01  0.47513073770E-01  0.73856775962E-01  0.51100000000E-03 0.  1.
         11    1    4    4    0    0 -0.38241766991E-01 -0.13240064753E-01  0.42058017494E-01  0.58368399103E-01  0.51100000000E-03 0. -1.
</event>
<event>
 8    1  0.1066842E+005  0.1043930E+01  0.7957747E-01            NaN
         13   -1    0    0    0    0  0.00000000000E+00  0.00000000000E+00  0.74505805969E-08  0.10566000000E+00  0.10566000000E+00 0.  1.
     999900   -1    0    0    0    0 -0.00000000000E+00 -0.00000000000E+00 -0.74505805969E-08  0.93827000000E+00  0.93827000000E+00 0. -1.
     999902    2    1    2    0    0  0.35282347947E-02 -0.22757625222E-01 -0.65769617610E-02  0.10199797521E+01  0.10196985243E+01 0.  0.
     999903    2    3    3    0    0  0.10890182132E+00 -0.35626798213E-01 -0.61984013220E-01  0.13186987735E+00  0.20463900391E-01 0.  0.
         14    1    1    2    0    0 -0.35282347947E-02  0.22757625222E-01  0.65769617610E-02  0.23950247859E-01  0.00000000000E+00 0.  1.
     999901    1    3    3    0    0 -0.10537358653E+00  0.12869172991E-01  0.55407051459E-01  0.88810987479E+00  0.88000000000E+00 0. -1.
        -11    1    4    4    0    0  0.97576913894E-02  0.15029590461E-02 -0.16737207261E-02  0.10026658926E-01  0.51100000000E-03 0. -1.
         11    1    4    4    0    0  0.99144129932E-01 -0.37129757259E-01 -0.60310292494E-01  0.12184321842E+00  0.51100000000E-03 0.  1.
</event>
<event>
 8    1  0.1066842E+005  0.1043930E+01  0.7957747E-01            NaN
         13   -1    0    0    0    0  0.00000000000E+00  0.00000000000E+00  0.74505805969E-08  0.10566000000E+00  0.10566000000E+00 0. -1.
     999900   -1    0    0    0    0 -0.00000000000E+00 -0.00000000000E+00 -0.74505805969E-08  0.93827000000E+00  0.93827000000E+00 0.  1.
     999902    2    1    2    0    0 -0.47975887742E-02  0.14175362471E-01  0.18652529237E-01  0.10200161001E+01  0.10197357354E+01 0.  0.
     999903    2    3    3    0    0 -0.15205635383E-01 -0.11580328240E+00 -0.48198478568E-01  0.12789960955E+00  0.19839486461E-01 0.  0.
         14    1    1    2    0    0  0.47975887742E-02 -0.14175362471E-01 -0.18652529237E-01  0.23913899853E-01  0.00000000000E+00 0.  1.
     999901    1    3    3    0    0  0.10408046609E-01  0.12997864487E+00  0.66851007805E-01  0.89211649060E+00  0.88000000000E+00 0.  1.
        -11    1    4    4    0    0 -0.15657156292E-01 -0.47323715387E-01 -0.17263962681E-01  0.52754015104E-01  0.51100000000E-03 0.  1.
         11    1    4    4    0    0  0.45152090863E-03 -0.68479567017E-01 -0.30934515887E-01  0.75145594442E-01  0.51100000000E-03 0. -1.
</event>
<event>
 8    1  0.1066842E+005  0.1043930E+01  0.7957747E-01            NaN
         13   -1    0    0    0    0  0.00000000000E+00  0.00000000000E+00  0.74505805969E-08  0.10566000000E+00  0.10566000000E+00 0.  1.
     999900   -1    0    0    0    0 -0.00000000000E+00 -0.00000000000E+00 -0.74505805969E-08  0.93827000000E+00  0.93827000000E+00 0.  1.
     999902    2    1    2    0    0 -0.96035112663E-02 -0.19547032779E-01  0.83201290662E-02  0.10206160886E+01  0.10203497742E+01 0.  0.
     999903    2    3    3    0    0 -0.47683058214E-01 -0.60006669529E-01  0.10723988016E+00  0.13333250860E+00  0.20067175316E-01 0.  0.
         14    1    1    2    0    0  0.96035112663E-02  0.19547032779E-01 -0.83201290662E-02  0.23313911443E-01  0.00000000000E+00 0. -1.
     999901    1    3    3    0    0  0.38079546947E-01  0.40459636750E-01 -0.98919751092E-01  0.88728357995E+00  0.88000000000E+00 0. -1.
        -11    1    4    4    0    0 -0.90034587284E-02 -0.20187233796E-01  0.43568966178E-01  0.48857984120E-01  0.51100000000E-03 0. -1.
         11    1    4    4    0    0 -0.38679599485E-01 -0.39819435733E-01  0.63670913980E-01  0.84474524482E-01  0.51100000000E-03 0.  1.
</event>
<event>
 8    1  0.1066842E+005  0.1043930E+01  0.7957747E-01            NaN
         13   -1    0    0    0    0  0.00000000000E+00  0.00000000000E+00  0.74505805969E-08  0.10566000000E+00  0.10566000000E+00 0. -1.
     999900   -1    0    0    0    0 -0.00000000000E+00 -0.00000000000E+00 -0.74505805969E-08  0.93827000000E+00  0.93827000000E+00 0.  1.
     999902    2    1    2    0    0 -0.18403520809E-01  0.39393517519E-02 -0.11932864747E-01  0.10216454463E+01  0.10214023775E+01 0.  0.
     999903    2    3    3    0    0 -0.44748580449E-01  0.42086135570E-01  0.11447624166E+00  0.13140474774E+00  0.19715972301E-01 0.  0.
         14    1    1    2    0    0  0.18403520809E-01 -0.39393517519E-02  0.11932864747E-01  0.22284553652E-01  0.00000000000E+00 0. -1.
     999901    1    3    3    0    0  0.26345059640E-01 -0.38146783818E-01 -0.12640910641E+00  0.89024069861E+00  0.88000000000E+00 0.  1.
        -11    1    4    4    0    0 -0.27562111611E-02  0.12492433105E-01  0.28584354672E-01  0.31320664710E-01  0.51100000000E-03 0.  1.
         11    1    4    4    0    0 -0.41992369288E-01  0.29593702465E-01  0.85891886987E-01  0.10008408303E+00  0.51100000000E-03 0. -1.
</event>
<event>
 8    1  0.1066842E+005  0.1043930E+01  0.7957747E-01            NaN
         13   -1    0    0    0    0  0.00000000000E+00  0.00000000000E+00  0.74505805969E-08  0.10566000000E+00  0.10566000000E+00 0.  1.
     999900   -1    0    0    0    0 -0.00000000000E+00 -0.00000000000E+00 -0.74505805969E-08  0.93827000000E+00  0.93827000000E+00 0.  1.
     999902    2    1    2    0    0  0.22345303039E-01  0.19182358566E-02  0.73408813834E-02  0.10203316794E+01  0.10200587509E+01 0.  0.
     999903    2    3    3    0    0 -0.44820823016E-01  0.11927016302E+00 -0.13256505660E-01  0.12976611994E+00  0.20717938635E-01 0.  0.
         14    1    1    2    0    0 -0.22345303039E-01 -0.19182358566E-02 -0.73408813834E-02  0.23598320623E-01  0.00000000000E+00 0.  1.
     999901    1    3    3    0    0  0.67166126055E-01 -0.11735192716E+00  0.20597387043E-01  0.89056555943E+00  0.88000000000E+00 0. -1.
        -11    1    4    4    0    0 -0.11006285090E-01  0.16942918063E-01  0.40565171926E-02  0.20613520726E-01  0.51100000000E-03 0. -1.
         11    1    4    4    0    0 -0.33814537925E-01  0.10232724495E+00 -0.17313022852E-01  0.10915259922E+00  0.51100000000E-03 0.  1.
</event>
<event>
 8    1  0.1066842E+005  0.1043930E+01  0.7957747E-01            NaN
         13   -1    0    0    0    0  0.00000000000E+00  0.00000000000E+00  0.74505805969E-08  0.10566000000E+00  0.10566000000E+00 0. -1.
     999900   -1    0    0    0    0 -0.00000000000E+00 -0.00000000000E+00 -0.74505805969E-08  0.93827000000E+00  0.93827000000E+00 0.  1.
     999902    2    1    2    0    0  0.12389990160E-01 -0.19538547255E-01  0.48252652904E-02  0.10202963403E+01  0.10200225842E+01 0.  0.
     999903    2    3    3    0    0  0.50860448360E-01  0.46511057976E-02  0.12000607992E+00  0.13162782195E+00  0.17776566105E-01 0.  0.
         14    1    1    2    0    0 -0.12389990160E-01  0.19538547255E-01 -0.48252652904E-02  0.23633659686E-01  0.00000000000E+00 0.  1.
     999901    1    3    3    0    0 -0.38470458200E-01 -0.24189653053E-01 -0.11518081463E+00  0.88866851836E+00  0.88000000000E+00 0.  1.
        -11    1    4    4    0    0  0.34854444175E-01 -0.51710315188E-02  0.75494750495E-01  0.83314406431E-01  0.51100000000E-03 0.  1.
         11    1    4    4    0    0  0.16006004185E-01  0.98221373164E-02  0.44511329422E-01  0.48313415521E-01  0.51100000000E-03 0. -1.
</event>
<event>
 8    1  0.1066842E+005  0.1043930E+01  0.7957747E-01            NaN
         13   -1    0    0    0    0  0.00000000000E+00  0.00000000000E+00  0.74505805969E-08  0.10566000000E+00  0.10566000000E+00 0. -1.
     999900   -1    0    0    0    0 -0.00000000000E+00 -0.00000000000E+00 -0.74505805969E-08  0.93827000000E+00  0.93827000000E+00 0. -1.
     999902    2    1    2    0    0 -0.16907261353E-01 -0.62451727716E-02  0.13726635138E-01  0.10212743565E+01  0.10210230326E+01 0.  0.
     999903    2    3    3    0    0 -0.12369230317E+00 -0.46586852638E-01  0.73784258660E-02  0.13387884377E+00  0.19974557292E-01 0.  0.
         14    1    1    2    0    0  0.16907261353E-01  0.62451727716E-02 -0.13726635138E-01  0.22655643482E-01  0.00000000000E+00 0.  1.
     999901    1    3    3    0    0  0.10678504181E+00  0.40341679867E-01  0.63482092715E-02  0.88739551275E+00  0.88000000000E+00 0. -1.
        -11    1    4    4    0    0 -0.70722587640E-01 -0.34620248916E-01  0.10717310730E-01  0.79469289086E-01  0.51100000000E-03 0.  1.
         11    1    4    4    0    0 -0.52969715525E-01 -0.11966603723E-01 -0.33388848636E-02  0.54409554681E-01  0.51100000000E-03 0. -1.
</event>
<event>
 8    1  0.1066842E+005  0.1043930E+01  0.7957747E-01            NaN
         13   -1    0    0    0    0  0.00000000000E+00  0.00000000000E+00  0.74505805969E-08  0.10566000000E+00  0.10566000000E+00 0.  1.
     999900   -1    0    0    0    0 -0.00000000000E+00 -0.00000000000E+00 -0.74505805969E-08  0.93827000000E+00  0.93827000000E+00 0. -1.
     999902    2    1    2    0    0 -0.17870235480E-01 -0.92327161781E-02  0.12100655759E-01  0.10204563076E+01  0.10201862877E+01 0.  0.
     999903    2    3    3    0    0  0.93647777888E-01  0.81249102514E-01  0.27750900654E-01  0.12867822032E+00  0.20411980196E-01 0.  0.
         14    1    1    2    0    0  0.17870235480E-01  0.92327161781E-02 -0.12100655759E-01  0.23473692380E-01  0.00000000000E+00 0. -1.
     999901    1    3    3    0    0 -0.11151801337E+00 -0.90481818693E-01 -0.15650244895E-01  0.89177808730E+00  0.88000000000E+00 0.  1.
        -11    1    4    4    0    0  0.14747766726E-01  0.12898484979E-01  0.12330612498E-01  0.23155402474E-01  0.51100000000E-03 0.  1.
         11    1    4    4    0    0  0.78900011162E-01  0.68350617536E-01  0.15420288155E-01  0.10552281785E+00  0.51100000000E-03 0. -1.
</event>
<event>
 8    1  0.1066842E+005  0.1043930E+01  0.7957747E-01            NaN
         13   -1    0    0    0    0  0.00000000000E+00  0.00000000000E+00  0.74505805969E-08  0.10566000000E+00  0.10566000000E+00 0.  1.
     999900   -1    0    0    0    0 -0.00000000000E+00 -0.00000000000E+00 -0.74505805969E-08  0.93827000000E+00  0.93827000000E+00 0. -1.
     999902    2    1    2    0    0 -0.10825931152E-01  0.19841167797E-01  0.68021640912E-02  0.10203261410E+01  0.10200530828E+01 0.  0.
     999903    2    3    3    0    0 -0.18607034393E-01 -0.27931552653E-01 -0.12343674288E+00  0.12942493922E+00  0.19692436040E-01 0.  0.
         14    1    1    2    0    0  0.10825931152E-01 -0.19841167797E-01 -0.68021640912E-02  0.23603859032E-01  0.00000000000E+00 0. -1.
     999901    1    3    3    0    0  0.77811032409E-02  0.47772720450E-01  0.13023890697E+00  0.89090120175E+00  0.88000000000E+00 0.  1.
        -11    1    4    4    0    0 -0.11722399133E-01 -0.24040163606E-01 -0.62627190362E-01  0.68101176210E-01  0.51100000000E-03 0.  1.
         11    1    4    4    0    0 -0.68846352605E-02 -0.38913890465E-02 -0.60809552517E-01  0.61323763010E-01  0.51100000000E-03 0. -1.
</event>
<event>
 8    1  0.1066842E+005  0.1043930E+01  0.7957747E-01            NaN
         13   -1    0    0    0    0  0.00000000000E+00  0.00000000000E+00  0.74505805969E-08  0.10566000000E+00  0.10566000000E+00 0.  1.
     999900   -1    0    0    0    0 -0.00000000000E+00 -0.00000000000E+00 -0.74505805969E-08  0.93827000000E+00  0.93827000000E+00 0. -1.
     999902    2    1    2    0    0  0.23816593774E-01 -0.73620977508E-03 -0.75672580393E-02  0.10189292892E+01  0.10186225311E+01 0.  0.
     999903    2    3    3    0    0  0.87740823563E-03  0.12232385589E+00  0.36390878616E-01  0.12898417646E+00  0.18674211281E-01 0.  0.
         14    1    1    2    0    0 -0.23816593774E-01  0.73620977508E-03  0.75672580393E-02  0.25000710751E-01  0.00000000000E+00 0.  1.
     999901    1    3    3    0    0  0.22939185538E-01 -0.12306006566E+00 -0.43958136655E-01  0.88994511279E+00  0.88000000000E+00 0. -1.
        -11    1    4    4    0    0 -0.64184709323E-02  0.75980830796E-01  0.16459201233E-01  0.78009293317E-01  0.51100000000E-03 0.  1.
         11    1    4    4    0    0  0.72958791679E-02  0.46343025091E-01  0.19931677382E-01  0.50974883145E-01  0.51100000000E-03 0. -1.
</event>
<event>
 8    1  0.1066842E+005  0.1043930E+01  0.7957747E-01            NaN
         13   -1    0    0    0    0  0.00000000000E+00  0.00000000000E+00  0.74505805969E-08  0.10566000000E+00  0.10566000000E+00 0.  1.
     999900   -1    0    0    0    0 -0.00000000000E+00 -0.00000000000E+00 -0.74505805969E-08  0.93827000000E+00  0.93827000000E+00 0.  1.
     999902    2    1    2    0    0  0.13107819723E-01  0.19343884307E-01 -0.43236714010E-02  0.10201666894E+01  0.10198898858E+01 0.  0.
     999903    2    3    3    0    0 -0.10435826217E+00  0.66987319674E-01 -0.35124387372E-01  0.13055055786E+00  0.20779261005E-01 0.  0.
         14    1    1    2    0    0 -0.13107819723E-01 -0.19343884307E-01  0.43236714010E-02  0.23763310636E-01  0.00000000000E+00 0.  1.
     999901    1    3    3    0    0  0.11746608190E+00 -0.47643435367E-01  0.30800715971E-01  0.88961613151E+00  0.88000000000E+00 0. -1.
        -11    1    4    4    0    0 -0.41572008481E-01  0.23951705628E-01 -0.34580826608E-02  0.48105462770E-01  0.51100000000E-03 0. -1.
         11    1    4    4    0    0 -0.62786253693E-01  0.43035614046E-01 -0.31666304712E-01  0.82445095089E-01  0.51100000000E-03 0.  1.
</event>
<event>
 8    1  0.1066842E+005  0.1043930E+01  0.7957747E-01            NaN
         13   -1    0    0    0    0  0.00000000000E+00  0.00000000000E+00  0.74505805969E-08  0.10566000000E+00  0.10566000000E+00 0. -1.
     999900   -1    0    0    0    0 -0.00000000000E+00 -0.00000000000E+00 -0.74505805969E-08  0.93827000000E+00  0.93827000000E+00 0. -1.
     999902    2    1    2    0    0  0.12989167589E-01  0.13109082774E-01  0.22917946091E-02  0.10253337948E+01  0.10251651437E+01 0.  0.
     999903    2    3    3    0    0 -0.79220489208E-01  0.87800902244E-01  0.62333479100E-01  0.13534138326E+00  0.21141027888E-01 0.  0.
         14    1    1    2    0    0 -0.12989167589E-01 -0.13109082774E-01 -0.22917946091E-02  0.18596205214E-01  0.00000000000E+00 0.  1.
     999901    1    3    3    0    0  0.92209656797E-01 -0.74691819471E-01 -0.60041684491E-01  0.88999241153E+00  0.88000000000E+00 0.  1.
        -11    1    4    4    0    0 -0.22963381750E-01  0.23964753127E-01  0.28576129231E-01  0.43800486033E-01  0.51100000000E-03 0. -1.
         11    1    4    4    0    0 -0.56257107458E-01  0.63836149117E-01  0.33757349868E-01  0.91540897225E-01  0.51100000000E-03 0.  1.
</event>
<event>
 8    1  0.1066842E+005  0.1043930E+01  0.7957747E-01            NaN
         13   -1    0    0    0    0  0.00000000000E+00  0.00000000000E+00  0.74505805969E-08  0.10566000000E+00  0.10566000000E+00 0.  1.
     999900   -1    0    0    0    0 -0.00000000000E+00 -0.00000000000E+00 -0.74505805969E-08  0.93827000000E+00  0.93827000000E+00 0.  1.
     999902    2    1    2    0    0  0.88037772084E-02 -0.17492983635E-01 -0.15196744229E-01  0.10191418576E+01  0.10188403574E+01 0.  0.
     999903    2    3    3    0    0  0.16465701614E-01 -0.41731085483E-01  0.11892389074E+00  0.12861699246E+00  0.19668150267E-01 0.  0.
         14    1    1    2    0    0 -0.88037772084E-02  0.17492983635E-01  0.15196744229E-01  0.24788142422E-01  0.00000000000E+00 0.  1.
     999901    1    3    3    0    0 -0.76619244054E-02  0.24238101848E-01 -0.13412063497E+00  0.89052486512E+00  0.88000000000E+00 0.  1.
        -11    1    4    4    0    0  0.12391260736E-01 -0.40025360433E-01  0.89075448798E-01  0.98439166596E-01  0.51100000000E-03 0.  1.
         11    1    4    4    0    0  0.40744408779E-02 -0.17057250501E-02  0.29848441945E-01  0.30177825865E-01  0.51100000000E-03 0. -1.
</event>
<event>
 8    1  0.1066842E+005  0.1043930E+01  0.7957747E-01            NaN
         13   -1    0    0    0    0  0.00000000000E+00  0.00000000000E+00  0.74505805969E-08  0.10566000000E+00  0.10566000000E+00 0. -1.
     999900   -1    0    0    0    0 -0.00000000000E+00 -0.00000000000E+00 -0.74505805969E-08  0.93827000000E+00  0.93827000000E+00 0.  1.
     999902    2    1    2    0    0  0.47092262741E-02  0.10281297830E-01 -0.20601005053E-01  0.10204292914E+01  0.10201586423E+01 0.  0.
     999903    2    3    3    0    0  0.76043855520E-01 -0.84832692509E-01 -0.62468290950E-01  0.13144775606E+00  0.19924144091E-01 0.  0.
         14    1    1    2    0    0 -0.47092262741E-02 -0.10281297830E-01  0.20601005053E-01  0.23500708636E-01  0.00000000000E+00 0. -1.
     999901    1    3    3    0    0 -0.71334629246E-01  0.95113990339E-01  0.41867285897E-01  0.88898153531E+00  0.88000000000E+00 0. -1.
        -11    1    4    4    0    0  0.37714952952E-01 -0.28265653214E-01 -0.21817065998E-01  0.51938524407E-01  0.51100000000E-03 0.  1.
         11    1    4    4    0    0  0.38328902568E-01 -0.56567039294E-01 -0.40651224952E-01  0.79509231651E-01  0.51100000000E-03 0. -1.
</event>
<event>
 8    1  0.1066842E+005  0.1043930E+01  0.7957747E-01            NaN
         13   -1    0    0    0    0  0.00000000000E+00  0.00000000000E+00  0.74505805969E-08  0.10566000000E+00  0.10566000000E+00 0.  1.
     999900   -1    0    0    0    0 -0.00000000000E+00 -0.00000000000E+00 -0.74505805969E-08  0.93827000000E+00  0.93827000000E+00 0.  1.
     999902    2    1    2    0    0  0.14633472533E-01 -0.17184989285E-01  0.26560031577E-02  0.10212029956E+01  0.10209500681E+01 0.  0.
     999903    2    3    3    0    0  0.50128631333E-01 -0.85845932427E-03 -0.12030635135E+00  0.13179521372E+00  0.19563832823E-01 0.  0.
         14    1    1    2    0    0 -0.14633472533E-01  0.17184989285E-01 -0.26560031577E-02  0.22727004375E-01  0.00000000000E+00 0. -1.
     999901    1    3    3    0    0 -0.35495158799E-01 -0.16326529960E-01  0.12296235450E+00  0.88940778190E+00  0.88000000000E+00 0. -1.
        -11    1    4    4    0    0  0.15845237262E-01  0.84937517180E-02 -0.34152011759E-01  0.38598398806E-01  0.51100000000E-03 0.  1.
         11    1    4    4    0    0  0.34283394071E-01 -0.93522110423E-02 -0.86154339587E-01  0.93196814919E-01  0.51100000000E-03 0. -1.
</event>
<event>
 8    1  0.1066842E+005  0.1043930E+01  0.7957747E-01            NaN
         13   -1    0    0    0    0  0.00000000000E+00  0.00000000000E+00  0.74505805969E-08  0.10566000000E+00  0.10566000000E+00 0. -1.
     999900   -1    0    0    0    0 -0.00000000000E+00 -0.00000000000E+00 -0.74505805969E-08  0.93827000000E+00  0.93827000000E+00 0.  1.
     999902    2    1    2    0    0  0.14686193919E-01 -0.10602978686E-01 -0.11420106750E-01  0.10225167731E+01  0.10222925339E+01 0.  0.
     999903    2    3    3    0    0  0.31356369155E-01 -0.97200627980E-01 -0.85954060983E-01  0.13497389641E+00  0.19966675867E-01 0.  0.
         14    1    1    2    0    0 -0.14686193919E-01  0.10602978686E-01  0.11420106750E-01  0.21413226918E-01  0.00000000000E+00 0.  1.
     999901    1    3    3    0    0 -0.16670175236E-01  0.86597649294E-01  0.74533954232E-01  0.88754287668E+00  0.88000000000E+00 0. -1.
        -11    1    4    4    0    0  0.10561130395E-01 -0.40877031918E-01 -0.48065607460E-01  0.63976815763E-01  0.51100000000E-03 0.  1.
         11    1    4    4    0    0  0.20795238760E-01 -0.56323596062E-01 -0.37888453522E-01  0.70997080643E-01  0.51100000000E-03 0. -1.
</event>
<event>
 8    1  0.1066842E+005  0.1043930E+01  0.7957747E-01            NaN
         13   -1    0    0    0    0  0.00000000000E+00  0.00000000000E+00  0.74505805969E-08  0.10566000000E+00  0.10566000000E+00 0.  1.
     999900   -1    0    0    0    0 -0.00000000000E+00 -0.00000000000E+00 -0.74505805969E-08  0.93827000000E+00  0.93827000000E+00 0.  1.
     999902    2    1    2    0    0  0.69929513934E-02 -0.20745611186E-01 -0.12571179449E-01  0.10186848756E+01  0.10183720143E+01 0.  0.
     999903    2    3    3    0    0  0.82723695872E-01 -0.96601554351E-01  0.25934783809E-01  0.13134504275E+00  0.20095698109E-01 0.  0.
         14    1    1    2    0    0 -0.69929513934E-02  0.20745611186E-01  0.12571179449E-01  0.25245124389E-01  0.00000000000E+00 0.  1.
     999901    1    3    3    0    0 -0.75730744479E-01  0.75855943166E-01 -0.38505963257E-01  0.88733983286E+00  0.88000000000E+00 0.  1.
        -11    1    4    4    0    0  0.41617024740E-01 -0.57943906599E-01  0.22514620882E-01  0.74810710026E-01  0.51100000000E-03 0.  1.
         11    1    4    4    0    0  0.41106671132E-01 -0.38657647752E-01  0.34201629267E-02  0.56534332726E-01  0.51100000000E-03 0. -1.
</event>
<event>
 8    1  0.1066842E+005  0.1043930E+01  0.7957747E-01            NaN
         13   -1    0    0    0    0  0.00000000000E+00  0.00000000000E+00  0.74505805969E-08  0.10566000000E+00  0.10566000000E+00 0. -1.
     999900   -1    0    0    0    0 -0.00000000000E+00 -0.00000000000E+00 -0.74505805969E-08  0.93827000000E+00  0.93827000000E+00 0. -1.
     999902    2    1    2    0    0 -0.15381973032E-01 -0.15388212714E-01  0.10337539115E-01  0.10198412703E+01  0.10195567418E+01 0.  0.
     999903    2    3    3    0    0 -0.48591898545E-01  0.25588883924E-01 -0.11555990435E+00  0.12931772321E+00  0.18788785426E-01 0.  0.
         14    1    1    2    0    0  0.15381973032E-01  0.15388212714E-01 -0.10337539115E-01  0.24088729727E-01  0.00000000000E+00 0.  1.
     999901    1    3    3    0    0  0.33209925512E-01 -0.40977096638E-01  0.12589744347E+00  0.89052354706E+00  0.88000000000E+00 0.  1.
        -11    1    4    4    0    0 -0.23184153557E-01  0.67488809386E-02 -0.32916934808E-01  0.40826928469E-01  0.51100000000E-03 0.  1.
         11    1    4    4    0    0 -0.25407744988E-01  0.18840002985E-01 -0.82642969544E-01  0.88490794741E-01  0.51100000000E-03 0. -1.
</event>
<event>
 8    1  0.1121544E+005  0.1043930E+01  0.7957747E-01            NaN
         13   -1    0    0    0    0  0.00000000000E+00  0.00000000000E+00  0.74505805969E-08  0.10566000000E+00  0.10566000000E+00 0.  1.
     999900   -1    0    0    0    0 -0.00000000000E+00 -0.00000000000E+00 -0.74505805969E-08  0.93827000000E+00  0.93827000000E+00 0. -1.
     999902    2    1    2    0    0 -0.18231410540E-01 -0.81285270235E-02 -0.12194578680E-01  0.10205384410E+01  0.10202703292E+01 0.  0.
     999903    2    3    3    0    0 -0.16571202984E-01  0.12157441437E+00  0.36723467296E-01  0.12968571217E+00  0.20367324146E-01 0.  0.
         14    1    1    2    0    0  0.18231410540E-01  0.81285270235E-02  0.12194578680E-01  0.23391558970E-01  0.00000000000E+00 0. -1.
     999901    1    3    3    0    0 -0.16602075562E-02 -0.12970294139E+00 -0.48918045976E-01  0.89085272886E+00  0.88000000000E+00 0. -1.
        -11    1    4    4    0    0 -0.31202076015E-02  0.49690973422E-01  0.24663646944E-01  0.55565143180E-01  0.51100000000E-03 0. -1.
         11    1    4    4    0    0 -0.13450995382E-01  0.71883440949E-01  0.12059820352E-01  0.74120568990E-01  0.51100000000E-03 0.  1.
</event>
<event>
 8    1  0.1066842E+005  0.1043930E+01  0.7957747E-01            NaN
         13   -1    0    0    0    0  0.00000000000E+00  0.00000000000E+00  0.74505805969E-08  0.10566000000E+00  0.10566000000E+00 0.  1.
     999900   -1    0    0    0    0 -0.00000000000E+00 -0.00000000000E+00 -0.74505805969E-08  0.93827000000E+00  0.93827000000E+00 0.  1.
     999902    2    1    2    0    0 -0.30743370424E-03 -0.15482016301E-01  0.18221730244E-01  0.10200172670E+01  0.10197369299E+01 0.  0.
     999903    2    3    3    0    0 -0.56036381315E-02 -0.11526403524E+00  0.63452053142E-01  0.13320822154E+00  0.20026698617E-01 0.  0.
         14    1    1    2    0    0  0.30743370424E-03  0.15482016301E-01 -0.18221730244E-01  0.23912732954E-01  0.00000000000E+00 0. -1.
     999901    1    3    3    0    0  0.52962044273E-02  0.99782018938E-01 -0.45230322898E-01  0.88680904551E+00  0.88000000000E+00 0.  1.
        -11    1    4    4    0    0 -0.70145334910E-02 -0.23254246845E-01  0.19880625139E-01  0.31392101767E-01  0.51100000000E-03 0.  1.
         11    1    4    4    0    0  0.14108953595E-02 -0.92009788395E-01  0.43571428003E-01  0.10181611977E+00  0.51100000000E-03 0. -1.
</event>
<event>
 8    1  0.1066842E+005  0.1043930E+01  0.7957747E-01            NaN
         13   -1    0    0    0    0  0.00000000000E+00  0.00000000000E+00  0.74505805969E-08  0.10566000000E+00  0.10566000000E+00 0. -1.
     999900   -1    0    0    0    0 -0.00000000000E+00 -0.00000000000E+00 -0.74505805969E-08  0.93827000000E+00  0.93827000000E+00 0. -1.
     999902    2    1    2    0    0 -0.25266761898E-01 -0.21079840477E-02  0.89228887647E-02  0.10170511831E+01  0.10166959419E+01 0.  0.
     999903    2    3    3    0    0  0.51172198156E-02 -0.11171764073E-01 -0.12384344918E+00  0.12652760737E+00  0.22826328442E-01 0.  0.
         14    1    1    2    0    0  0.25266761898E-01  0.21079840477E-02 -0.89228887647E-02  0.26878816891E-01  0.00000000000E+00 0.  1.
     999901    1    3    3    0    0 -0.30383981713E-01  0.90637800250E-02  0.13276633795E+00  0.89052357574E+00  0.88000000000E+00 0.  1.
        -11    1    4    4    0    0  0.12033578375E-01  0.73650358468E-03 -0.53005216286E-01  0.54361415733E-01  0.51100000000E-03 0. -1.
         11    1    4    4    0    0 -0.69163585598E-02 -0.11908267657E-01 -0.70838232898E-01  0.72166191638E-01  0.51100000000E-03 0.  1.
</event>
<event>
 8    1  0.1066842E+005  0.1043930E+01  0.7957747E-01            NaN
         13   -1    0    0    0    0  0.00000000000E+00  0.00000000000E+00  0.74505805969E-08  0.10566000000E+00  0.10566000000E+00 0.  1.
     999900   -1    0    0    0    0 -0.00000000000E+00 -0.00000000000E+00 -0.74505805969E-08  0.93827000000E+00  0.93827000000E+00 0. -1.
     999902    2    1    2    0    0  0.22504282696E-01  0.81016467469E-03  0.66140381144E-02  0.10204599210E+01  0.10201899852E+01 0.  0.
     999903    2    3    3    0    0 -0.80857933469E-01  0.24085897333E-01 -0.94635150943E-01  0.12834058723E+00  0.19933857667E-01 0.  0.
         14    1    1    2    0    0 -0.22504282696E-01 -0.81016467469E-03 -0.66140381144E-02  0.23470078965E-01  0.00000000000E+00 0. -1.
     999901    1    3    3    0    0  0.10336221617E+00 -0.23275732658E-01  0.10124918906E+00  0.89211933380E+00  0.88000000000E+00 0.  1.
        -11    1    4    4    0    0 -0.17470291407E-01 -0.26095621561E-02 -0.23343225538E-01  0.29277776486E-01  0.51100000000E-03 0.  1.
         11    1    4    4    0    0 -0.63387642062E-01  0.26695459489E-01 -0.71291925406E-01  0.99062810744E-01  0.51100000000E-03 0. -1.
</event>
<event>
 8    1  0.1066842E+005  0.1043930E+01  0.7957747E-01            NaN
         13   -1    0    0    0    0  0.00000000000E+00  0.00000000000E+00  0.74505805969E-08  0.10566000000E+00  0.10566000000E+00 0.  1.
     999900   -1    0    0    0    0 -0.00000000000E+00 -0.00000000000E+00 -0.74505805969E-08  0.93827000000E+00  0.93827000000E+00 0. -1.
     999902    2    1    2    0    0 -0.96341723879E-03 -0.22916705303E-01  0.82903760900E-02  0.10195407833E+01  0.10192490250E+01 0.  0.
     999903    2    3    3    0    0 -0.85434179952E-01  0.51063311129E-01 -0.77888714548E-01  0.12822984529E+00  0.21674420898E-01 0.  0.
         14    1    1    2    0    0  0.96341723879E-03  0.22916705303E-01 -0.82903760900E-02  0.24389216683E-01  0.00000000000E+00 0.  1.
     999901    1    3    3    0    0  0.84470762714E-01 -0.73980016432E-01  0.86179090638E-01  0.89131093803E+00  0.88000000000E+00 0.  1.
        -11    1    4    4    0    0 -0.35741314339E-01  0.29544135886E-01 -0.25692255511E-01  0.53015569696E-01  0.51100000000E-03 0. -1.
         11    1    4    4    0    0 -0.49692865614E-01  0.21519175243E-01 -0.52196459036E-01  0.75214275593E-01  0.51100000000E-03 0.  1.
</event>
<event>
 8    1  0.1066842E+005  0.1043930E+01  0.7957747E-01            NaN
         13   -1    0    0    0    0  0.00000000000E+00  0.00000000000E+00  0.74505805969E-08  0.10566000000E+00  0.10566000000E+00 0.  1.
     999900   -1    0    0    0    0 -0.00000000000E+00 -0.00000000000E+00 -0.74505805969E-08  0.93827000000E+00  0.93827000000E+00 0.  1.
     999902    2    1    2    0    0 -0.10489939627E-01  0.61214495490E-02  0.19597014677E-01  0.10208745459E+01  0.10206141703E+01 0.  0.
     999903    2    3    3    0    0  0.23579232350E-01 -0.10782526425E+00 -0.63919935403E-01  0.12895546720E+00  0.19012800136E-01 0.  0.
         14    1    1    2    0    0  0.10489939627E-01 -0.61214495490E-02 -0.19597014677E-01  0.23055454066E-01  0.00000000000E+00 0. -1.
     999901    1    3    3    0    0 -0.34069171977E-01  0.11394671380E+00  0.83516950080E-01  0.89191907874E+00  0.88000000000E+00 0. -1.
        -11    1    4    4    0    0  0.21956861390E-01 -0.72182617316E-01 -0.50700209976E-01  0.90902180487E-01  0.51100000000E-03 0.  1.
         11    1    4    4    0    0  0.16223709604E-02 -0.35642646934E-01 -0.13219725427E-01  0.38053286709E-01  0.51100000000E-03 0. -1.
</event>
<event>
 8    1  0.1066842E+005  0.1043930E+01  0.7957747E-01            NaN
         13   -1    0    0    0    0  0.00000000000E+00  0.00000000000E+00  0.74505805969E-08  0.10566000000E+00  0.10566000000E+00 0.  1.
     999900   -1    0    0    0    0 -0.00000000000E+00 -0.00000000000E+00 -0.74505805969E-08  0.93827000000E+00  0.93827000000E+00 0.  1.
     999902    2    1    2    0    0 -0.15213708604E-01  0.42781432388E-02  0.17768898286E-01  0.10201498994E+01  0.10198726999E+01 0.  0.
     999903    2    3    3    0    0 -0.84913457156E-03 -0.12083973046E+00  0.45758413036E-01  0.13074322286E+00  0.19924770377E-01 0.  0.
         14    1    1    2    0    0  0.15213708604E-01 -0.42781432388E-02 -0.17768898286E-01  0.23780100617E-01  0.00000000000E+00 0. -1.
     999901    1    3    3    0    0 -0.14364574032E-01  0.12511787369E+00 -0.27989514750E-01  0.88940667652E+00  0.88000000000E+00 0. -1.
        -11    1    4    4    0    0 -0.48640739991E-02 -0.39488831687E-01  0.64766359633E-02  0.40314203183E-01  0.51100000000E-03 0.  1.
         11    1    4    4    0    0  0.40149394276E-02 -0.81350898768E-01  0.39281777073E-01  0.90429019679E-01  0.51100000000E-03 0. -1.
</event>
<event>
 8    1  0.1066842E+005  0.1043930E+01  0.7957747E-01            NaN
         13   -1    0    0    0    0  0.00000000000E+00  0.00000000000E+00  0.74505805969E-08  0.10566000000E+00  0.10566000000E+00 0.  1.
     999900   -1    0    0    0    0 -0.00000000000E+00 -0.00000000000E+00 -0.74505805969E-08  0.93827000000E+00  0.93827000000E+00 0.  1.
     999902    2    1    2    0    0  0.25748420613E-02 -0.23738447028E-01 -0.37510200992E-02  0.10197594843E+01  0.10194729972E+01 0.  0.
     999903    2    3    3    0    0  0.11864200276E+00  0.45365642887E-01  0.19892646561E-01  0.12913836168E+00  0.12125703886E-01 0.  0.
         14    1    1    2    0    0 -0.25748420613E-02  0.23738447028E-01  0.37510200992E-02  0.24170515731E-01  0.00000000000E+00 0. -1.
     999901    1    3    3    0    0 -0.11606716070E+00 -0.69104089915E-01 -0.23643666660E-01  0.89062112259E+00  0.88000000000E+00 0.  1.
        -11    1    4    4    0    0  0.45054162768E-01  0.19347988602E-01  0.20882934432E-02  0.49079978975E-01  0.51100000000E-03 0. -1.
         11    1    4    4    0    0  0.73587839996E-01  0.26017654285E-01  0.17804353118E-01  0.80058382701E-01  0.51100000000E-03 0.  1.
</event>
<event>
 8    1  0.1066842E+005  0.1043930E+01  0.7957747E-01            NaN
         13   -1    0    0    0    0  0.00000000000E+00  0.00000000000E+00  0.74505805969E-08  0.10566000000E+00  0.10566000000E+00 0. -1.
     999900   -1    0    0    0    0 -0.00000000000E+00 -0.00000000000E+00 -0.74505805969E-08  0.93827000000E+00  0.93827000000E+00 0.  1.
     999902    2    1    2    0    0  0.17435675764E-01 -0.15102848902E-01  0.65239158661E-02  0.10199579264E+01  0.10196761796E+01 0.  0.
     999903    2    3    3    0    0 -0.13525330512E-01 -0.11726233844E+00  0.55857254389E-01  0.13213535207E+00  0.20157574641E-01 0.  0.
         14    1    1    2    0    0 -0.17435675764E-01  0.15102848902E-01 -0.65239158661E-02  0.23972073597E-01  0.00000000000E+00 0. -1.
     999901    1    3    3    0    0  0.30961006276E-01  0.10215948954E+00 -0.49333338523E-01  0.88782257434E+00  0.88000000000E+00 0.  1.
        -11    1    4    4    0    0 -0.10673874433E-02 -0.80358590448E-01  0.42790152985E-01  0.91048891746E-01  0.51100000000E-03 0. -1.
         11    1    4    4    0    0 -0.12457943069E-01 -0.36903747994E-01  0.13067101404E-01  0.41086460320E-01  0.51100000000E-03 0.  1.
</event>
<event>
 8    1  0.1066842E+005  0.1043930E+01  0.7957747E-01            NaN
         13   -1    0    0    0    0  0.00000000000E+00  0.00000000000E+00  0.74505805969E-08  0.10566000000E+00  0.10566000000E+00 0.  1.
     999900   -1    0    0    0    0 -0.00000000000E+00 -0.00000000000E+00 -0.74505805969E-08  0.93827000000E+00  0.93827000000E+00 0. -1.
     999902    2    1    2    0    0 -0.16530442847E-01  0.10178468056E-01 -0.12973195820E-01  0.10205813263E+01  0.10203142080E+01 0.  0.
     999903    2    3    3    0    0  0.14330777753E-01  0.79071956701E-01  0.99771828618E-01  0.13018244478E+00  0.23136672535E-01 0.  0.
         14    1    1    2    0    0  0.16530442847E-01 -0.10178468056E-01  0.12973195820E-01  0.23348673677E-01  0.00000000000E+00 0.  1.
     999901    1    3    3    0    0 -0.30861220600E-01 -0.68893488645E-01 -0.11274502444E+00  0.89039888154E+00  0.88000000000E+00 0. -1.
        -11    1    4    4    0    0 -0.43201361875E-02  0.30027722405E-01  0.28096057700E-01  0.41351871407E-01  0.51100000000E-03 0.  1.
         11    1    4    4    0    0  0.18650913941E-01  0.49044234296E-01  0.71675770918E-01  0.88830573375E-01  0.51100000000E-03 0. -1.
</event>
<event>
 8    1  0.1066842E+005  0.1043930E+01  0.7957747E-01            NaN
         13   -1    0    0    0    0  0.00000000000E+00  0.00000000000E+00  0.74505805969E-08  0.10566000000E+00  0.10566000000E+00 0. -1.
     999900   -1    0    0    0    0 -0.00000000000E+00 -0.00000000000E+00 -0.74505805969E-08  0.93827000000E+00  0.93827000000E+00 0.  1.
     999902    2    1    2    0    0 -0.43451008142E-02 -0.92845961222E-02  0.21597935956E-01  0.10200227947E+01  0.10197425887E+01 0.  0.
     999903    2    3    3    0    0  0.10125463847E+00  0.74571608007E-02  0.81093884818E-01  0.13155706141E+00  0.20565290965E-01 0.  0.
         14    1    1    2    0    0  0.43451008142E-02  0.92845961222E-02 -0.21597935956E-01  0.23907205270E-01  0.00000000000E+00 0.  1.
     999901    1    3    3    0    0 -0.10559973928E+00 -0.16741756923E-01 -0.59495948862E-01  0.88846573332E+00  0.88000000000E+00 0.  1.
        -11    1    4    4    0    0  0.96247708610E-02  0.70646784534E-02  0.88248160336E-02  0.14855450003E-01  0.51100000000E-03 0.  1.
         11    1    4    4    0    0  0.91629867606E-01  0.39248234736E-03  0.72269068784E-01  0.11670161140E+00  0.51100000000E-03 0. -1.
</event>
<event>
 8    1  0.1066842E+005  0.1043930E+01  0.7957747E-01            NaN
         13   -1    0    0    0    0  0.00000000000E+00  0.00000000000E+00  0.74505805969E-08  0.10566000000E+00  0.10566000000E+00 0.  1.
     999900   -1    0    0    0    0 -0.00000000000E+00 -0.00000000000E+00 -0.74505805969E-08  0.93827000000E+00  0.93827000000E+00 0.  1.
     999902    2    1    2    0    0  0.13871728623E-01 -0.16166857629E-01 -0.10954290297E-01  0.10199761148E+01  0.10196948005E+01 0.  0.
     999903    2    3    3    0    0 -0.54095522415E-02  0.47523462507E-01 -0.12002946480E+00  0.13074857453E+00  0.20009362218E-01 0.  0.
         14    1    1    2    0    0 -0.13871728623E-01  0.16166857629E-01  0.10954290297E-01  0.23953885206E-01  0.00000000000E+00 0. -1.
     999901    1    3    3    0    0  0.19281280865E-01 -0.63690320136E-01  0.10907517451E+00  0.88922754026E+00  0.88000000000E+00 0. -1.
        -11    1    4    4    0    0 -0.79422149873E-02  0.44149804815E-01 -0.91515715569E-01  0.10191992622E+00  0.51100000000E-03 0.  1.
         11    1    4    4    0    0  0.25326627459E-02  0.33736576926E-02 -0.28513749234E-01  0.28828648307E-01  0.51100000000E-03 0. -1.
</event>
<event>
 8    1  0.1066842E+005  0.1043930E+01  0.7957747E-01            NaN
         13   -1    0    0    0    0  0.00000000000E+00  0.00000000000E+00  0.74505805969E-08  0.10566000000E+00  0.10566000000E+00 0.  1.
     999900   -1    0    0    0    0 -0.00000000000E+00 -0.00000000000E+00 -0.74505805969E-08  0.93827000000E+00  0.93827000000E+00 0.  1.
     999902    2    1    2    0    0 -0.95382508524E-02  0.17944698628E-01 -0.18479236768E-01  0.10164623348E+01  0.10160911404E+01 0.  0.
     999903    2    3    3    0    0 -0.32697779625E-01 -0.46626184794E-01  0.10899037781E+00  0.12463596978E+00  0.20299670117E-01 0.  0.
         14    1    1    2    0    0  0.95382508524E-02 -0.17944698628E-01  0.18479236768E-01  0.27467665166E-01  0.00000000000E+00 0.  1.
     999901    1    3    3    0    0  0.23159528772E-01  0.64570883421E-01 -0.12746961458E+00  0.89182636505E+00  0.88000000000E+00 0.  1.
        -11    1    4    4    0    0 -0.20352796174E-01 -0.11897873646E-01  0.43962577935E-01  0.49887524383E-01  0.51100000000E-03 0.  1.
         11    1    4    4    0    0 -0.12344983451E-01 -0.34728311147E-01  0.65027799879E-01  0.74748445400E-01  0.51100000000E-03 0. -1.
</event>
<event>
 8    1  0.1066842E+005  0.1043930E+01  0.7957747E-01            NaN
         13   -1    0    0    0    0  0.00000000000E+00  0.00000000000E+00  0.74505805969E-08  0.10566000000E+00  0.10566000000E+00 0. -1.
     999900   -1    0    0    0    0 -0.00000000000E+00 -0.00000000000E+00 -0.74505805969E-08  0.93827000000E+00  0.93827000000E+00 0. -1.
     999902    2    1    2    0    0 -0.24506088361E-01  0.13680657783E-03 -0.83537543650E-02  0.10180388375E+01  0.10177095472E+01 0.  0.
     999903    2    3    3    0    0  0.51388596139E-01 -0.50292244991E-01  0.10215508908E+00  0.12645861294E+00  0.19647413124E-01 0.  0.
         14    1    1    2    0    0  0.24506088361E-01 -0.13680657783E-03  0.83537543650E-02  0.25891162484E-01  0.00000000000E+00 0.  1.
     999901    1    3    3    0    0 -0.75894684500E-01  0.50429051569E-01 -0.11050884344E+00  0.89158022458E+00  0.88000000000E+00 0. -1.
        -11    1    4    4    0    0  0.28850562587E-01 -0.25378788784E-01  0.38031397018E-01  0.54065572797E-01  0.51100000000E-03 0. -1.
         11    1    4    4    0    0  0.22538033552E-01 -0.24913456208E-01  0.64123692060E-01  0.72393040142E-01  0.51100000000E-03 0.  1.
</event>
<event>
 8    1  0.1066842E+005  0.1043930E+01  0.7957747E-01            NaN
         13   -1    0    0    0    0  0.00000000000E+00  0.00000000000E+00  0.74505805969E-08  0.10566000000E+00  0.10566000000E+00 0.  1.
     999900   -1    0    0    0    0 -0.00000000000E+00 -0.00000000000E+00 -0.74505805969E-08  0.93827000000E+00  0.93827000000E+00 0. -1.
     999902    2    1    2    0    0  0.22664883219E-01  0.61504208244E-02 -0.35114805024E-02  0.10201843667E+01  0.10199079796E+01 0.  0.
     999903    2    3    3    0    0 -0.73763266182E-01 -0.45186670418E-01  0.92435181126E-01  0.12825407408E+00  0.20542399740E-01 0.  0.
         14    1    1    2    0    0 -0.22664883219E-01 -0.61504208244E-02  0.35114805024E-02  0.23745633345E-01  0.00000000000E+00 0.  1.
     999901    1    3    3    0    0  0.96428149401E-01  0.51337091243E-01 -0.95946661629E-01  0.89193029257E+00  0.88000000000E+00 0. -1.
        -11    1    4    4    0    0 -0.28850048872E-01 -0.13654602083E-01  0.47976236809E-01  0.57625982832E-01  0.51100000000E-03 0. -1.
         11    1    4    4    0    0 -0.44913217311E-01 -0.31532068335E-01  0.44458944317E-01  0.70628091249E-01  0.51100000000E-03 0.  1.
</event>
<event>
 8    1  0.1066842E+005  0.1043930E+01  0.7957747E-01            NaN
         13   -1    0    0    0    0  0.00000000000E+00  0.00000000000E+00  0.74505805969E-08  0.10566000000E+00  0.10566000000E+00 0. -1.
     999900   -1    0    0    0    0 -0.00000000000E+00 -0.00000000000E+00 -0.74505805969E-08  0.93827000000E+00  0.93827000000E+00 0.  1.
     999902    2    1    2    0    0  0.10913830870E-01 -0.17540301942E-01 -0.16957275371E-01  0.10172031767E+01  0.10168519949E+01 0.  0.
     999903    2    3    3    0    0 -0.47517916084E-01  0.51417396954E-01 -0.10518572712E+00  0.12818478937E+00  0.21577812143E-01 0.  0.
         14    1    1    2    0    0 -0.10913830870E-01  0.17540301942E-01  0.16957275371E-01  0.26726823314E-01  0.00000000000E+00 0.  1.
     999901    1    3    3    0    0  0.58431746954E-01 -0.68957698895E-01  0.88228451751E-01  0.88901838732E+00  0.88000000000E+00 0. -1.
        -11    1    4    4    0    0 -0.37168736405E-01  0.27782059718E-01 -0.77535328706E-01  0.90362304788E-01  0.51100000000E-03 0. -1.
         11    1    4    4    0    0 -0.10349179679E-01  0.23635337236E-01 -0.27650398416E-01  0.37822484581E-01  0.51100000000E-03 0.  1.
</event>
<event>
 8    1  0.1066842E+005  0.1043930E+01  0.7957747E-01            NaN
         13   -1    0    0    0    0  0.00000000000E+00  0.00000000000E+00  0.74505805969E-08  0.10566000000E+00  0.10566000000E+00 0. -1.
     999900   -1    0    0    0    0 -0.00000000000E+00 -0.00000000000E+00 -0.74505805969E-08  0.93827000000E+00  0.93827000000E+00 0.  1.
     999902    2    1    2    0    0 -0.10370617808E-01 -0.20904839040E-01  0.73393599146E-02  0.10194672076E+01  0.10191736648E+01 0.  0.
     999903    2    3    3    0    0 -0.42390171426E-01  0.10791089598E+00 -0.49874369820E-01  0.12767566452E+00  0.19285601888E-01 0.  0.
         14    1    1    2    0    0  0.10370617808E-01  0.20904839040E-01 -0.73393599146E-02  0.24462792419E-01  0.00000000000E+00 0.  1.
     999901    1    3    3    0    0  0.32019553618E-01 -0.12881573502E+00  0.57213729734E-01  0.89179154306E+00  0.88000000000E+00 0. -1.
        -11    1    4    4    0    0 -0.10235462563E-01  0.51918642698E-01 -0.24137456484E-01  0.58165179274E-01  0.51100000000E-03 0. -1.
         11    1    4    4    0    0 -0.32154708863E-01  0.55992253287E-01 -0.25736913336E-01  0.69510485247E-01  0.51100000000E-03 0.  1.
</event>
<event>
 8    1  0.1066842E+005  0.1043930E+01  0.7957747E-01            NaN
         13   -1    0    0    0    0  0.00000000000E+00  0.00000000000E+00  0.74505805969E-08  0.10566000000E+00  0.10566000000E+00 0.  1.
     999900   -1    0    0    0    0 -0.00000000000E+00 -0.00000000000E+00 -0.74505805969E-08  0.93827000000E+00  0.93827000000E+00 0. -1.
     999902    2    1    2    0    0 -0.13105712371E-01 -0.83448012415E-02  0.28336801439E-01  0.10116132904E+01  0.10110969684E+01 0.  0.
     999903    2    3    3    0    0  0.72037351718E-01 -0.73311926598E-01 -0.58409091676E-01  0.12088610504E+00  0.25254896111E-01 0.  0.
         14    1    1    2    0    0  0.13105712371E-01  0.83448012415E-02 -0.28336801439E-01  0.32316709614E-01  0.00000000000E+00 0. -1.
     999901    1    3    3    0    0 -0.85143064090E-01  0.64967125356E-01  0.86745893114E-01  0.89072718534E+00  0.88000000000E+00 0.  1.
        -11    1    4    4    0    0  0.23949599695E-01 -0.30157272277E-01 -0.35358859762E-01  0.52283405411E-01  0.51100000000E-03 0.  1.
         11    1    4    4    0    0  0.48087752024E-01 -0.43154654321E-01 -0.23050231914E-01  0.68602699630E-01  0.51100000000E-03 0. -1.
</event>
<event>
 8    1  0.1066842E+005  0.1043930E+01  0.7957747E-01            NaN
         13   -1    0    0    0    0  0.00000000000E+00  0.00000000000E+00  0.74505805969E-08  0.10566000000E+00  0.10566000000E+00 0. -1.
     999900   -1    0    0    0    0 -0.00000000000E+00 -0.00000000000E+00 -0.74505805969E-08  0.93827000000E+00  0.93827000000E+00 0. -1.
     999902    2    1    2    0    0  0.20941402591E-02  0.10803927060E-01 -0.21583376441E-01  0.10197028994E+01  0.10194150532E+01 0.  0.
     999903    2    3    3    0    0  0.11703811340E+00  0.52473081491E-01  0.13864080457E-01  0.13054320759E+00  0.19949236900E-01 0.  0.
         14    1    1    2    0    0 -0.20941402591E-02 -0.10803927060E-01  0.21583376441E-01  0.24227100568E-01  0.00000000000E+00 0. -1.
     999901    1    3    3    0    0 -0.11494397314E+00 -0.41669154432E-01 -0.35447456898E-01  0.88915969184E+00  0.88000000000E+00 0. -1.
        -11    1    4    4    0    0  0.38399444085E-01  0.26793794529E-01  0.11121328106E-02  0.46839328472E-01  0.51100000000E-03 0. -1.
         11    1    4    4    0    0  0.78638669312E-01  0.25679286962E-01  0.12751947647E-01  0.83703879121E-01  0.51100000000E-03 0.  1.
</event>
<event>
 8    1  0.1066842E+005  0.1043930E+01  0.7957747E-01            NaN
         13   -1    0    0    0    0  0.00000000000E+00  0.00000000000E+00  0.74505805969E-08  0.10566000000E+00  0.10566000000E+00 0. -1.
     999900   -1    0    0    0    0 -0.00000000000E+00 -0.00000000000E+00 -0.74505805969E-08  0.93827000000E+00  0.93827000000E+00 0. -1.
     999902    2    1    2    0    0 -0.23759173021E-01  0.31477877940E-03 -0.60229949501E-02  0.10194172715E+01  0.10191225145E+01 0.  0.
     999903    2    3    3    0    0  0.10753312996E+00  0.55352765784E-01 -0.34875650507E-01  0.12750958318E+00  0.20373514306E-01 0.  0.
         14    1    1    2    0    0  0.23759173021E-01 -0.31477877940E-03  0.60229949501E-02  0.24512728458E-01  0.00000000000E+00 0. -1.
     999901    1    3    3    0    0 -0.13129230298E+00 -0.55037987005E-01  0.28852655557E-01  0.89190768837E+00  0.88000000000E+00 0.  1.
        -11    1    4    4    0    0  0.34521884604E-01  0.75181213406E-02 -0.11229233913E-01  0.37076130872E-01  0.51100000000E-03 0.  1.
         11    1    4    4    0    0  0.73011245352E-01  0.47834644444E-01 -0.23646416594E-01  0.90433452304E-01  0.51100000000E-03 0. -1.
</event>
<event>
 8    1  0.1066842E+005  0.1043930E+01  0.7957747E-01            NaN
         13   -1    0    0    0    0  0.00000000000E+00  0.00000000000E+00  0.74505805969E-08  0.10566000000E+00  0.10566000000E+00 0.  1.
     999900   -1    0    0    0    0 -0.00000000000E+00 -0.00000000000E+00 -0.74505805969E-08  0.93827000000E+00  0.93827000000E+00 0.  1.
     999902    2    1    2    0    0 -0.16486015746E-01 -0.15347707811E-01  0.70108937066E-02  0.10203398860E+01  0.10200671494E+01 0.  0.
     999903    2    3    3    0    0  0.12543893856E+00 -0.11670043953E-01  0.19158097975E-01  0.12887829259E+00  0.19273410428E-01 0.  0.
         14    1    1    2    0    0  0.16486015746E-01  0.15347707811E-01 -0.70108937066E-02  0.23590114048E-01  0.00000000000E+00 0.  1.
     999901    1    3    3    0    0 -0.14192495431E+00 -0.36776638582E-02 -0.12147204268E-01  0.89146159336E+00  0.88000000000E+00 0.  1.
        -11    1    4    4    0    0  0.95825830838E-01 -0.99334578366E-03  0.16930870725E-01  0.97316453368E-01  0.51100000000E-03 0.  1.
         11    1    4    4    0    0  0.29613107725E-01 -0.10676698169E-01  0.22272272500E-02  0.31561839223E-01  0.51100000000E-03 0. -1.
</event>
<event>
 8    1  0.1066842E+005  0.1043930E+01  0.7957747E-01            NaN
         13   -1    0    0    0    0  0.00000000000E+00  0.00000000000E+00  0.74505805969E-08  0.10566000000E+00  0.10566000000E+00 0.  1.
     999900   -1    0    0    0    0 -0.00000000000E+00 -0.00000000000E+00 -0.74505805969E-08  0.93827000000E+00  0.93827000000E+00 0. -1.
     999902    2    1    2    0    0 -0.17492145221E-01 -0.14052682294E-01 -0.43067199366E-02  0.10210826618E+01  0.10208270184E+01 0.  0.
     999903    2    3    3    0    0  0.11252518587E+00  0.58766296219E-01  0.50893058093E-02  0.12850471269E+00  0.19291581710E-01 0.  0.
         14    1    1    2    0    0  0.17492145221E-01  0.14052682294E-01  0.43067199366E-02  0.22847338154E-01  0.00000000000E+00 0.  1.
     999901    1    3    3    0    0 -0.13001733109E+00 -0.72818978514E-01 -0.93960257459E-02  0.89257794915E+00  0.88000000000E+00 0.  1.
        -11    1    4    4    0    0  0.51894470911E-01  0.26329713875E-01  0.11920085928E-01  0.59402352760E-01  0.51100000000E-03 0.  1.
         11    1    4    4    0    0  0.60630714956E-01  0.32436582344E-01 -0.68307801190E-02  0.69102359933E-01  0.51100000000E-03 0. -1.
</event>
<event>
 8    1  0.1066842E+005  0.1043930E+01  0.7957747E-01            NaN
         13   -1    0    0    0    0  0.00000000000E+00  0.00000000000E+00  0.74505805969E-08  0.10566000000E+00  0.10566000000E+00 0.  1.
     999900   -1    0    0    0    0 -0.00000000000E+00 -0.00000000000E+00 -0.74505805969E-08  0.93827000000E+00  0.93827000000E+00 0. -1.
     999902    2    1    2    0    0  0.18978944959E-01 -0.10545051557E-01  0.79424255157E-02  0.10208111638E+01  0.10205493381E+01 0.  0.
     999903    2    3    3    0    0  0.55901718091E-01 -0.10189880397E+00 -0.60886350751E-01  0.13264102261E+00  0.19445432291E-01 0.  0.
         14    1    1    2    0    0 -0.18978944959E-01  0.10545051557E-01 -0.79424255157E-02  0.23118836198E-01  0.00000000000E+00 0.  1.
     999901    1    3    3    0    0 -0.36922773133E-01  0.91353752409E-01  0.68828776266E-01  0.88817014119E+00  0.88000000000E+00 0. -1.
        -11    1    4    4    0    0  0.39341078520E-01 -0.52518017059E-01 -0.30798983567E-01  0.72489317038E-01  0.51100000000E-03 0.  1.
         11    1    4    4    0    0  0.16560639572E-01 -0.49380786907E-01 -0.30087367184E-01  0.60151705576E-01  0.51100000000E-03 0. -1.
</event>
<event>
 8    1  0.1066842E+005  0.1043930E+01  0.7957747E-01            NaN
         13   -1    0    0    0    0  0.00000000000E+00  0.00000000000E+00  0.74505805969E-08  0.10566000000E+00  0.10566000000E+00 0.  1.
     999900   -1    0    0    0    0 -0.00000000000E+00 -0.00000000000E+00 -0.74505805969E-08  0.93827000000E+00  0.93827000000E+00 0. -1.
     999902    2    1    2    0    0 -0.59219624791E-02 -0.86719874411E-03  0.30522237054E-01  0.10128264853E+01  0.10123487841E+01 0.  0.
     999903    2    3    3    0    0  0.19754117716E-01  0.11777016687E+00 -0.21198039516E-01  0.12298994264E+00  0.20423803223E-01 0.  0.
         14    1    1    2    0    0  0.59219624791E-02  0.86719874411E-03 -0.30522237054E-01  0.31103514721E-01  0.00000000000E+00 0. -1.
     999901    1    3    3    0    0 -0.25676080195E-01 -0.11863736562E+00  0.51720276570E-01  0.88983654264E+00  0.88000000000E+00 0.  1.
        -11    1    4    4    0    0 -0.23298410173E-02  0.41837877257E-01 -0.10389654667E-01  0.43174554747E-01  0.51100000000E-03 0. -1.
         11    1    4    4    0    0  0.22083958733E-01  0.75932289616E-01 -0.10808384849E-01  0.79815387888E-01  0.51100000000E-03 0.  1.
</event>
<event>
 8    1  0.1066842E+005  0.1043930E+01  0.7957747E-01            NaN
         13   -1    0    0    0    0  0.00000000000E+00  0.00000000000E+00  0.74505805969E-08  0.10566000000E+00  0.10566000000E+00 0.  1.
     999900   -1    0    0    0    0 -0.00000000000E+00 -0.00000000000E+00 -0.74505805969E-08  0.93827000000E+00  0.93827000000E+00 0.  1.
     999902    2    1    2    0    0 -0.13913225185E-02  0.23050627633E-01 -0.63184918476E-02  0.10199886017E+01  0.10197075841E+01 0.  0.
     999903    2    3    3    0    0  0.11275808977E+00 -0.27456200103E-01 -0.54773982573E-01  0.12985998036E+00  0.19879527147E-01 0.  0.
         14    1    1    2    0    0  0.13913225185E-02 -0.23050627633E-01  0.63184918476E-02  0.23941398285E-01  0.00000000000E+00 0.  1.
     999901    1    3    3    0    0 -0.11414941229E+00  0.50506827736E-01  0.48455490725E-01  0.89012862135E+00  0.88000000000E+00 0. -1.
        -11    1    4    4    0    0  0.29961961289E-01 -0.96371410330E-02 -0.24606527496E-01  0.39954172848E-01  0.51100000000E-03 0. -1.
         11    1    4    4    0    0  0.82796128481E-01 -0.17819059070E-01 -0.30167455077E-01  0.89905807512E-01  0.51100000000E-03 0.  1.
</event>
<event>
 8    1  0.1066842E+005  0.1043930E+01  0.7957747E-01            NaN
         13   -1    0    0    0    0  0.00000000000E+00  0.00000000000E+00  0.74505805969E-08  0.10566000000E+00  0.10566000000E+00 0.  1.
     999900   -1    0    0    0    0 -0.00000000000E+00 -0.00000000000E+00 -0.74505805969E-08  0.93827000000E+00  0.93827000000E+00 0. -1.
     999902    2    1    2    0    0 -0.15773540775E-02  0.21363554547E-01 -0.88613541592E-02  0.10207478278E+01  0.10204845491E+01 0.  0.
     999903    2    3    3    0    0 -0.68935212637E-01 -0.10527433989E+00  0.15696379324E-01  0.12879641678E+00  0.22525329533E-01 0.  0.
         14    1    1    2    0    0  0.15773540775E-02 -0.21363554547E-01  0.88613541592E-02  0.23182172165E-01  0.00000000000E+00 0.  1.
     999901    1    3    3    0    0  0.67357858559E-01  0.12663789443E+00 -0.24557733483E-01  0.89195141106E+00  0.88000000000E+00 0. -1.
        -11    1    4    4    0    0 -0.41086293841E-01 -0.55349112477E-01  0.19083824004E-01  0.71526647155E-01  0.51100000000E-03 0.  1.
         11    1    4    4    0    0 -0.27848918796E-01 -0.49925227410E-01 -0.33874446801E-02  0.57269769621E-01  0.51100000000E-03 0. -1.
</event>
<event>
 8    1  0.1066842E+005  0.1043930E+01  0.7957747E-01            NaN
         13   -1    0    0    0    0  0.00000000000E+00  0.00000000000E+00  0.74505805969E-08  0.10566000000E+00  0.10566000000E+00 0.  1.
     999900   -1    0    0    0    0 -0.00000000000E+00 -0.00000000000E+00 -0.74505805969E-08  0.93827000000E+00  0.93827000000E+00 0. -1.
     999902    2    1    2    0    0  0.10329006622E-01 -0.18437351306E-01 -0.86173630741E-02  0.10211071332E+01  0.10208520433E+01 0.  0.
     999903    2    3    3    0    0 -0.42589906033E-02  0.21272023273E-01  0.12632924116E+00  0.12981580595E+00  0.20553061281E-01 0.  0.
         14    1    1    2    0    0 -0.10329006622E-01  0.18437351306E-01  0.86173630741E-02  0.22822866764E-01  0.00000000000E+00 0.  1.
     999901    1    3    3    0    0  0.14587997225E-01 -0.39709374578E-01 -0.13494660424E+00  0.89129132728E+00  0.88000000000E+00 0. -1.
        -11    1    4    4    0    0 -0.19084933191E-03  0.24559901780E-01  0.10710113683E+00  0.10988239090E+00  0.51100000000E-03 0.  1.
         11    1    4    4    0    0 -0.40681412714E-02 -0.32878785074E-02  0.19228104331E-01  0.19933415053E-01  0.51100000000E-03 0. -1.
</event>
<event>
 8    1  0.1066842E+005  0.1043930E+01  0.7957747E-01            NaN
         13   -1    0    0    0    0  0.00000000000E+00  0.00000000000E+00  0.74505805969E-08  0.10566000000E+00  0.10566000000E+00 0. -1.
     999900   -1    0    0    0    0 -0.00000000000E+00 -0.00000000000E+00 -0.74505805969E-08  0.93827000000E+00  0.93827000000E+00 0.  1.
     999902    2    1    2    0    0 -0.10732480629E-01  0.37900295648E-02  0.21018460577E-01  0.10200275702E+01  0.10197474775E+01 0.  0.
     999903    2    3    3    0    0  0.10486016216E+00  0.57972423752E-01 -0.40395040991E-01  0.12869765987E+00  0.23976505039E-01 0.  0.
         14    1    1    2    0    0  0.10732480629E-01 -0.37900295648E-02 -0.21018460577E-01  0.23902429784E-01  0.00000000000E+00 0.  1.
     999901    1    3    3    0    0 -0.11559264279E+00 -0.54182394187E-01  0.61413501568E-01  0.89132991035E+00  0.88000000000E+00 0. -1.
        -11    1    4    4    0    0  0.30828352949E-01  0.52213952133E-02 -0.11297256946E-01  0.33249653367E-01  0.51100000000E-03 0.  1.
         11    1    4    4    0    0  0.74031809215E-01  0.52751028538E-01 -0.29097784045E-01  0.95448006500E-01  0.51100000000E-03 0. -1.
</event>
<event>
 8    1  0.1066842E+005  0.1043930E+01  0.7957747E-01            NaN
         13   -1    0    0    0    0  0.00000000000E+00  0.00000000000E+00  0.74505805969E-08  0.10566000000E+00  0.10566000000E+00 0. -1.
     999900   -1    0    0    0    0 -0.00000000000E+00 -0.00000000000E+00 -0.74505805969E-08  0.93827000000E+00  0.93827000000E+00 0.  1.
     999902    2    1    2    0    0 -0.95755390134E-02 -0.20274453381E-01  0.35922082646E-02  0.10212221078E+01  0.10209696103E+01 0.  0.
     999903    2    3    3    0    0 -0.79385338347E-01 -0.62012332080E-01 -0.84606675406E-01  0.13308107077E+00  0.20117668843E-01 0.  0.
         14    1    1    2    0    0  0.95755390134E-02  0.20274453381E-01 -0.35922082646E-02  0.22707892185E-01  0.00000000000E+00 0.  1.
     999901    1    3    3    0    0  0.69809799334E-01  0.41737878699E-01  0.88198883671E-01  0.88814103704E+00  0.88000000000E+00 0. -1.
        -11    1    4    4    0    0 -0.32447289562E-01 -0.19429489437E-01 -0.42993709721E-01  0.57263006001E-01  0.51100000000E-03 0. -1.
         11    1    4    4    0    0 -0.46938048785E-01 -0.42582842643E-01 -0.41612965686E-01  0.75818064770E-01  0.51100000000E-03 0.  1.
</event>
<event>
 8    1  0.1066842E+005  0.1043930E+01  0.7957747E-01            NaN
         13   -1    0    0    0    0  0.00000000000E+00  0.00000000000E+00  0.74505805969E-08  0.10566000000E+00  0.10566000000E+00 0.  1.
     999900   -1    0    0    0    0 -0.00000000000E+00 -0.00000000000E+00 -0.74505805969E-08  0.93827000000E+00  0.93827000000E+00 0.  1.
     999902    2    1    2    0    0 -0.12639006146E-01  0.18678586080E-01  0.76419081203E-02  0.10201175492E+01  0.10198395861E+01 0.  0.
     999903    2    3    3    0    0 -0.11997364682E+00  0.61115148819E-02  0.50733558916E-01  0.13246021285E+00  0.23254837011E-01 0.  0.
         14    1    1    2    0    0  0.12639006146E-01 -0.18678586080E-01 -0.76419081203E-02  0.23812450819E-01  0.00000000000E+00 0. -1.
     999901    1    3    3    0    0  0.10733464067E+00  0.12567071198E-01 -0.43091650795E-01  0.88765733633E+00  0.88000000000E+00 0.  1.
        -11    1    4    4    0    0 -0.54492733146E-01 -0.75234133874E-02  0.28624336191E-01  0.62013494161E-01  0.51100000000E-03 0.  1.
         11    1    4    4    0    0 -0.65480913671E-01  0.13634928269E-01  0.22109222725E-01  0.70446718693E-01  0.51100000000E-03 0. -1.
</event>
<event>
 8    1  0.1066842E+005  0.1043930E+01  0.7957747E-01            NaN
         13   -1    0    0    0    0  0.00000000000E+00  0.00000000000E+00  0.74505805969E-08  0.10566000000E+00  0.10566000000E+00 0. -1.
     999900   -1    0    0    0    0 -0.00000000000E+00 -0.00000000000E+00 -0.74505805969E-08  0.93827000000E+00  0.93827000000E+00 0. -1.
     999902    2    1    2    0    0 -0.11458856243E-01 -0.17374879878E-01 -0.10672547422E-01  0.10205399357E+01  0.10202718586E+01 0.  0.
     999903    2    3    3    0    0  0.23825630895E-01  0.12026563894E+00  0.31444741535E-01  0.12814777225E+00  0.20039839457E-01 0.  0.
         14    1    1    2    0    0  0.11458856243E-01  0.17374879878E-01  0.10672547422E-01  0.23390064250E-01  0.00000000000E+00 0. -1.
     999901    1    3    3    0    0 -0.35284487138E-01 -0.13764051881E+00 -0.42117288957E-01  0.89239216350E+00  0.88000000000E+00 0.  1.
        -11    1    4    4    0    0 -0.28046170424E-02  0.26949779399E-01  0.48938024573E-02  0.27538462373E-01  0.51100000000E-03 0.  1.
         11    1    4    4    0    0  0.26630247937E-01  0.93315859537E-01  0.26550939078E-01  0.10060930987E+00  0.51100000000E-03 0. -1.
</event>
<event>
 8    1  0.1066842E+005  0.1043930E+01  0.7957747E-01            NaN
         13   -1    0    0    0    0  0.00000000000E+00  0.00000000000E+00  0.74505805969E-08  0.10566000000E+00  0.10566000000E+00 0.  1.
     999900   -1    0    0    0    0 -0.00000000000E+00 -0.00000000000E+00 -0.74505805969E-08  0.93827000000E+00  0.93827000000E+00 0. -1.
     999902    2    1    2    0    0 -0.83976109814E-02 -0.22592320109E-01  0.16798808435E-03  0.10198268670E+01  0.10195419941E+01 0.  0.
     999903    2    3    3    0    0 -0.81672859297E-01  0.78864766313E-01 -0.56548742538E-01  0.12916442261E+00  0.24404517494E-01 0.  0.
         14    1    1    2    0    0  0.83976109814E-02  0.22592320109E-01 -0.16798808435E-03  0.24103132952E-01  0.00000000000E+00 0.  1.
     999901    1    3    3    0    0  0.73275248316E-01 -0.10145708642E+00  0.56716730622E-01  0.89066244444E+00  0.88000000000E+00 0.  1.
        -11    1    4    4    0    0 -0.62920060522E-01  0.45750247967E-01 -0.42080201479E-01  0.88447858553E-01  0.51100000000E-03 0.  1.
         11    1    4    4    0    0 -0.18752798775E-01  0.33114518346E-01 -0.14468541058E-01  0.40716564056E-01  0.51100000000E-03 0. -1.
</event>
<event>
 8    1  0.1066842E+005  0.1043930E+01  0.7957747E-01            NaN
         13   -1    0    0    0    0  0.00000000000E+00  0.00000000000E+00  0.74505805969E-08  0.10566000000E+00  0.10566000000E+00 0. -1.
     999900   -1    0    0    0    0 -0.00000000000E+00 -0.00000000000E+00 -0.74505805969E-08  0.93827000000E+00  0.93827000000E+00 0.  1.
     999902    2    1    2    0    0  0.21586239232E-01  0.40135633821E-02  0.84691128729E-02  0.10203970383E+01  0.10201256371E+01 0.  0.
     999903    2    3    3    0    0 -0.93890083334E-02 -0.12480784366E+00  0.29295091569E-01  0.13023517531E+00  0.20924798213E-01 0.  0.
         14    1    1    2    0    0 -0.21586239232E-01 -0.40135633821E-02 -0.84691128729E-02  0.23532961736E-01  0.00000000000E+00 0.  1.
     999901    1    3    3    0    0  0.30975247565E-01  0.12882140704E+00 -0.20825978696E-01  0.89016186296E+00  0.88000000000E+00 0.  1.
        -11    1    4    4    0    0 -0.34114601686E-02 -0.77117395609E-01  0.78197778386E-02  0.77589566389E-01  0.51100000000E-03 0.  1.
         11    1    4    4    0    0 -0.59775481648E-02 -0.47690448053E-01  0.21475313730E-01  0.52645608918E-01  0.51100000000E-03 0. -1.
</event>
<event>
 8    1  0.1066842E+005  0.1043930E+01  0.7957747E-01            NaN
         13   -1    0    0    0    0  0.00000000000E+00  0.00000000000E+00  0.74505805969E-08  0.10566000000E+00  0.10566000000E+00 0.  1.
     999900   -1    0    0    0    0 -0.00000000000E+00 -0.00000000000E+00 -0.74505805969E-08  0.93827000000E+00  0.93827000000E+00 0. -1.
     999902    2    1    2    0    0 -0.15044417434E-01 -0.17656054170E-01  0.61041892785E-02  0.10199439234E+01  0.10196618434E+01 0.  0.
     999903    2    3    3    0    0 -0.12805191338E+00 -0.20191618978E-01 -0.14564673726E-01  0.13247317731E+00  0.23065536866E-01 0.  0.
         14    1    1    2    0    0  0.15044417434E-01  0.17656054170E-01 -0.61041892785E-02  0.23986076618E-01  0.00000000000E+00 0.  1.
     999901    1    3    3    0    0  0.11300749594E+00  0.25355648087E-02  0.20668863004E-01  0.88747074607E+00  0.88000000000E+00 0.  1.
        -11    1    4    4    0    0 -0.32652965650E-01 -0.76186584646E-03 -0.12840972875E-01  0.35099121224E-01  0.51100000000E-03 0. -1.
         11    1    4    4    0    0 -0.95398947726E-01 -0.19429753132E-01 -0.17237008507E-02  0.97374056091E-01  0.51100000000E-03 0.  1.
</event>
<event>
 8    1  0.1066842E+005  0.1043930E+01  0.7957747E-01            NaN
         13   -1    0    0    0    0  0.00000000000E+00  0.00000000000E+00  0.74505805969E-08  0.10566000000E+00  0.10566000000E+00 0. -1.
     999900   -1    0    0    0    0 -0.00000000000E+00 -0.00000000000E+00 -0.74505805969E-08  0.93827000000E+00  0.93827000000E+00 0.  1.
     999902    2    1    2    0    0 -0.67631492851E-02 -0.25574580954E-02  0.15930894049E-01  0.10264350246E+01  0.10262859180E+01 0.  0.
     999903    2    3    3    0    0 -0.56342722004E-01  0.10304386363E+00  0.67882486784E-01  0.13721697416E+00  0.20686368274E-01 0.  0.
         14    1    1    2    0    0  0.67631492851E-02  0.25574580954E-02 -0.15930894049E-01  0.17494975432E-01  0.00000000000E+00 0.  1.
     999901    1    3    3    0    0  0.49579572719E-01 -0.10560132172E+00 -0.51951592735E-01  0.88921805041E+00  0.88000000000E+00 0.  1.
        -11    1    4    4    0    0 -0.49513652571E-01  0.82264612326E-01  0.62877103890E-01  0.11477307849E+00  0.51100000000E-03 0.  1.
         11    1    4    4    0    0 -0.68290694336E-02  0.20779251300E-01  0.50053828944E-02  0.22443895670E-01  0.51100000000E-03 0. -1.
</event>
<event>
 8    1  0.1066842E+005  0.1043930E+01  0.7957747E-01            NaN
         13   -1    0    0    0    0  0.00000000000E+00  0.00000000000E+00  0.74505805969E-08  0.10566000000E+00  0.10566000000E+00 0. -1.
     999900   -1    0    0    0    0 -0.00000000000E+00 -0.00000000000E+00 -0.74505805969E-08  0.93827000000E+00  0.93827000000E+00 0.  1.
     999902    2    1    2    0    0  0.16932611875E-02 -0.17130114430E-01  0.15238613687E-01  0.10209403654E+01  0.10206814911E+01 0.  0.
     999903    2    3    3    0    0  0.45608658533E-01  0.11928017582E+00  0.14444497482E-01  0.12934799211E+00  0.14640678870E-01 0.  0.
         14    1    1    2    0    0 -0.16932611875E-02  0.17130114430E-01 -0.15238613687E-01  0.22989634642E-01  0.00000000000E+00 0.  1.
     999901    1    3    3    0    0 -0.43915397346E-01 -0.13641029026E+00  0.79411620550E-03  0.89159237325E+00  0.88000000000E+00 0. -1.
        -11    1    4    4    0    0  0.15916202867E-01  0.60493622699E-01  0.42116943981E-02  0.62696119431E-01  0.51100000000E-03 0.  1.
         11    1    4    4    0    0  0.29692455667E-01  0.58786553125E-01  0.10232803083E-01  0.66651872681E-01  0.51100000000E-03 0. -1.
</event>
<event>
 8    1  0.1066842E+005  0.1043930E+01  0.7957747E-01            NaN
         13   -1    0    0    0    0  0.00000000000E+00  0.00000000000E+00  0.74505805969E-08  0.10566000000E+00  0.10566000000E+00 0. -1.
     999900   -1    0    0    0    0 -0.00000000000E+00 -0.00000000000E+00 -0.74505805969E-08  0.93827000000E+00  0.93827000000E+00 0.  1.
     999902    2    1    2    0    0  0.23742775337E-01  0.13751753543E-02  0.44284681587E-02  0.10197386417E+01  0.10194516543E+01 0.  0.
     999903    2    3    3    0    0  0.71421458912E-01 -0.18112191330E-01 -0.10675543166E+00  0.13124842005E+00  0.20008730827E-01 0.  0.
         14    1    1    2    0    0 -0.23742775337E-01 -0.13751753543E-02 -0.44284681587E-02  0.24191358337E-01  0.00000000000E+00 0.  1.
     999901    1    3    3    0    0 -0.47678683575E-01  0.19487366684E-01  0.11118389981E+00  0.88849022162E+00  0.88000000000E+00 0. -1.
        -11    1    4    4    0    0  0.11182440305E-01 -0.53065722655E-02 -0.32471977685E-01  0.34754814575E-01  0.51100000000E-03 0.  1.
         11    1    4    4    0    0  0.60239018607E-01 -0.12805619064E-01 -0.74283453970E-01  0.96493605473E-01  0.51100000000E-03 0. -1.
</event>
<event>
 8    1  0.1066842E+005  0.1043930E+01  0.7957747E-01            NaN
         13   -1    0    0    0    0  0.00000000000E+00  0.00000000000E+00  0.74505805969E-08  0.10566000000E+00  0.10566000000E+00 0.  1.
     999900   -1    0    0    0    0 -0.00000000000E+00 -0.00000000000E+00 -0.74505805969E-08  0.93827000000E+00  0.93827000000E+00 0.  1.
     999902    2    1    2    0    0 -0.10827544508E-01  0.19307242437E-01 -0.69782801065E-03  0.10217829394E+01  0.10215428933E+01 0.  0.
     999903    2    3    3    0    0  0.10498013563E+00  0.76781737084E-01 -0.11541342744E-01  0.13227053467E+00  0.21119368426E-01 0.  0.
         14    1    1    2    0    0  0.10827544508E-01 -0.19307242437E-01  0.69782801065E-03  0.22147060629E-01  0.00000000000E+00 0.  1.
     999901    1    3    3    0    0 -0.11580768013E+00 -0.57474494648E-01  0.10843514734E-01  0.88951240471E+00  0.88000000000E+00 0. -1.
        -11    1    4    4    0    0  0.25082318478E-01  0.23925565257E-01  0.50849878687E-02  0.35038173407E-01  0.51100000000E-03 0.  1.
         11    1    4    4    0    0  0.79897817148E-01  0.52856171828E-01 -0.16626330613E-01  0.97232361259E-01  0.51100000000E-03 0. -1.
</event>
<event>
 8    1  0.1066842E+005  0.1043930E+01  0.7957747E-01            NaN
         13   -1    0    0    0    0  0.00000000000E+00  0.00000000000E+00  0.74505805969E-08  0.10566000000E+00  0.10566000000E+00 0.  1.
     999900   -1    0    0    0    0 -0.00000000000E+00 -0.00000000000E+00 -0.74505805969E-08  0.93827000000E+00  0.93827000000E+00 0.  1.
     999902    2    1    2    0    0  0.19386406556E-01 -0.98162479855E-02 -0.93256936548E-02  0.10202834348E+01  0.10200093761E+01 0.  0.
     999903    2    3    3    0    0  0.85309530251E-01 -0.50297813585E-01 -0.87359510717E-01  0.13344980215E+00  0.19224452612E-01 0.  0.
         14    1    1    2    0    0 -0.19386406556E-01  0.98162479855E-02  0.93256936548E-02  0.23646565201E-01  0.00000000000E+00 0.  1.
     999901    1    3    3    0    0 -0.65923123695E-01  0.40481565600E-01  0.78033817062E-01  0.88683363265E+00  0.88000000000E+00 0.  1.
        -11    1    4    4    0    0  0.47866522249E-01 -0.19599242336E-01 -0.37068608219E-01  0.63637073225E-01  0.51100000000E-03 0. -1.
         11    1    4    4    0    0  0.37443008002E-01 -0.30698571249E-01 -0.50290902498E-01  0.69812728925E-01  0.51100000000E-03 0.  1.
</event>
<event>
 8    1  0.1066842E+005  0.1043930E+01  0.7957747E-01            NaN
         13   -1    0    0    0    0  0.00000000000E+00  0.00000000000E+00  0.74505805969E-08  0.10566000000E+00  0.10566000000E+00 0.  1.
     999900   -1    0    0    0    0 -0.00000000000E+00 -0.00000000000E+00 -0.74505805969E-08  0.93827000000E+00  0.93827000000E+00 0.  1.
     999902    2    1    2    0    0 -0.15059987503E-01  0.77573993341E-02  0.15018815038E-01  0.10212905373E+01  0.10210395762E+01 0.  0.
     999903    2    3    3    0    0  0.55372614135E-02  0.45986875334E-01  0.12364383082E+00  0.13354894561E+00  0.20051683370E-01 0.  0.
         14    1    1    2    0    0  0.15059987503E-01 -0.77573993341E-02 -0.15018815038E-01  0.22639462741E-01  0.00000000000E+00 0. -1.
     999901    1    3    3    0    0 -0.20597248917E-01 -0.38229476000E-01 -0.10862501578E+00  0.88774159165E+00  0.88000000000E+00 0.  1.
        -11    1    4    4    0    0 -0.74259267648E-02  0.20996590589E-01  0.52018535776E-01  0.56587899678E-01  0.51100000000E-03 0.  1.
         11    1    4    4    0    0  0.12963188178E-01  0.24990284745E-01  0.71625295043E-01  0.76961045928E-01  0.51100000000E-03 0. -1.
</event>
<event>
 8    1  0.1066842E+005  0.1043930E+01  0.7957747E-01            NaN
         13   -1    0    0    0    0  0.00000000000E+00  0.00000000000E+00  0.74505805969E-08  0.10566000000E+00  0.10566000000E+00 0. -1.
     999900   -1    0    0    0    0 -0.00000000000E+00 -0.00000000000E+00 -0.74505805969E-08  0.93827000000E+00  0.93827000000E+00 0. -1.
     999902    2    1    2    0    0  0.12292175613E-02  0.23425312054E-01  0.10963086194E-02  0.10204468547E+01  0.10201766147E+01 0.  0.
     999903    2    3    3    0    0 -0.22987127218E-01 -0.11013538439E+00  0.58030193836E-01  0.12822134605E+00  0.20371530990E-01 0.  0.
         14    1    1    2    0    0 -0.12292175613E-02 -0.23425312054E-01 -0.10963086194E-02  0.23483145301E-01  0.00000000000E+00 0.  1.
     999901    1    3    3    0    0  0.24216344779E-01  0.13356069644E+00 -0.56933885216E-01  0.89222550864E+00  0.88000000000E+00 0. -1.
        -11    1    4    4    0    0 -0.23508553657E-01 -0.86403211690E-01  0.38474299343E-01  0.97461273931E-01  0.51100000000E-03 0. -1.
         11    1    4    4    0    0  0.52142643855E-03 -0.23732172701E-01  0.19555894493E-01  0.30760072124E-01  0.51100000000E-03 0.  1.
</event>
<event>
 8    1  0.1066842E+005  0.1043930E+01  0.7957747E-01            NaN
         13   -1    0    0    0    0  0.00000000000E+00  0.00000000000E+00  0.74505805969E-08  0.10566000000E+00  0.10566000000E+00 0.  1.
     999900   -1    0    0    0    0 -0.00000000000E+00 -0.00000000000E+00 -0.74505805969E-08  0.93827000000E+00  0.93827000000E+00 0.  1.
     999902    2    1    2    0    0  0.18398846037E-01 -0.10070901766E-01 -0.94009606186E-02  0.10209448165E+01  0.10206860437E+01 0.  0.
     999903    2    3    3    0    0  0.82140223107E-01 -0.10305613688E+00 -0.11645764295E-01  0.13375021769E+00  0.19644676258E-01 0.  0.
         14    1    1    2    0    0 -0.18398846037E-01  0.10070901766E-01  0.94009606186E-02  0.22985183454E-01  0.00000000000E+00 0. -1.
     999901    1    3    3    0    0 -0.63741377070E-01  0.92985235111E-01  0.22448036763E-02  0.88719459886E+00  0.88000000000E+00 0.  1.
        -11    1    4    4    0    0  0.51477162565E-01 -0.52979239507E-01  0.72103517931E-04  0.73871269140E-01  0.51100000000E-03 0. -1.
         11    1    4    4    0    0  0.30663060542E-01 -0.50076897370E-01 -0.11717867813E-01  0.59878948547E-01  0.51100000000E-03 0.  1.
</event>
<event>
 8    1  0.1066842E+005  0.1043930E+01  0.7957747E-01            NaN
         13   -1    0    0    0    0  0.00000000000E+00  0.00000000000E+00  0.74505805969E-08  0.10566000000E+00  0.10566000000E+00 0. -1.
     999900   -1    0    0    0    0 -0.00000000000E+00 -0.00000000000E+00 -0.74505805969E-08  0.93827000000E+00  0.93827000000E+00 0. -1.
     999902    2    1    2    0    0  0.29977095243E-01  0.13304745049E-01 -0.13911793813E-01  0.10083044405E+01  0.10076748803E+01 0.  0.
     999903    2    3    3    0    0  0.52027051520E-01 -0.10580133266E+00  0.65099040475E-02  0.11977222161E+00  0.20056673106E-01 0.  0.
         14    1    1    2    0    0 -0.29977095243E-01 -0.13304745049E-01  0.13911793813E-01  0.35625559464E-01  0.00000000000E+00 0.  1.
     999901    1    3    3    0    0 -0.22049956277E-01  0.11910607771E+00 -0.20421697861E-01  0.88853221892E+00  0.88000000000E+00 0. -1.
        -11    1    4    4    0    0  0.32773309946E-01 -0.47982675884E-01 -0.25235086655E-02  0.58164045997E-01  0.51100000000E-03 0.  1.
         11    1    4    4    0    0  0.19253741574E-01 -0.57818656780E-01  0.90334127130E-02  0.61608175616E-01  0.51100000000E-03 0. -1.
</event>
<event>
 8    1  0.1066842E+005  0.1043930E+01  0.7957747E-01            NaN
         13   -1    0    0    0    0  0.00000000000E+00  0.00000000000E+00  0.74505805969E-08  0.10566000000E+00  0.10566000000E+00 0.  1.
     999900   -1    0    0    0    0 -0.00000000000E+00 -0.00000000000E+00 -0.74505805969E-08  0.93827000000E+00  0.93827000000E+00 0.  1.
     999902    2    1    2    0    0 -0.16491570769E-01  0.21384746583E-02  0.16501900333E-01  0.10205022879E+01  0.10202333370E+01 0.  0.
     999903    2    3    3    0    0  0.81191314822E-01 -0.63031311441E-01  0.78105306449E-01  0.13056744375E+00  0.19556140930E-01 0.  0.
         14    1    1    2    0    0  0.16491570769E-01 -0.21384746583E-02 -0.16501900333E-01  0.23427712114E-01  0.00000000000E+00 0.  1.
     999901    1    3    3    0    0 -0.97682885591E-01  0.65169786099E-01 -0.61603406115E-01  0.88993484413E+00  0.88000000000E+00 0.  1.
        -11    1    4    4    0    0  0.12234451355E-01 -0.62710322636E-02  0.35067076553E-02  0.14197385858E-01  0.51100000000E-03 0.  1.
         11    1    4    4    0    0  0.68956863467E-01 -0.56760279177E-01  0.74598598793E-01  0.11637005789E+00  0.51100000000E-03 0. -1.
</event>
<event>
 8    1  0.1066842E+005  0.1043930E+01  0.7957747E-01            NaN
         13   -1    0    0    0    0  0.00000000000E+00  0.00000000000E+00  0.74505805969E-08  0.10566000000E+00  0.10566000000E+00 0.  1.
     999900   -1    0    0    0    0 -0.00000000000E+00 -0.00000000000E+00 -0.74505805969E-08  0.93827000000E+00  0.93827000000E+00 0. -1.
     999902    2    1    2    0    0 -0.75850708779E-02  0.10633218717E-01  0.19217543679E-01  0.10206939800E+01  0.10204294626E+01 0.  0.
     999903    2    3    3    0    0  0.44047213392E-01  0.11219316750E+00 -0.46636074935E-01  0.13090916609E+00  0.20852396483E-01 0.  0.
         14    1    1    2    0    0  0.75850708779E-02 -0.10633218717E-01 -0.19217543679E-01  0.23236020003E-01  0.00000000000E+00 0. -1.
     999901    1    3    3    0    0 -0.51632284270E-01 -0.10155994879E+00  0.65853618614E-01  0.88978481391E+00  0.88000000000E+00 0. -1.
        -11    1    4    4    0    0  0.27328964597E-01  0.51935985811E-01 -0.13856344537E-01  0.60303219922E-01  0.51100000000E-03 0.  1.
         11    1    4    4    0    0  0.16718248795E-01  0.60257181691E-01 -0.32779730398E-01  0.70605946167E-01  0.51100000000E-03 0. -1.
</event>
<event>
 8    1  0.1066842E+005  0.1043930E+01  0.7957747E-01            NaN
         13   -1    0    0    0    0  0.00000000000E+00  0.00000000000E+00  0.74505805969E-08  0.10566000000E+00  0.10566000000E+00 0.  1.
     999900   -1    0    0    0    0 -0.00000000000E+00 -0.00000000000E+00 -0.74505805969E-08  0.93827000000E+00  0.93827000000E+00 0.  1.
     999902    2    1    2    0    0 -0.13716238540E-01  0.21823945100E-02 -0.25068835366E-01  0.10152708906E+01  0.10148663147E+01 0.  0.
     999903    2    3    3    0    0 -0.11407493618E+00  0.53007423970E-01 -0.11885579939E-01  0.12801171198E+00  0.20563397876E-01 0.  0.
         14    1    1    2    0    0  0.13716238540E-01 -0.21823945100E-02  0.25068835366E-01  0.28659109409E-01  0.00000000000E+00 0.  1.
     999901    1    3    3    0    0  0.10035869764E+00 -0.50825029460E-01 -0.13183255427E-01  0.88725917861E+00  0.88000000000E+00 0. -1.
        -11    1    4    4    0    0 -0.10438665200E+00  0.41433056921E-01 -0.11586975401E-01  0.11290611339E+00  0.51100000000E-03 0. -1.
         11    1    4    4    0    0 -0.96882841855E-02  0.11574367049E-01 -0.29860453760E-03  0.15105598588E-01  0.51100000000E-03 0.  1.
</event>
<event>
 8    1  0.1066842E+005  0.1043930E+01  0.7957747E-01            NaN
         13   -1    0    0    0    0  0.00000000000E+00  0.00000000000E+00  0.74505805969E-08  0.10566000000E+00  0.10566000000E+00 0.  1.
     999900   -1    0    0    0    0 -0.00000000000E+00 -0.00000000000E+00 -0.74505805969E-08  0.93827000000E+00  0.93827000000E+00 0.  1.
     999902    2    1    2    0    0  0.17327806092E-01 -0.13680934536E-01  0.65156709772E-02  0.10209109904E+01  0.10206514467E+01 0.  0.
     999903    2    3    3    0    0  0.86622991450E-01  0.99598643229E-03 -0.96766054360E-01  0.13204409965E+00  0.23821006249E-01 0.  0.
         14    1    1    2    0    0 -0.17327806092E-01  0.13680934536E-01 -0.65156709772E-02  0.23019009579E-01  0.00000000000E+00 0.  1.
     999901    1    3    3    0    0 -0.69295185358E-01 -0.14676920968E-01  0.10328172534E+00  0.88886689077E+00  0.88000000000E+00 0. -1.
        -11    1    4    4    0    0  0.75575225256E-01  0.90349668608E-02 -0.80305238465E-01  0.11064555004E+00  0.51100000000E-03 0. -1.
         11    1    4    4    0    0  0.11047766194E-01 -0.80389804285E-02 -0.16460815895E-01  0.21398549604E-01  0.51100000000E-03 0.  1.
</event>
<event>
 8    1  0.1066842E+005  0.1043930E+01  0.7957747E-01            NaN
         13   -1    0    0    0    0  0.00000000000E+00  0.00000000000E+00  0.74505805969E-08  0.10566000000E+00  0.10566000000E+00 0.  1.
     999900   -1    0    0    0    0 -0.00000000000E+00 -0.00000000000E+00 -0.74505805969E-08  0.93827000000E+00  0.93827000000E+00 0. -1.
     999902    2    1    2    0    0  0.68840469645E-02  0.21352701790E-01  0.30245460701E-02  0.10212920704E+01  0.10210411438E+01 0.  0.
     999903    2    3    3    0    0  0.10322739023E+00  0.45347813806E-01 -0.67430187197E-01  0.13291057882E+00  0.20151265609E-01 0.  0.
         14    1    1    2    0    0 -0.68840469645E-02 -0.21352701790E-01 -0.30245460701E-02  0.22637929571E-01  0.00000000000E+00 0. -1.
     999901    1    3    3    0    0 -0.96343343268E-01 -0.23995112016E-01  0.70454733268E-01  0.88838149161E+00  0.88000000000E+00 0. -1.
        -11    1    4    4    0    0  0.24000943051E-01  0.10218893801E-01 -0.26059493289E-01  0.36875864320E-01  0.51100000000E-03 0. -1.
         11    1    4    4    0    0  0.79226447182E-01  0.35128920005E-01 -0.41370693908E-01  0.96034714500E-01  0.51100000000E-03 0.  1.
</event>
<event>
 8    1  0.1066842E+005  0.1043930E+01  0.7957747E-01            NaN
         13   -1    0    0    0    0  0.00000000000E+00  0.00000000000E+00  0.74505805969E-08  0.10566000000E+00  0.10566000000E+00 0.  1.
     999900   -1    0    0    0    0 -0.00000000000E+00 -0.00000000000E+00 -0.74505805969E-08  0.93827000000E+00  0.93827000000E+00 0.  1.
     999902    2    1    2    0    0  0.21014003964E-01  0.74454936997E-02 -0.54236947341E-02  0.10209857152E+01  0.10207278729E+01 0.  0.
     999903    2    3    3    0    0  0.15990061054E-01 -0.12115786574E+00 -0.42341524948E-01  0.13085820175E+00  0.19903611417E-01 0.  0.
         14    1    1    2    0    0 -0.21014003964E-01 -0.74454936997E-02  0.54236947341E-02  0.22944284770E-01  0.00000000000E+00 0.  1.
     999901    1    3    3    0    0  0.50239429100E-02  0.12860335944E+00  0.36917830214E-01  0.89012751348E+00  0.88000000000E+00 0. -1.
        -11    1    4    4    0    0  0.70071831468E-02 -0.68569178820E-01 -0.13602930591E-01  0.70257624080E-01  0.51100000000E-03 0.  1.
         11    1    4    4    0    0  0.89828779071E-02 -0.52588686922E-01 -0.28738594358E-01  0.60600577673E-01  0.51100000000E-03 0. -1.
</event>
<event>
 8    1  0.1066842E+005  0.1043930E+01  0.7957747E-01            NaN
         13   -1    0    0    0    0  0.00000000000E+00  0.00000000000E+00  0.74505805969E-08  0.10566000000E+00  0.10566000000E+00 0.  1.
     999900   -1    0    0    0    0 -0.00000000000E+00 -0.00000000000E+00 -0.74505805969E-08  0.93827000000E+00  0.93827000000E+00 0. -1.
     999902    2    1    2    0    0 -0.89030207134E-02  0.20598001179E-01  0.62078603145E-02  0.10206474108E+01  0.10203818198E+01 0.  0.
     999903    2    3    3    0    0 -0.97637730107E-01 -0.81610073300E-01 -0.14217458198E-01  0.13006471796E+00  0.22833403952E-01 0.  0.
         14    1    1    2    0    0  0.89030207134E-02 -0.20598001179E-01 -0.62078603145E-02  0.23282589205E-01  0.00000000000E+00 0. -1.
     999901    1    3    3    0    0  0.88734709394E-01  0.10220807448E+00  0.20425318513E-01  0.89058269283E+00  0.88000000000E+00 0.  1.
        -11    1    4    4    0    0 -0.43191905774E-01 -0.21928057754E-01 -0.71856824367E-02  0.48972192051E-01  0.51100000000E-03 0. -1.
         11    1    4    4    0    0 -0.54445824334E-01 -0.59682015546E-01 -0.70317757616E-02  0.81092525910E-01  0.51100000000E-03 0.  1.
</event>
<event>
 8    1  0.1066842E+005  0.1043930E+01  0.7957747E-01            NaN
         13   -1    0    0    0    0  0.00000000000E+00  0.00000000000E+00  0.74505805969E-08  0.10566000000E+00  0.10566000000E+00 0. -1.
     999900   -1    0    0    0    0 -0.00000000000E+00 -0.00000000000E+00 -0.74505805969E-08  0.93827000000E+00  0.93827000000E+00 0. -1.
     999902    2    1    2    0    0  0.16137066084E-01  0.18239263098E-01  0.22474084238E-02  0.10194733759E+01  0.10191799829E+01 0.  0.
     999903    2    3    3    0    0 -0.55719884628E-01  0.11654090237E+00  0.90077976522E-02  0.13106337112E+00  0.20247947122E-01 0.  0.
         14    1    1    2    0    0 -0.16137066084E-01 -0.18239263098E-01 -0.22474084238E-02  0.24456624149E-01  0.00000000000E+00 0. -1.
     999901    1    3    3    0    0  0.71856950712E-01 -0.98301639269E-01 -0.67603892284E-02  0.88841000473E+00  0.88000000000E+00 0. -1.
        -11    1    4    4    0    0 -0.30929184628E-01  0.74386323368E-01  0.14476216288E-01  0.81852070987E-01  0.51100000000E-03 0.  1.
         11    1    4    4    0    0 -0.24790700000E-01  0.42154578999E-01 -0.54684186360E-02  0.49211300130E-01  0.51100000000E-03 0. -1.
</event>
<event>
 8    1  0.1066842E+005  0.1043930E+01  0.7957747E-01            NaN
         13   -1    0    0    0    0  0.00000000000E+00  0.00000000000E+00  0.74505805969E-08  0.10566000000E+00  0.10566000000E+00 0.  1.
     999900   -1    0    0    0    0 -0.00000000000E+00 -0.00000000000E+00 -0.74505805969E-08  0.93827000000E+00  0.93827000000E+00 0. -1.
     999902    2    1    2    0    0 -0.14037553309E-02  0.23146442298E-01  0.28229368133E-02  0.10205698354E+01  0.10203024510E+01 0.  0.
     999903    2    3    3    0    0 -0.12919314957E+00  0.11628139962E-01 -0.23001342878E-02  0.13125040656E+00  0.19882028845E-01 0.  0.
         14    1    1    2    0    0  0.14037553309E-02 -0.23146442298E-01 -0.28229368133E-02  0.23360164647E-01  0.00000000000E+00 0.  1.
     999901    1    3    3    0    0  0.12778939424E+00  0.11518302336E-01  0.51230711011E-02  0.88931942879E+00  0.88000000000E+00 0.  1.
        -11    1    4    4    0    0 -0.97585809283E-01  0.14088350246E-03 -0.10372081660E-02  0.97592760712E-01  0.51100000000E-03 0.  1.
         11    1    4    4    0    0 -0.31607340283E-01  0.11487256459E-01 -0.12629261218E-02  0.33657645849E-01  0.51100000000E-03 0. -1.
</event>
<event>
 8    1  0.1066842E+005  0.1043930E+01  0.7957747E-01            NaN
         13   -1    0    0    0    0  0.00000000000E+00  0.00000000000E+00  0.74505805969E-08  0.10566000000E+00  0.10566000000E+00 0.  1.
     999900   -1    0    0    0    0 -0.00000000000E+00 -0.00000000000E+00 -0.74505805969E-08  0.93827000000E+00  0.93827000000E+00 0. -1.
     999902    2    1    2    0    0 -0.62464364065E-02 -0.51539472361E-02  0.19679003292E-01  0.10226498611E+01  0.10224284298E+01 0.  0.
     999903    2    3    3    0    0  0.94635179841E-01  0.13219734221E-02 -0.87465579668E-01  0.13040606053E+00  0.19948637027E-01 0.  0.
         14    1    1    2    0    0  0.62464364065E-02  0.51539472361E-02 -0.19679003292E-01  0.21280138873E-01  0.00000000000E+00 0. -1.
     999901    1    3    3    0    0 -0.10088161625E+00 -0.64759206581E-02  0.10714458296E+00  0.89224380060E+00  0.88000000000E+00 0.  1.
        -11    1    4    4    0    0  0.23734543279E-01 -0.91992204786E-03 -0.34443115524E-01  0.41842133422E-01  0.51100000000E-03 0. -1.
         11    1    4    4    0    0  0.70900636561E-01  0.22418954699E-02 -0.53022464144E-01  0.88563927109E-01  0.51100000000E-03 0.  1.
</event>
<event>
 8    1  0.1066842E+005  0.1043930E+01  0.7957747E-01            NaN
         13   -1    0    0    0    0  0.00000000000E+00  0.00000000000E+00  0.74505805969E-08  0.10566000000E+00  0.10566000000E+00 0.  1.
     999900   -1    0    0    0    0 -0.00000000000E+00 -0.00000000000E+00 -0.74505805969E-08  0.93827000000E+00  0.93827000000E+00 0. -1.
     999902    2    1    2    0    0 -0.21154474458E-03  0.23253253218E-01  0.31629517594E-02  0.10204616639E+01  0.10201917686E+01 0.  0.
     999903    2    3    3    0    0  0.11393126552E-01 -0.14748166223E-01  0.12765682965E+00  0.13081145065E+00  0.21634641765E-01 0.  0.
         14    1    1    2    0    0  0.21154474458E-03 -0.23253253218E-01 -0.31629517594E-02  0.23468336120E-01  0.00000000000E+00 0. -1.
     999901    1    3    3    0    0 -0.11604671296E-01  0.38001419441E-01 -0.12449387789E+00  0.88965021323E+00  0.88000000000E+00 0. -1.
        -11    1    4    4    0    0  0.11210800556E-01  0.16846375078E-02  0.37953175111E-01  0.39613440581E-01  0.51100000000E-03 0. -1.
         11    1    4    4    0    0  0.18232599565E-03 -0.16432803731E-01  0.89703654539E-01  0.91198010065E-01  0.51100000000E-03 0.  1.
</event>
<event>
 8    1  0.1066842E+005  0.1043930E+01  0.7957747E-01            NaN
         13   -1    0    0    0    0  0.00000000000E+00  0.00000000000E+00  0.74505805969E-08  0.10566000000E+00  0.10566000000E+00 0.  1.
     999900   -1    0    0    0    0 -0.00000000000E+00 -0.00000000000E+00 -0.74505805969E-08  0.93827000000E+00  0.93827000000E+00 0.  1.
     999902    2    1    2    0    0 -0.22163993664E-01  0.36942096857E-02 -0.65352490779E-02  0.10205291607E+01  0.10202608336E+01 0.  0.
     999903    2    3    3    0    0 -0.14646605904E-01  0.12062620217E+00  0.45484608704E-01  0.13123974346E+00  0.19743781805E-01 0.  0.
         14    1    1    2    0    0  0.22163993664E-01 -0.36942096857E-02  0.65352490779E-02  0.23400839319E-01  0.00000000000E+00 0.  1.
     999901    1    3    3    0    0 -0.75173877592E-02 -0.11693199248E+00 -0.52019857782E-01  0.88928941722E+00  0.88000000000E+00 0.  1.
        -11    1    4    4    0    0  0.33772492964E-02  0.52990895056E-01  0.18911892776E-01  0.56368090096E-01  0.51100000000E-03 0. -1.
         11    1    4    4    0    0 -0.18023855201E-01  0.67635307110E-01  0.26572715928E-01  0.74871653361E-01  0.51100000000E-03 0.  1.
</event>
<event>
 8    1  0.1066842E+005  0.1043930E+01  0.7957747E-01            NaN
         13   -1    0    0    0    0  0.00000000000E+00  0.00000000000E+00  0.74505805969E-08  0.10566000000E+00  0.10566000000E+00 0. -1.
     999900   -1    0    0    0    0 -0.00000000000E+00 -0.00000000000E+00 -0.74505805969E-08  0.93827000000E+00  0.93827000000E+00 0. -1.
     999902    2    1    2    0    0 -0.89568779755E-02 -0.21606056022E-01 -0.29089351878E-02  0.10203607568E+01  0.10200885083E+01 0.  0.
     999903    2    3    3    0    0  0.51386304254E-01 -0.11089538701E+00 -0.47628107968E-01  0.13265940576E+00  0.19792476912E-01 0.  0.
         14    1    1    2    0    0  0.89568779755E-02  0.21606056022E-01  0.29089351878E-02  0.23569243174E-01  0.00000000000E+00 0.  1.
     999901    1    3    3    0    0 -0.60343182229E-01  0.89289330991E-01  0.44719172780E-01  0.88770135107E+00  0.88000000000E+00 0.  1.
        -11    1    4    4    0    0  0.37594949909E-01 -0.61176370625E-01 -0.22371756815E-01  0.75210938071E-01  0.51100000000E-03 0.  1.
         11    1    4    4    0    0  0.13791354345E-01 -0.49719016388E-01 -0.25256351152E-01  0.57448467689E-01  0.51100000000E-03 0. -1.
</event>
<event>
 8    1  0.1066842E+005  0.1043930E+01  0.7957747E-01            NaN
         13   -1    0    0    0    0  0.00000000000E+00  0.00000000000E+00  0.74505805969E-08  0.10566000000E+00  0.10566000000E+00 0.  1.
     999900   -1    0    0    0    0 -0.00000000000E+00 -0.00000000000E+00 -0.74505805969E-08  0.93827000000E+00  0.93827000000E+00 0. -1.
     999902    2    1    2    0    0 -0.13990798331E-01  0.18938460295E-01 -0.27011792592E-02  0.10202297028E+01  0.10199543825E+01 0.  0.
     999903    2    3    3    0    0  0.18317209133E-01  0.42886776468E-01 -0.12043013136E+00  0.13147921178E+00  0.24669228714E-01 0.  0.
         14    1    1    2    0    0  0.13990798331E-01 -0.18938460295E-01  0.27011792592E-02  0.23700297164E-01  0.00000000000E+00 0.  1.
     999901    1    3    3    0    0 -0.32308007464E-01 -0.23948316173E-01  0.11772895210E+00  0.88875049106E+00  0.88000000000E+00 0.  1.
        -11    1    4    4    0    0  0.14237200487E-02  0.33200273645E-01 -0.73348908996E-01  0.80527068249E-01  0.51100000000E-03 0. -1.
         11    1    4    4    0    0  0.16893489084E-01  0.96865028233E-02 -0.47081222360E-01  0.50952143530E-01  0.51100000000E-03 0.  1.
</event>
<event>
 7    1  0.1066842E+005  0.1043930E+01  0.7957747E-01            NaN
         13   -1    0    0    0    0  0.00000000000E+00  0.00000000000E+00  0.74505805969E-08  0.10566000000E+00  0.10566000000E+00 0. -1.
     999900   -1    0    0    0    0 -0.00000000000E+00 -0.00000000000E+00 -0.74505805969E-08  0.93827000000E+00  0.93827000000E+00 0. -1.
     999903    2    1    2    0    0  0.82475192518E-01 -0.56790649994E-01 -0.40878446424E-01  0.11002694042E+00  0.20187742057E-01 0.  0.
         14    1    1    2    0    0 -0.34008464905E-02  0.45795100538E-01  0.19879776805E-01  0.50039609470E-01  0.00000000000E+00 0.  1.
     999901    1    1    2    0    0 -0.79074346027E-01  0.10995549457E-01  0.20998669619E-01  0.88386345011E+00  0.88000000000E+00 0.  1.
        -11    1    3    3    0    0  0.31629537772E-01 -0.10458513906E-01 -0.14832565076E-01  0.36470183445E-01  0.51100000000E-03 0. -1.
         11    1    3    3    0    0  0.50845654746E-01 -0.46332136088E-01 -0.26045881349E-01  0.73556756978E-01  0.51100000000E-03 0.  1.
</event>
<event>
 8    1  0.1066842E+005  0.1043930E+01  0.7957747E-01            NaN
         13   -1    0    0    0    0  0.00000000000E+00  0.00000000000E+00  0.74505805969E-08  0.10566000000E+00  0.10566000000E+00 0. -1.
     999900   -1    0    0    0    0 -0.00000000000E+00 -0.00000000000E+00 -0.74505805969E-08  0.93827000000E+00  0.93827000000E+00 0.  1.
     999902    2    1    2    0    0  0.10686722839E-02 -0.67383088776E-02  0.28273679797E-01  0.10148448176E+01  0.10144279452E+01 0.  0.
     999903    2    3    3    0    0  0.20125201174E-01 -0.43738438026E-01 -0.11143110706E+00  0.12285289592E+00  0.18917392294E-01 0.  0.
         14    1    1    2    0    0 -0.10686722839E-02  0.67383088776E-02 -0.28273679797E-01  0.29085182417E-01  0.00000000000E+00 0.  1.
     999901    1    3    3    0    0 -0.19056528890E-01  0.37000129148E-01  0.13970478686E+00  0.89199192167E+00  0.88000000000E+00 0. -1.
        -11    1    4    4    0    0  0.17074171355E-01 -0.14836355386E-01 -0.51087286059E-01  0.55873219761E-01  0.51100000000E-03 0.  1.
         11    1    4    4    0    0  0.30510298187E-02 -0.28902082640E-01 -0.60343820999E-01  0.66979676154E-01  0.51100000000E-03 0. -1.
</event>
<event>
 8    1  0.1066842E+005  0.1043930E+01  0.7957747E-01            NaN
         13   -1    0    0    0    0  0.00000000000E+00  0.00000000000E+00  0.74505805969E-08  0.10566000000E+00  0.10566000000E+00 0.  1.
     999900   -1    0    0    0    0 -0.00000000000E+00 -0.00000000000E+00 -0.74505805969E-08  0.93827000000E+00  0.93827000000E+00 0. -1.
     999902    2    1    2    0    0 -0.18315701638E-01 -0.32842503247E-02 -0.15405812315E-01  0.10197723867E+01  0.10194862090E+01 0.  0.
     999903    2    3    3    0    0  0.81586299635E-02  0.32733448743E-01  0.12203175906E+00  0.12798359395E+00  0.18708505830E-01 0.  0.
         14    1    1    2    0    0  0.18315701638E-01  0.32842503247E-02  0.15405812315E-01  0.24157613288E-01  0.00000000000E+00 0.  1.
     999901    1    3    3    0    0 -0.26474331601E-01 -0.36017699068E-01 -0.13743757137E+00  0.89178879277E+00  0.88000000000E+00 0. -1.
        -11    1    4    4    0    0  0.90758328733E-02  0.20557947717E-01  0.48657891708E-01  0.53598987893E-01  0.51100000000E-03 0.  1.
         11    1    4    4    0    0 -0.91720290972E-03  0.12175501027E-01  0.73373867352E-01  0.74384606052E-01  0.51100000000E-03 0. -1.
</event>
<event>
 8    1  0.1066842E+005  0.1043930E+01  0.7957747E-01            NaN
         13   -1    0    0    0    0  0.00000000000E+00  0.00000000000E+00  0.74505805969E-08  0.10566000000E+00  0.10566000000E+00 0.  1.
     999900   -1    0    0    0    0 -0.00000000000E+00 -0.00000000000E+00 -0.74505805969E-08  0.93827000000E+00  0.93827000000E+00 0. -1.
     999902    2    1    2    0    0  0.22801465121E-01 -0.79528382609E-02  0.88801400967E-03  0.10197650871E+01  0.10194787343E+01 0.  0.
     999903    2    3    3    0    0  0.80440815812E-01  0.31997910144E-01 -0.97117609260E-01  0.13155145329E+00  0.19477261898E-01 0.  0.
         14    1    1    2    0    0 -0.22801465121E-01  0.79528382609E-02 -0.88801400967E-03  0.24164912931E-01  0.00000000000E+00 0.  1.
     999901    1    3    3    0    0 -0.57639350691E-01 -0.39950748405E-01  0.98005623270E-01  0.88821363378E+00  0.88000000000E+00 0. -1.
        -11    1    4    4    0    0  0.73650621856E-01  0.34050749298E-01 -0.85082240676E-01  0.11757175012E+00  0.51100000000E-03 0.  1.
         11    1    4    4    0    0  0.67901939561E-02 -0.20528391540E-02 -0.12035368585E-01  0.13979703163E-01  0.51100000000E-03 0. -1.
</event>
<event>
 8    1  0.1066842E+005  0.1043930E+01  0.7957747E-01            NaN
         13   -1    0    0    0    0  0.00000000000E+00  0.00000000000E+00  0.74505805969E-08  0.10566000000E+00  0.10566000000E+00 0.  1.
     999900   -1    0    0    0    0 -0.00000000000E+00 -0.00000000000E+00 -0.74505805969E-08  0.93827000000E+00  0.93827000000E+00 0.  1.
     999902    2    1    2    0    0  0.74899850435E-02 -0.15706437324E-01  0.15026974198E-01  0.10209386537E+01  0.10206797405E+01 0.  0.
     999903    2    3    3    0    0  0.19817643623E-01  0.29160437415E-01 -0.12220639081E+00  0.12908776705E+00  0.22049479320E-01 0.  0.
         14    1    1    2    0    0 -0.74899850435E-02  0.15706437324E-01 -0.15026974198E-01  0.22991346261E-01  0.00000000000E+00 0. -1.
     999901    1    3    3    0    0 -0.12327658580E-01 -0.44866874739E-01  0.13723336501E+00  0.89185088669E+00  0.88000000000E+00 0. -1.
        -11    1    4    4    0    0  0.11540453847E-01  0.10612686882E-01 -0.87307507590E-01  0.88705542107E-01  0.51100000000E-03 0. -1.
         11    1    4    4    0    0  0.82771897767E-02  0.18547750533E-01 -0.34898883220E-01  0.40382224944E-01  0.51100000000E-03 0.  1.
</event>
<event>
 8    1  0.1066842E+005  0.1043930E+01  0.7957747E-01            NaN
         13   -1    0    0    0    0  0.00000000000E+00  0.00000000000E+00  0.74505805969E-08  0.10566000000E+00  0.10566000000E+00 0.  1.
     999900   -1    0    0    0    0 -0.00000000000E+00 -0.00000000000E+00 -0.74505805969E-08  0.93827000000E+00  0.93827000000E+00 0.  1.
     999902    2    1    2    0    0  0.71782783298E-02  0.18215661049E-01 -0.14394782450E-01  0.10196288118E+01  0.10193391811E+01 0.  0.
     999903    2    3    3    0    0 -0.92607023668E-01 -0.54358009309E-01 -0.69453086287E-01  0.12931680975E+00  0.19189895300E-01 0.  0.
         14    1    1    2    0    0 -0.71782783298E-02 -0.18215661049E-01  0.14394782450E-01  0.24301188222E-01  0.00000000000E+00 0. -1.
     999901    1    3    3    0    0  0.99785301998E-01  0.72573670358E-01  0.55058303837E-01  0.89031200202E+00  0.88000000000E+00 0. -1.
        -11    1    4    4    0    0 -0.17772067352E-01 -0.24720426858E-02 -0.97664287091E-02  0.20435303368E-01  0.51100000000E-03 0.  1.
         11    1    4    4    0    0 -0.74834956316E-01 -0.51885966623E-01 -0.59686657578E-01  0.10888150639E+00  0.51100000000E-03 0. -1.
</event>
<event>
 8    1  0.1066842E+005  0.1043930E+01  0.7957747E-01            NaN
         13   -1    0    0    0    0  0.00000000000E+00  0.00000000000E+00  0.74505805969E-08  0.10566000000E+00  0.10566000000E+00 0.  1.
     999900   -1    0    0    0    0 -0.00000000000E+00 -0.00000000000E+00 -0.74505805969E-08  0.93827000000E+00  0.93827000000E+00 0. -1.
     999902    2    1    2    0    0 -0.16301237240E-01  0.15054023290E-03  0.14222328024E-01  0.10222960542E+01  0.10220671185E+01 0.  0.
     999903    2    3    3    0    0 -0.32299666524E-01 -0.11690539340E+00 -0.48325668537E-01  0.13220038896E+00  0.20770968694E-01 0.  0.
         14    1    1    2    0    0  0.16301237240E-01 -0.15054023290E-03 -0.14222328024E-01  0.21633945834E-01  0.00000000000E+00 0. -1.
     999901    1    3    3    0    0  0.15998429284E-01  0.11705593363E+00  0.62547996561E-01  0.89009566520E+00  0.88000000000E+00 0.  1.
        -11    1    4    4    0    0 -0.14762635764E-01 -0.78923798476E-01 -0.39317303361E-01  0.89403651184E-01  0.51100000000E-03 0. -1.
         11    1    4    4    0    0 -0.17537030760E-01 -0.37981594919E-01 -0.90083651765E-02  0.42796737780E-01  0.51100000000E-03 0.  1.
</event>
<event>
 8    1  0.1066842E+005  0.1043930E+01  0.7957747E-01            NaN
         13   -1    0    0    0    0  0.00000000000E+00  0.00000000000E+00  0.74505805969E-08  0.10566000000E+00  0.10566000000E+00 0.  1.
     999900   -1    0    0    0    0 -0.00000000000E+00 -0.00000000000E+00 -0.74505805969E-08  0.93827000000E+00  0.93827000000E+00 0.  1.
     999902    2    1    2    0    0  0.12862706598E-01 -0.18108698039E-01  0.73803401001E-02  0.10205239413E+01  0.10202554931E+01 0.  0.
     999903    2    3    3    0    0  0.20901760535E-01  0.89511489984E-01  0.89964929354E-01  0.13009317717E+00  0.19528333257E-01 0.  0.
         14    1    1    2    0    0 -0.12862706598E-01  0.18108698039E-01 -0.73803401001E-02  0.23406058739E-01  0.00000000000E+00 0. -1.
     999901    1    3    3    0    0 -0.80390539373E-02 -0.10762018802E+00 -0.82584589254E-01  0.89043076409E+00  0.88000000000E+00 0.  1.
        -11    1    4    4    0    0  0.10737954045E-01  0.26424698007E-01  0.39195318659E-01  0.48477855229E-01  0.51100000000E-03 0. -1.
         11    1    4    4    0    0  0.10163806489E-01  0.63086791977E-01  0.50769610695E-01  0.81615321940E-01  0.51100000000E-03 0.  1.
</event>
<event>
 8    1  0.1066842E+005  0.1043930E+01  0.7957747E-01            NaN
         13   -1    0    0    0    0  0.00000000000E+00  0.00000000000E+00  0.74505805969E-08  0.10566000000E+00  0.10566000000E+00 0.  1.
     999900   -1    0    0    0    0 -0.00000000000E+00 -0.00000000000E+00 -0.74505805969E-08  0.93827000000E+00  0.93827000000E+00 0.  1.
     999902    2    1    2    0    0 -0.12353637564E-02 -0.21404298596E-01  0.93307894622E-02  0.10205476615E+01  0.10202797634E+01 0.  0.
     999903    2    3    3    0    0  0.26279200242E-01  0.91466722345E-01  0.85830452505E-01  0.12962167296E+00  0.19446178594E-01 0.  0.
         14    1    1    2    0    0  0.12353637564E-02  0.21404298596E-01 -0.93307894622E-02  0.23382338505E-01  0.00000000000E+00 0. -1.
     999901    1    3    3    0    0 -0.27514563998E-01 -0.11287102094E+00 -0.76499663043E-01  0.89092598853E+00  0.88000000000E+00 0.  1.
        -11    1    4    4    0    0  0.86221711247E-02  0.61517383215E-01  0.50580957448E-01  0.80108830037E-01  0.51100000000E-03 0.  1.
         11    1    4    4    0    0  0.17657029117E-01  0.29949339129E-01  0.35249495058E-01  0.49512842923E-01  0.51100000000E-03 0. -1.
</event>
<event>
 8    1  0.1066842E+005  0.1043930E+01  0.7957747E-01            NaN
         13   -1    0    0    0    0  0.00000000000E+00  0.00000000000E+00  0.74505805969E-08  0.10566000000E+00  0.10566000000E+00 0.  1.
     999900   -1    0    0    0    0 -0.00000000000E+00 -0.00000000000E+00 -0.74505805969E-08  0.93827000000E+00  0.93827000000E+00 0. -1.
     999902    2    1    2    0    0  0.12543501050E-01 -0.71067562332E-02 -0.19056359763E-01  0.10200345977E+01  0.10197546716E+01 0.  0.
     999903    2    3    3    0    0 -0.76420294330E-01  0.96551114640E-01 -0.34361359719E-01  0.12936420183E+00  0.19804407353E-01 0.  0.
         14    1    1    2    0    0 -0.12543501050E-01  0.71067562332E-02  0.19056359763E-01  0.23895402281E-01  0.00000000000E+00 0.  1.
     999901    1    3    3    0    0  0.88963795380E-01 -0.10365787087E+00  0.15304999956E-01  0.89067039589E+00  0.88000000000E+00 0. -1.
        -11    1    4    4    0    0 -0.36842627685E-01  0.47658204977E-01 -0.27048318410E-01  0.66034508904E-01  0.51100000000E-03 0.  1.
         11    1    4    4    0    0 -0.39577666645E-01  0.48892909663E-01 -0.73130413090E-02  0.63329692930E-01  0.51100000000E-03 0. -1.
</event>
<event>
 8    1  0.1066842E+005  0.1043930E+01  0.7957747E-01            NaN
         13   -1    0    0    0    0  0.00000000000E+00  0.00000000000E+00  0.74505805969E-08  0.10566000000E+00  0.10566000000E+00 0. -1.
     999900   -1    0    0    0    0 -0.00000000000E+00 -0.00000000000E+00 -0.74505805969E-08  0.93827000000E+00  0.93827000000E+00 0.  1.
     999902    2    1    2    0    0 -0.11268473773E-01  0.20554943770E-01 -0.18531176727E-02  0.10204157860E+01  0.10201448221E+01 0.  0.
     999903    2    3    3    0    0  0.91818579498E-01 -0.73502075883E-01 -0.46977860220E-01  0.12827795703E+00  0.20374204513E-01 0.  0.
         14    1    1    2    0    0  0.11268473773E-01 -0.20554943770E-01  0.18531176727E-02  0.23514213992E-01  0.00000000000E+00 0. -1.
     999901    1    3    3    0    0 -0.10308705327E+00  0.94057019653E-01  0.45124742547E-01  0.89213782897E+00  0.88000000000E+00 0. -1.
        -11    1    4    4    0    0  0.11116438510E-01 -0.51600580620E-02  0.67381473247E-03  0.12284809793E-01  0.51100000000E-03 0.  1.
         11    1    4    4    0    0  0.80702140988E-01 -0.68342017821E-01 -0.47651674952E-01  0.11599314724E+00  0.51100000000E-03 0. -1.
</event>
<event>
 8    1  0.1066842E+005  0.1043930E+01  0.7957747E-01            NaN
         13   -1    0    0    0    0  0.00000000000E+00  0.00000000000E+00  0.74505805969E-08  0.10566000000E+00  0.10566000000E+00 0.  1.
     999900   -1    0    0    0    0 -0.00000000000E+00 -0.00000000000E+00 -0.74505805969E-08  0.93827000000E+00  0.93827000000E+00 0. -1.
     999902    2    1    2    0    0  0.16490050876E-01 -0.80905546120E-02  0.15981477223E-01  0.10195827935E+01  0.10192920515E+01 0.  0.
     999903    2    3    3    0    0 -0.22113183258E-01 -0.10870903049E+00 -0.61468621250E-01  0.12963178070E+00  0.26820905742E-01 0.  0.
         14    1    1    2    0    0 -0.16490050876E-01  0.80905546120E-02 -0.15981477223E-01  0.24347206535E-01  0.00000000000E+00 0. -1.
     999901    1    3    3    0    0  0.38603234134E-01  0.10061847588E+00  0.77450098473E-01  0.88995101277E+00  0.88000000000E+00 0.  1.
        -11    1    4    4    0    0 -0.15445142202E-01 -0.88084705559E-01 -0.36575539799E-01  0.96620386067E-01  0.51100000000E-03 0. -1.
         11    1    4    4    0    0 -0.66680410560E-02 -0.20624324929E-01 -0.24893081452E-01  0.33011394631E-01  0.51100000000E-03 0.  1.
</event>
<event>
 8    1  0.1066842E+005  0.1043930E+01  0.7957747E-01            NaN
         13   -1    0    0    0    0  0.00000000000E+00  0.00000000000E+00  0.74505805969E-08  0.10566000000E+00  0.10566000000E+00 0.  1.
     999900   -1    0    0    0    0 -0.00000000000E+00 -0.00000000000E+00 -0.74505805969E-08  0.93827000000E+00  0.93827000000E+00 0. -1.
     999902    2    1    2    0    0  0.16856000199E-01 -0.15760967246E-01 -0.52112033488E-02  0.10202722429E+01  0.10199979216E+01 0.  0.
     999903    2    3    3    0    0 -0.36712462246E-01 -0.93173677342E-01 -0.83885595655E-01  0.13176114681E+00  0.17177532302E-01 0.  0.
         14    1    1    2    0    0 -0.16856000199E-01  0.15760967246E-01  0.52112033488E-02  0.23657757112E-01  0.00000000000E+00 0.  1.
     999901    1    3    3    0    0  0.53568462445E-01  0.77412710096E-01  0.78674392306E-01  0.88851109608E+00  0.88000000000E+00 0.  1.
        -11    1    4    4    0    0 -0.16412795019E-01 -0.34408009194E-01 -0.42378747681E-01  0.57004476255E-01  0.51100000000E-03 0. -1.
         11    1    4    4    0    0 -0.20299667228E-01 -0.58765668148E-01 -0.41506847973E-01  0.74756670553E-01  0.51100000000E-03 0.  1.
</event>
<event>
 8    1  0.1066842E+005  0.1043930E+01  0.7957747E-01            NaN
         13   -1    0    0    0    0  0.00000000000E+00  0.00000000000E+00  0.74505805969E-08  0.10566000000E+00  0.10566000000E+00 0.  1.
     999900   -1    0    0    0    0 -0.00000000000E+00 -0.00000000000E+00 -0.74505805969E-08  0.93827000000E+00  0.93827000000E+00 0. -1.
     999902    2    1    2    0    0  0.10097468547E-01  0.50635717549E-02 -0.21469942458E-01  0.10196698050E+01  0.10193811624E+01 0.  0.
     999903    2    3    3    0    0 -0.10533265756E+00  0.61534236304E-01  0.34490824214E-01  0.12857797063E+00  0.21476652194E-01 0.  0.
         14    1    1    2    0    0 -0.10097468547E-01 -0.50635717549E-02  0.21469942458E-01  0.24260194953E-01  0.00000000000E+00 0.  1.
     999901    1    3    3    0    0  0.11543012610E+00 -0.56470664549E-01 -0.55960766672E-01  0.89109183442E+00  0.88000000000E+00 0.  1.
        -11    1    4    4    0    0 -0.21040508933E-02  0.65085666903E-02  0.25278480739E-02  0.73102399009E-02  0.51100000000E-03 0.  1.
         11    1    4    4    0    0 -0.10322860666E+00  0.55025669614E-01  0.31962976140E-01  0.12126773072E+00  0.51100000000E-03 0. -1.
</event>
<event>
 8    1  0.1066842E+005  0.1043930E+01  0.7957747E-01            NaN
         13   -1    0    0    0    0  0.00000000000E+00  0.00000000000E+00  0.74505805969E-08  0.10566000000E+00  0.10566000000E+00 0.  1.
     999900   -1    0    0    0    0 -0.00000000000E+00 -0.00000000000E+00 -0.74505805969E-08  0.93827000000E+00  0.93827000000E+00 0.  1.
     999902    2    1    2    0    0 -0.13326762709E-01 -0.14568453081E-01  0.11843269716E-01  0.10209059807E+01  0.10206463226E+01 0.  0.
     999903    2    3    3    0    0 -0.12338481837E-01  0.12326153515E+00  0.33095616309E-01  0.12992352033E+00  0.20956076355E-01 0.  0.
         14    1    1    2    0    0  0.13326762709E-01  0.14568453081E-01 -0.11843269716E-01  0.23024019350E-01  0.00000000000E+00 0. -1.
     999901    1    3    3    0    0 -0.98828087158E-03 -0.13782998823E+00 -0.21252346593E-01  0.89098246032E+00  0.88000000000E+00 0. -1.
        -11    1    4    4    0    0  0.14264470253E-02  0.37230098897E-01  0.18433520190E-01  0.41571273767E-01  0.51100000000E-03 0.  1.
         11    1    4    4    0    0 -0.13764928862E-01  0.86031436251E-01  0.14662096119E-01  0.88352246568E-01  0.51100000000E-03 0. -1.
</event>
<event>
 8    1  0.1066842E+005  0.1043930E+01  0.7957747E-01            NaN
         13   -1    0    0    0    0  0.00000000000E+00  0.00000000000E+00  0.74505805969E-08  0.10566000000E+00  0.10566000000E+00 0. -1.
     999900   -1    0    0    0    0 -0.00000000000E+00 -0.00000000000E+00 -0.74505805969E-08  0.93827000000E+00  0.93827000000E+00 0.  1.
     999902    2    1    2    0    0 -0.19929780621E-01 -0.11717535405E-01 -0.58267997029E-02  0.10200878443E+01  0.10198091791E+01 0.  0.
     999903    2    3    3    0    0 -0.98051744161E-01  0.50479174585E-02 -0.86503559660E-01  0.13279259405E+00  0.22613739119E-01 0.  0.
         14    1    1    2    0    0  0.19929780621E-01  0.11717535405E-01  0.58267997029E-02  0.23842155656E-01  0.00000000000E+00 0.  1.
     999901    1    3    3    0    0  0.78121963540E-01 -0.16765452863E-01  0.80676759957E-01  0.88729525029E+00  0.88000000000E+00 0. -1.
        -11    1    4    4    0    0 -0.61647950590E-01  0.13542304623E-01 -0.49779179688E-01  0.80387136270E-01  0.51100000000E-03 0.  1.
         11    1    4    4    0    0 -0.36403793571E-01 -0.84943871647E-02 -0.36724379972E-01  0.52405457779E-01  0.51100000000E-03 0. -1.
</event>
<event>
 8    1  0.1066842E+005  0.1043930E+01  0.7957747E-01            NaN
         13   -1    0    0    0    0  0.00000000000E+00  0.00000000000E+00  0.74505805969E-08  0.10566000000E+00  0.10566000000E+00 0. -1.
     999900   -1    0    0    0    0 -0.00000000000E+00 -0.00000000000E+00 -0.74505805969E-08  0.93827000000E+00  0.93827000000E+00 0.  1.
     999902    2    1    2    0    0  0.12511390521E-01  0.21574603982E-01 -0.64267984354E-03  0.10189818244E+01  0.10186763701E+01 0.  0.
     999903    2    3    3    0    0  0.80762729460E-01 -0.12116375384E-01  0.98386522080E-01  0.13016232065E+00  0.24349475739E-01 0.  0.
         14    1    1    2    0    0 -0.12511390521E-01 -0.21574603982E-01  0.64267984354E-03  0.24948175627E-01  0.00000000000E+00 0.  1.
     999901    1    3    3    0    0 -0.68251338939E-01  0.33690979366E-01 -0.99029201923E-01  0.88881950372E+00  0.88000000000E+00 0.  1.
        -11    1    4    4    0    0  0.64453006333E-01 -0.16269749120E-01  0.88328510776E-01  0.11054900135E+00  0.51100000000E-03 0. -1.
         11    1    4    4    0    0  0.16309723127E-01  0.41533737360E-02  0.10058011304E-01  0.19613319307E-01  0.51100000000E-03 0.  1.
</event>
<event>
 8    1  0.1066842E+005  0.1043930E+01  0.7957747E-01            NaN
         13   -1    0    0    0    0  0.00000000000E+00  0.00000000000E+00  0.74505805969E-08  0.10566000000E+00  0.10566000000E+00 0.  1.
     999900   -1    0    0    0    0 -0.00000000000E+00 -0.00000000000E+00 -0.74505805969E-08  0.93827000000E+00  0.93827000000E+00 0.  1.
     999902    2    1    2    0    0 -0.21883450504E-01 -0.51991692951E-02  0.80326761284E-02  0.10200461005E+01  0.10197664471E+01 0.  0.
     999903    2    3    3    0    0  0.49378964389E-01  0.76042817150E-01  0.90568568065E-01  0.12960196103E+00  0.19318659829E-01 0.  0.
         14    1    1    2    0    0  0.21883450504E-01  0.51991692951E-02 -0.80326761284E-02  0.23883899454E-01  0.00000000000E+00 0. -1.
     999901    1    3    3    0    0 -0.71262414894E-01 -0.81241986446E-01 -0.82535891936E-01  0.89044413951E+00  0.88000000000E+00 0. -1.
        -11    1    4    4    0    0  0.49611358329E-02  0.21038753258E-01  0.16430116894E-01  0.27156065060E-01  0.51100000000E-03 0. -1.
         11    1    4    4    0    0  0.44417828556E-01  0.55004063892E-01  0.74138451171E-01  0.10244589597E+00  0.51100000000E-03 0.  1.
</event>
<event>
 8    1  0.1066842E+005  0.1043930E+01  0.7957747E-01            NaN
         13   -1    0    0    0    0  0.00000000000E+00  0.00000000000E+00  0.74505805969E-08  0.10566000000E+00  0.10566000000E+00 0. -1.
     999900   -1    0    0    0    0 -0.00000000000E+00 -0.00000000000E+00 -0.74505805969E-08  0.93827000000E+00  0.93827000000E+00 0.  1.
     999902    2    1    2    0    0  0.20792141039E-01  0.87511853479E-02  0.96312452456E-02  0.10194012972E+01  0.10191061513E+01 0.  0.
     999903    2    3    3    0    0 -0.10287530006E+00 -0.59884598399E-01  0.39606830813E-01  0.12760365062E+00  0.23334483388E-01 0.  0.
         14    1    1    2    0    0 -0.20792141039E-01 -0.87511853479E-02 -0.96312452456E-02  0.24528702757E-01  0.00000000000E+00 0.  1.
     999901    1    3    3    0    0  0.12366744110E+00  0.68635783747E-01 -0.29975585567E-01  0.89179764663E+00  0.88000000000E+00 0.  1.
        -11    1    4    4    0    0 -0.15271564259E-01 -0.15078971131E-01  0.14958708590E-01  0.26165246587E-01  0.51100000000E-03 0.  1.
         11    1    4    4    0    0 -0.87603735805E-01 -0.44805627267E-01  0.24648122223E-01  0.10143840403E+00  0.51100000000E-03 0. -1.
</event>
<event>
 8    1  0.1066842E+005  0.1043930E+01  0.7957747E-01            NaN
         13   -1    0    0    0    0  0.00000000000E+00  0.00000000000E+00  0.74505805969E-08  0.10566000000E+00  0.10566000000E+00 0. -1.
     999900   -1    0    0    0    0 -0.00000000000E+00 -0.00000000000E+00 -0.74505805969E-08  0.93827000000E+00  0.93827000000E+00 0. -1.
     999902    2    1    2    0    0 -0.21961575372E-01 -0.39067021908E-03 -0.58980608457E-02  0.10211868573E+01  0.10209335664E+01 0.  0.
     999903    2    3    3    0    0  0.22875266071E-02 -0.47878774067E-01  0.12122514237E+00  0.13045488433E+00  0.50330823822E-02 0.  0.
         14    1    1    2    0    0  0.21961575372E-01  0.39067021908E-03  0.58980608457E-02  0.22743142654E-01  0.00000000000E+00 0. -1.
     999901    1    3    3    0    0 -0.24249101979E-01  0.47488103848E-01 -0.12712320322E+00  0.89073197301E+00  0.88000000000E+00 0. -1.
        -11    1    4    4    0    0  0.11944201010E-02 -0.28805155518E-01  0.66268307151E-01  0.72269725870E-01  0.51100000000E-03 0.  1.
         11    1    4    4    0    0  0.10931065061E-02 -0.19073618549E-01  0.54956835223E-01  0.58185158461E-01  0.51100000000E-03 0. -1.
</event>
<event>
 8    1  0.1066842E+005  0.1043930E+01  0.7957747E-01            NaN
         13   -1    0    0    0    0  0.00000000000E+00  0.00000000000E+00  0.74505805969E-08  0.10566000000E+00  0.10566000000E+00 0.  1.
     999900   -1    0    0    0    0 -0.00000000000E+00 -0.00000000000E+00 -0.74505805969E-08  0.93827000000E+00  0.93827000000E+00 0.  1.
     999902    2    1    2    0    0 -0.13405145012E-01  0.18046087415E-01  0.36388833383E-02  0.10211571948E+01  0.10209032353E+01 0.  0.
     999903    2    3    3    0    0  0.68372815543E-01  0.45469380400E-01 -0.99790832918E-01  0.13091151073E+00  0.20911882963E-01 0.  0.
         14    1    1    2    0    0  0.13405145012E-01 -0.18046087415E-01 -0.36388833383E-02  0.22772805179E-01  0.00000000000E+00 0. -1.
     999901    1    3    3    0    0 -0.81777960555E-01 -0.27423292986E-01  0.10342971626E+00  0.89024568409E+00  0.88000000000E+00 0.  1.
        -11    1    4    4    0    0  0.21075258458E-01  0.42378462323E-02 -0.19661814241E-01  0.29137157033E-01  0.51100000000E-03 0. -1.
         11    1    4    4    0    0  0.47297557085E-01  0.41231534168E-01 -0.80129018677E-01  0.10177435370E+00  0.51100000000E-03 0.  1.
</event>
<event>
 8    1  0.1066842E+005  0.1043930E+01  0.7957747E-01            NaN
         13   -1    0    0    0    0  0.00000000000E+00  0.00000000000E+00  0.74505805969E-08  0.10566000000E+00  0.10566000000E+00 0. -1.
     999900   -1    0    0    0    0 -0.00000000000E+00 -0.00000000000E+00 -0.74505805969E-08  0.93827000000E+00  0.93827000000E+00 0. -1.
     999902    2    1    2    0    0 -0.49161591348E-02 -0.59544992861E-02 -0.23397411397E-01  0.10192913405E+01  0.10189935099E+01 0.  0.
     999903    2    3    3    0    0  0.41022556882E-01 -0.82719215801E-01 -0.92319852047E-01  0.13207463069E+00  0.19885526211E-01 0.  0.
         14    1    1    2    0    0  0.49161591348E-02  0.59544992861E-02  0.23397411397E-01  0.24638659511E-01  0.00000000000E+00 0. -1.
     999901    1    3    3    0    0 -0.45938716017E-01  0.76764716515E-01  0.68922440650E-01  0.88721670980E+00  0.88000000000E+00 0. -1.
        -11    1    4    4    0    0  0.35019432011E-01 -0.49506073627E-01 -0.61401335541E-01  0.86299461595E-01  0.51100000000E-03 0.  1.
         11    1    4    4    0    0  0.60031248710E-02 -0.33213142174E-01 -0.30918516506E-01  0.45775169090E-01  0.51100000000E-03 0. -1.
</event>
<event>
 8    1  0.1066842E+005  0.1043930E+01  0.7957747E-01            NaN
         13   -1    0    0    0    0  0.00000000000E+00  0.00000000000E+00  0.74505805969E-08  0.10566000000E+00  0.10566000000E+00 0.  1.
     999900   -1    0    0    0    0 -0.00000000000E+00 -0.00000000000E+00 -0.74505805969E-08  0.93827000000E+00  0.93827000000E+00 0. -1.
     999902    2    1    2    0    0  0.65222769992E-02 -0.21874650612E-01 -0.86477805913E-02  0.10195204825E+01  0.10192282324E+01 0.  0.
     999903    2    3    3    0    0  0.97250571820E-01 -0.87521428036E-01 -0.55672591961E-02  0.13241811382E+00  0.19644042533E-01 0.  0.
         14    1    1    2    0    0 -0.65222769992E-02  0.21874650612E-01  0.86477805913E-02  0.24409517525E-01  0.00000000000E+00 0.  1.
     999901    1    3    3    0    0 -0.90728294821E-01  0.65646777423E-01 -0.30805213952E-02  0.88710236866E+00  0.88000000000E+00 0.  1.
        -11    1    4    4    0    0  0.28388052457E-01 -0.15187597129E-01 -0.47095445287E-02  0.32542058317E-01  0.51100000000E-03 0.  1.
         11    1    4    4    0    0  0.68862519363E-01 -0.72333830907E-01 -0.85771466737E-03  0.99876055499E-01  0.51100000000E-03 0. -1.
</event>
<event>
 8    1  0.1066842E+005  0.1043930E+01  0.7957747E-01            NaN
         13   -1    0    0    0    0  0.00000000000E+00  0.00000000000E+00  0.74505805969E-08  0.10566000000E+00  0.10566000000E+00 0.  1.
     999900   -1    0    0    0    0 -0.00000000000E+00 -0.00000000000E+00 -0.74505805969E-08  0.93827000000E+00  0.93827000000E+00 0. -1.
     999902    2    1    2    0    0  0.11667400855E-01 -0.15907332052E-01 -0.12608085837E-01  0.10205177108E+01  0.10202491180E+01 0.  0.
     999903    2    3    3    0    0 -0.74574950119E-01  0.98391250410E-01  0.28234698701E-01  0.12800998419E+00  0.18630526037E-01 0.  0.
         14    1    1    2    0    0 -0.11667400855E-01  0.15907332052E-01  0.12608085837E-01  0.23412289170E-01  0.00000000000E+00 0.  1.
     999901    1    3    3    0    0  0.86242350974E-01 -0.11429858246E+00 -0.40842784538E-01  0.89250772663E+00  0.88000000000E+00 0.  1.
        -11    1    4    4    0    0 -0.33937807398E-01  0.58165149752E-01  0.19907637421E-01  0.70224885655E-01  0.51100000000E-03 0. -1.
         11    1    4    4    0    0 -0.40637142721E-01  0.40226100658E-01  0.83270612801E-02  0.57785098539E-01  0.51100000000E-03 0.  1.
</event>
<event>
 8    1  0.1066842E+005  0.1043930E+01  0.7957747E-01            NaN
         13   -1    0    0    0    0  0.00000000000E+00  0.00000000000E+00  0.74505805969E-08  0.10566000000E+00  0.10566000000E+00 0.  1.
     999900   -1    0    0    0    0 -0.00000000000E+00 -0.00000000000E+00 -0.74505805969E-08  0.93827000000E+00  0.93827000000E+00 0.  1.
     999902    2    1    2    0    0  0.14891537252E-01 -0.85765613749E-02 -0.16903328196E-01  0.10198252745E+01  0.10195403635E+01 0.  0.
     999903    2    3    3    0    0  0.12490188163E+00  0.35703829265E-01 -0.80363116244E-02  0.13182659611E+00  0.20938616885E-01 0.  0.
         14    1    1    2    0    0 -0.14891537252E-01  0.85765613749E-02  0.16903328196E-01  0.24104725488E-01  0.00000000000E+00 0.  1.
     999901    1    3    3    0    0 -0.11001034438E+00 -0.44280390640E-01 -0.88670165713E-02  0.88799867841E+00  0.88000000000E+00 0. -1.
        -11    1    4    4    0    0  0.72364016034E-01  0.29123494459E-01 -0.11075229051E-01  0.78788644902E-01  0.51100000000E-03 0. -1.
         11    1    4    4    0    0  0.52537865599E-01  0.65803348061E-02  0.30389174262E-02  0.53037951205E-01  0.51100000000E-03 0.  1.
</event>
<event>
 8    1  0.1066842E+005  0.1043930E+01  0.7957747E-01            NaN
         13   -1    0    0    0    0  0.00000000000E+00  0.00000000000E+00  0.74505805969E-08  0.10566000000E+00  0.10566000000E+00 0. -1.
     999900   -1    0    0    0    0 -0.00000000000E+00 -0.00000000000E+00 -0.74505805969E-08  0.93827000000E+00  0.93827000000E+00 0.  1.
     999902    2    1    2    0    0  0.21759027073E-01 -0.67194006645E-02 -0.22573047773E-02  0.10210454849E+01  0.10207889994E+01 0.  0.
     999903    2    3    3    0    0  0.51794151151E-01  0.11942639243E+00  0.27748286191E-02  0.13152865421E+00  0.18622295824E-01 0.  0.
         14    1    1    2    0    0 -0.21759027073E-01  0.67194006645E-02  0.22573047773E-02  0.22884515056E-01  0.00000000000E+00 0.  1.
     999901    1    3    3    0    0 -0.30035124078E-01 -0.12614579310E+00 -0.50321333964E-02  0.88951683073E+00  0.88000000000E+00 0. -1.
        -11    1    4    4    0    0  0.86782368325E-02  0.10499362903E-01  0.45311129121E-02  0.14364557811E-01  0.51100000000E-03 0.  1.
         11    1    4    4    0    0  0.43115914319E-01  0.10892702953E+00 -0.17562842930E-02  0.11716409640E+00  0.51100000000E-03 0. -1.
</event>
<event>
 8    1  0.1066842E+005  0.1043930E+01  0.7957747E-01            NaN
         13   -1    0    0    0    0  0.00000000000E+00  0.00000000000E+00  0.74505805969E-08  0.10566000000E+00  0.10566000000E+00 0.  1.
     999900   -1    0    0    0    0 -0.00000000000E+00 -0.00000000000E+00 -0.74505805969E-08  0.93827000000E+00  0.93827000000E+00 0.  1.
     999902    2    1    2    0    0 -0.10954171757E-01  0.90688474706E-02  0.19180077295E-01  0.10200529558E+01  0.10197734648E+01 0.  0.
     999903    2    3    3    0    0 -0.39625013453E-01  0.76171041411E-01 -0.95115991136E-01  0.12966634718E+00  0.19852974120E-01 0.  0.
         14    1    1    2    0    0  0.10954171757E-01 -0.90688474706E-02 -0.19180077295E-01  0.23877044172E-01  0.00000000000E+00 0. -1.
     999901    1    3    3    0    0  0.28670841697E-01 -0.67102193940E-01  0.11429606843E+00  0.89038660864E+00  0.88000000000E+00 0. -1.
        -11    1    4    4    0    0 -0.36000503854E-01  0.70937228869E-01 -0.78056346095E-01  0.11145035219E+00  0.51100000000E-03 0.  1.
         11    1    4    4    0    0 -0.36245095996E-02  0.52338125417E-02 -0.17059645041E-01  0.18215994990E-01  0.51100000000E-03 0. -1.
</event>
<event>
 8    1  0.1066842E+005  0.1043930E+01  0.7957747E-01            NaN
         13   -1    0    0    0    0  0.00000000000E+00  0.00000000000E+00  0.74505805969E-08  0.10566000000E+00  0.10566000000E+00 0. -1.
     999900   -1    0    0    0    0 -0.00000000000E+00 -0.00000000000E+00 -0.74505805969E-08  0.93827000000E+00  0.93827000000E+00 0. -1.
     999902    2    1    2    0    0  0.12494288174E-01 -0.11416582390E-02 -0.18769977774E-01  0.10213529611E+01  0.10211033975E+01 0.  0.
     999903    2    3    3    0    0 -0.99394965461E-02 -0.15728567347E-02 -0.13189989407E+00  0.13382727774E+00  0.20270440101E-01 0.  0.
         14    1    1    2    0    0 -0.12494288174E-01  0.11416582390E-02  0.18769977774E-01  0.22577038914E-01  0.00000000000E+00 0. -1.
     999901    1    3    3    0    0  0.22433784720E-01  0.43119849567E-03  0.11312991630E+00  0.88752568334E+00  0.88000000000E+00 0.  1.
        -11    1    4    4    0    0 -0.14699479467E-01  0.61738372432E-03 -0.11880722511E+00  0.11971580396E+00  0.51100000000E-03 0. -1.
         11    1    4    4    0    0  0.47599829212E-02 -0.21902404590E-02 -0.13092668966E-01  0.14111473783E-01  0.51100000000E-03 0.  1.
</event>
<event>
 8    1  0.1066842E+005  0.1043930E+01  0.7957747E-01            NaN
         13   -1    0    0    0    0  0.00000000000E+00  0.00000000000E+00  0.74505805969E-08  0.10566000000E+00  0.10566000000E+00 0. -1.
     999900   -1    0    0    0    0 -0.00000000000E+00 -0.00000000000E+00 -0.74505805969E-08  0.93827000000E+00  0.93827000000E+00 0.  1.
     999902    2    1    2    0    0  0.54452098237E-02 -0.12233702961E-01 -0.16486265393E-01  0.10226906322E+01  0.10224700575E+01 0.  0.
     999903    2    3    3    0    0  0.61821913841E-01 -0.96689846832E-01 -0.68785741887E-01  0.13530886078E+00  0.20152766754E-01 0.  0.
         14    1    1    2    0    0 -0.54452098237E-02  0.12233702961E-01  0.16486265393E-01  0.21239367805E-01  0.00000000000E+00 0. -1.
     999901    1    3    3    0    0 -0.56376704017E-01  0.84456143872E-01  0.52299476494E-01  0.88738177141E+00  0.88000000000E+00 0.  1.
        -11    1    4    4    0    0  0.17222114567E-01 -0.18350974637E-01 -0.23458699586E-01  0.34408301434E-01  0.51100000000E-03 0. -1.
         11    1    4    4    0    0  0.44599799274E-01 -0.78338872195E-01 -0.45327042301E-01  0.10090055935E+00  0.51100000000E-03 0.  1.
</event>
<event>
 8    1  0.1066842E+005  0.1043930E+01  0.7957747E-01            NaN
         13   -1    0    0    0    0  0.00000000000E+00  0.00000000000E+00  0.74505805969E-08  0.10566000000E+00  0.10566000000E+00 0.  1.
     999900   -1    0    0    0    0 -0.00000000000E+00 -0.00000000000E+00 -0.74505805969E-08  0.93827000000E+00  0.93827000000E+00 0.  1.
     999902    2    1    2    0    0 -0.18602273744E-01  0.11395529059E-02  0.13470942909E-01  0.10209341423E+01  0.10206751263E+01 0.  0.
     999903    2    3    3    0    0  0.82426335591E-02  0.12716253323E+00  0.22899885181E-01  0.13150098258E+00  0.23018531944E-01 0.  0.
         14    1    1    2    0    0  0.18602273744E-01 -0.11395529059E-02 -0.13470942909E-01  0.22995857717E-01  0.00000000000E+00 0. -1.
     999901    1    3    3    0    0 -0.26844907303E-01 -0.12602298033E+00 -0.94289422718E-02  0.88943315970E+00  0.88000000000E+00 0. -1.
        -11    1    4    4    0    0 -0.17880353267E-02  0.35887962937E-02  0.46870095142E-02  0.61891605532E-02  0.51100000000E-03 0.  1.
         11    1    4    4    0    0  0.10030668886E-01  0.12357373694E+00  0.18212875667E-01  0.12531182203E+00  0.51100000000E-03 0. -1.
</event>
<event>
 8    1  0.1066842E+005  0.1043930E+01  0.7957747E-01            NaN
         13   -1    0    0    0    0  0.00000000000E+00  0.00000000000E+00  0.74505805969E-08  0.10566000000E+00  0.10566000000E+00 0. -1.
     999900   -1    0    0    0    0 -0.00000000000E+00 -0.00000000000E+00 -0.74505805969E-08  0.93827000000E+00  0.93827000000E+00 0. -1.
     999902    2    1    2    0    0 -0.91853628095E-02  0.19385941402E-01  0.49042476297E-02  0.10219246084E+01  0.10216876568E+01 0.  0.
     999903    2    3    3    0    0 -0.10371557299E+00 -0.52919860912E-01  0.59518277187E-01  0.13223545938E+00  0.19656033149E-01 0.  0.
         14    1    1    2    0    0  0.91853628095E-02 -0.19385941402E-01 -0.49042476297E-02  0.22005391585E-01  0.00000000000E+00 0.  1.
     999901    1    3    3    0    0  0.94530210179E-01  0.72305802313E-01 -0.54614029557E-01  0.88968914903E+00  0.88000000000E+00 0. -1.
        -11    1    4    4    0    0 -0.65646825672E-01 -0.24489428437E-01  0.29452869471E-01  0.76006384383E-01  0.51100000000E-03 0.  1.
         11    1    4    4    0    0 -0.38068747317E-01 -0.28430432475E-01  0.30065407716E-01  0.56229074998E-01  0.51100000000E-03 0. -1.
</event>
<event>
 8    1  0.1066842E+005  0.1043930E+01  0.7957747E-01            NaN
         13   -1    0    0    0    0  0.00000000000E+00  0.00000000000E+00  0.74505805969E-08  0.10566000000E+00  0.10566000000E+00 0. -1.
     999900   -1    0    0    0    0 -0.00000000000E+00 -0.00000000000E+00 -0.74505805969E-08  0.93827000000E+00  0.93827000000E+00 0. -1.
     999902    2    1    2    0    0 -0.93494760241E-02 -0.88902211094E-02 -0.21605019495E-01  0.10187660257E+01  0.10184551976E+01 0.  0.
     999903    2    3    3    0    0 -0.80165512270E-02  0.12443230535E+00 -0.24267665064E-01  0.12871896943E+00  0.20784364689E-01 0.  0.
         14    1    1    2    0    0  0.93494760241E-02  0.88902211094E-02  0.21605019495E-01  0.25163974263E-01  0.00000000000E+00 0. -1.
     999901    1    3    3    0    0 -0.13329247971E-02 -0.13332252646E+00  0.26626455684E-02  0.89004705630E+00  0.88000000000E+00 0.  1.
        -11    1    4    4    0    0  0.32552516395E-02  0.92180931743E-01 -0.18077974293E-01  0.93994654719E-01  0.51100000000E-03 0.  1.
         11    1    4    4    0    0 -0.11271802867E-01  0.32251373611E-01 -0.61896907710E-02  0.34724314716E-01  0.51100000000E-03 0. -1.
</event>
<event>
 8    1  0.1066842E+005  0.1043930E+01  0.7957747E-01            NaN
         13   -1    0    0    0    0  0.00000000000E+00  0.00000000000E+00  0.74505805969E-08  0.10566000000E+00  0.10566000000E+00 0. -1.
     999900   -1    0    0    0    0 -0.00000000000E+00 -0.00000000000E+00 -0.74505805969E-08  0.93827000000E+00  0.93827000000E+00 0. -1.
     999902    2    1    2    0    0  0.65445810675E-02 -0.21465166203E-01  0.17578249741E-02  0.10214205609E+01  0.10211725061E+01 0.  0.
     999903    2    3    3    0    0  0.11222275275E+00 -0.60664519135E-01 -0.34155147118E-01  0.13350490789E+00  0.19566712541E-01 0.  0.
         14    1    1    2    0    0 -0.65445810675E-02  0.21465166203E-01 -0.17578249741E-02  0.22509439134E-01  0.00000000000E+00 0.  1.
     999901    1    3    3    0    0 -0.10567817168E+00  0.39199352932E-01  0.35912972092E-01  0.88791565298E+00  0.88000000000E+00 0.  1.
        -11    1    4    4    0    0  0.27621475381E-01 -0.58059226587E-02 -0.73739813125E-02  0.29176897736E-01  0.51100000000E-03 0. -1.
         11    1    4    4    0    0  0.84601277365E-01 -0.54858596477E-01 -0.26781165805E-01  0.10432801015E+00  0.51100000000E-03 0.  1.
</event>
<event>
 8    1  0.1066842E+005  0.1043930E+01  0.7957747E-01            NaN
         13   -1    0    0    0    0  0.00000000000E+00  0.00000000000E+00  0.74505805969E-08  0.10566000000E+00  0.10566000000E+00 0. -1.
     999900   -1    0    0    0    0 -0.00000000000E+00 -0.00000000000E+00 -0.74505805969E-08  0.93827000000E+00  0.93827000000E+00 0. -1.
     999902    2    1    2    0    0  0.10786977685E-01  0.14885270780E-01  0.17584668853E-01  0.10184908421E+01  0.10181730918E+01 0.  0.
     999903    2    3    3    0    0  0.41569009026E-01 -0.11819414260E+00 -0.12935055478E-01  0.12743017233E+00  0.19320851496E-01 0.  0.
         14    1    1    2    0    0 -0.10786977685E-01 -0.14885270780E-01 -0.17584668853E-01  0.25439157856E-01  0.00000000000E+00 0.  1.
     999901    1    3    3    0    0 -0.30782031341E-01  0.13307941338E+00  0.30519724331E-01  0.89106066982E+00  0.88000000000E+00 0. -1.
        -11    1    4    4    0    0  0.30150474807E-01 -0.64540091439E-01 -0.77887334691E-03  0.71241436670E-01  0.51100000000E-03 0. -1.
         11    1    4    4    0    0  0.11418534219E-01 -0.53654051163E-01 -0.12156182131E-01  0.56188735658E-01  0.51100000000E-03 0.  1.
</event>
<event>
 8    1  0.1066842E+005  0.1043930E+01  0.7957747E-01            NaN
         13   -1    0    0    0    0  0.00000000000E+00  0.00000000000E+00  0.74505805969E-08  0.10566000000E+00  0.10566000000E+00 0. -1.
     999900   -1    0    0    0    0 -0.00000000000E+00 -0.00000000000E+00 -0.74505805969E-08  0.93827000000E+00  0.93827000000E+00 0.  1.
     999902    2    1    2    0    0 -0.17482009926E-01  0.14272764781E-01  0.43797068572E-02  0.10209405607E+01  0.10206816909E+01 0.  0.
     999903    2    3    3    0    0 -0.10391613591E+00  0.62229764037E-01  0.53548087391E-01  0.13404244846E+00  0.20709261037E-01 0.  0.
         14    1    1    2    0    0  0.17482009926E-01 -0.14272764781E-01 -0.43797068572E-02  0.22989439265E-01  0.00000000000E+00 0. -1.
     999901    1    3    3    0    0  0.86434125979E-01 -0.47956999255E-01 -0.49168380534E-01  0.88689811227E+00  0.88000000000E+00 0. -1.
        -11    1    4    4    0    0 -0.53825227142E-01  0.42340321452E-01  0.35936164912E-01  0.77340332086E-01  0.51100000000E-03 0.  1.
         11    1    4    4    0    0 -0.50090908763E-01  0.19889442585E-01  0.17611922479E-01  0.56702116375E-01  0.51100000000E-03 0. -1.
</event>
<event>
 8    1  0.1066842E+005  0.1043930E+01  0.7957747E-01            NaN
         13   -1    0    0    0    0  0.00000000000E+00  0.00000000000E+00  0.74505805969E-08  0.10566000000E+00  0.10566000000E+00 0.  1.
     999900   -1    0    0    0    0 -0.00000000000E+00 -0.00000000000E+00 -0.74505805969E-08  0.93827000000E+00  0.93827000000E+00 0.  1.
     999902    2    1    2    0    0 -0.24371580719E-02 -0.19661917812E-01  0.12988199310E-01  0.10202398317E+01  0.10199647495E+01 0.  0.
     999903    2    3    3    0    0 -0.13068363697E-01 -0.21732729250E-01  0.12861735513E+00  0.13260960890E+00  0.19994766360E-01 0.  0.
         14    1    1    2    0    0  0.24371580719E-02  0.19661917812E-01 -0.12988199310E-01  0.23690168274E-01  0.00000000000E+00 0.  1.
     999901    1    3    3    0    0  0.10631205626E-01  0.20708114384E-02 -0.11562915582E+00  0.88763022282E+00  0.88000000000E+00 0.  1.
        -11    1    4    4    0    0 -0.14669489364E-01 -0.11238122352E-01  0.50592412144E-01  0.53864112355E-01  0.51100000000E-03 0. -1.
         11    1    4    4    0    0  0.16011256661E-02 -0.10494606898E-01  0.78024942988E-01  0.78745496548E-01  0.51100000000E-03 0.  1.
</event>
<event>
 8    1  0.1066842E+005  0.1043930E+01  0.7957747E-01            NaN
         13   -1    0    0    0    0  0.00000000000E+00  0.00000000000E+00  0.74505805969E-08  0.10566000000E+00  0.10566000000E+00 0. -1.
     999900   -1    0    0    0    0 -0.00000000000E+00 -0.00000000000E+00 -0.74505805969E-08  0.93827000000E+00  0.93827000000E+00 0.  1.
     999902    2    1    2    0    0  0.20124890665E-01 -0.41357901137E-02  0.11499211860E-01  0.10203854070E+01  0.10201137344E+01 0.  0.
     999903    2    3    3    0    0 -0.36502018382E-01  0.44978615394E-01 -0.11295455826E+00  0.12847309490E+00  0.19777024380E-01 0.  0.
         14    1    1    2    0    0 -0.20124890665E-01  0.41357901137E-02 -0.11499211860E-01  0.23544592957E-01  0.00000000000E+00 0. -1.
     999901    1    3    3    0    0  0.56626909046E-01 -0.49114405507E-01  0.12445377012E+00  0.89191231214E+00  0.88000000000E+00 0. -1.
        -11    1    4    4    0    0 -0.70781289058E-02  0.29938024276E-03 -0.19975067661E-01  0.21200329866E-01  0.51100000000E-03 0.  1.
         11    1    4    4    0    0 -0.29423889476E-01  0.44679235151E-01 -0.92979490596E-01  0.10727276503E+00  0.51100000000E-03 0. -1.
</event>
<event>
 8    1  0.1066842E+005  0.1043930E+01  0.7957747E-01            NaN
         13   -1    0    0    0    0  0.00000000000E+00  0.00000000000E+00  0.74505805969E-08  0.10566000000E+00  0.10566000000E+00 0. -1.
     999900   -1    0    0    0    0 -0.00000000000E+00 -0.00000000000E+00 -0.74505805969E-08  0.93827000000E+00  0.93827000000E+00 0.  1.
     999902    2    1    2    0    0  0.53977748790E-02 -0.22690741241E-01  0.36698570729E-02  0.10203191219E+01  0.10200458995E+01 0.  0.
     999903    2    3    3    0    0  0.27786285403E-01 -0.11344469388E+00 -0.60429996093E-01  0.13305010045E+00  0.20218026035E-01 0.  0.
         14    1    1    2    0    0 -0.53977748790E-02  0.22690741241E-01 -0.36698570729E-02  0.23610878057E-01  0.00000000000E+00 0. -1.
     999901    1    3    3    0    0 -0.22388510524E-01  0.90753952637E-01  0.64099853166E-01  0.88726902149E+00  0.88000000000E+00 0. -1.
        -11    1    4    4    0    0  0.17307795792E-01 -0.84375842369E-01 -0.34790987438E-01  0.92895190934E-01  0.51100000000E-03 0. -1.
         11    1    4    4    0    0  0.10478489610E-01 -0.29068851508E-01 -0.25639008655E-01  0.40154909517E-01  0.51100000000E-03 0.  1.
</event>
<event>
 8    1  0.1066842E+005  0.1043930E+01  0.7957747E-01            NaN
         13   -1    0    0    0    0  0.00000000000E+00  0.00000000000E+00  0.74505805969E-08  0.10566000000E+00  0.10566000000E+00 0. -1.
     999900   -1    0    0    0    0 -0.00000000000E+00 -0.00000000000E+00 -0.74505805969E-08  0.93827000000E+00  0.93827000000E+00 0.  1.
     999902    2    1    2    0    0 -0.15582683648E-01 -0.17278203663E-03 -0.15734689100E-01  0.10217843385E+01  0.10215443231E+01 0.  0.
     999903    2    3    3    0    0 -0.46724322471E-01 -0.61148932878E-01 -0.10823644904E+00  0.13429097612E+00  0.19914393352E-01 0.  0.
         14    1    1    2    0    0  0.15582683648E-01  0.17278203663E-03  0.15734689100E-01  0.22145661525E-01  0.00000000000E+00 0. -1.
     999901    1    3    3    0    0  0.31141638822E-01  0.60976150841E-01  0.92501759941E-01  0.88749336236E+00  0.88000000000E+00 0. -1.
        -11    1    4    4    0    0 -0.22633838897E-01 -0.45319993674E-01 -0.69387668381E-01  0.85913340839E-01  0.51100000000E-03 0.  1.
         11    1    4    4    0    0 -0.24090483574E-01 -0.15828939204E-01 -0.38848780660E-01  0.48377635276E-01  0.51100000000E-03 0. -1.
</event>
<event>
 8    1  0.1066842E+005  0.1043930E+01  0.7957747E-01            NaN
         13   -1    0    0    0    0  0.00000000000E+00  0.00000000000E+00  0.74505805969E-08  0.10566000000E+00  0.10566000000E+00 0.  1.
     999900   -1    0    0    0    0 -0.00000000000E+00 -0.00000000000E+00 -0.74505805969E-08  0.93827000000E+00  0.93827000000E+00 0.  1.
     999902    2    1    2    0    0 -0.24288260870E-02  0.43432715546E-02 -0.23677016045E-01  0.10197356971E+01  0.10194486390E+01 0.  0.
     999903    2    3    3    0    0  0.23567287905E-01  0.10414527041E+00  0.69608412945E-01  0.12881571855E+00  0.18614612112E-01 0.  0.
         14    1    1    2    0    0  0.24288260870E-02 -0.43432715546E-02  0.23677016045E-01  0.24194302898E-01  0.00000000000E+00 0.  1.
     999901    1    3    3    0    0 -0.25996113992E-01 -0.99801998860E-01 -0.93285428990E-01  0.89091997855E+00  0.88000000000E+00 0.  1.
        -11    1    4    4    0    0  0.10973235007E-01  0.43836166100E-01  0.40456824542E-01  0.60655066712E-01  0.51100000000E-03 0.  1.
         11    1    4    4    0    0  0.12594052899E-01  0.60309104314E-01  0.29151588404E-01  0.68160651838E-01  0.51100000000E-03 0. -1.
</event>
<event>
 8    1  0.1066842E+005  0.1043930E+01  0.7957747E-01            NaN
         13   -1    0    0    0    0  0.00000000000E+00  0.00000000000E+00  0.74505805969E-08  0.10566000000E+00  0.10566000000E+00 0. -1.
     999900   -1    0    0    0    0 -0.00000000000E+00 -0.00000000000E+00 -0.74505805969E-08  0.93827000000E+00  0.93827000000E+00 0.  1.
     999902    2    1    2    0    0 -0.10253428878E-01  0.21503700305E-01  0.53728647685E-03  0.10201008035E+01  0.10198224447E+01 0.  0.
     999903    2    3    3    0    0 -0.11188680570E+00 -0.62856830471E-01 -0.83772177170E-02  0.13019883650E+00  0.20295832623E-01 0.  0.
         14    1    1    2    0    0  0.10253428878E-01 -0.21503700305E-01 -0.53728647685E-03  0.23829196531E-01  0.00000000000E+00 0.  1.
     999901    1    3    3    0    0  0.10163337682E+00  0.84360530776E-01  0.89145041938E-02  0.88990196697E+00  0.88000000000E+00 0. -1.
        -11    1    4    4    0    0 -0.74986962017E-01 -0.30952583349E-01 -0.63603007972E-02  0.81374574873E-01  0.51100000000E-03 0. -1.
         11    1    4    4    0    0 -0.36899843682E-01 -0.31904247122E-01 -0.20169169197E-02  0.48824261623E-01  0.51100000000E-03 0.  1.
</event>
<event>
 8    1  0.1066842E+005  0.1043930E+01  0.7957747E-01            NaN
         13   -1    0    0    0    0  0.00000000000E+00  0.00000000000E+00  0.74505805969E-08  0.10566000000E+00  0.10566000000E+00 0. -1.
     999900   -1    0    0    0    0 -0.00000000000E+00 -0.00000000000E+00 -0.74505805969E-08  0.93827000000E+00  0.93827000000E+00 0.  1.
     999902    2    1    2    0    0  0.15772289344E-01 -0.16567105725E-01  0.62603488044E-02  0.10202144762E+01  0.10199387978E+01 0.  0.
     999903    2    3    3    0    0  0.18924691000E-01  0.12540753106E+00 -0.11490506727E-01  0.12865302120E+00  0.18285932911E-01 0.  0.
         14    1    1    2    0    0 -0.15772289344E-01  0.16567105725E-01 -0.62603488044E-02  0.23715523827E-01  0.00000000000E+00 0. -1.
     999901    1    3    3    0    0 -0.31524016562E-02 -0.14197463678E+00  0.17750855531E-01  0.89156145498E+00  0.88000000000E+00 0.  1.
        -11    1    4    4    0    0  0.42030139774E-02  0.70682019613E-01  0.89069991612E-04  0.70808772603E-01  0.51100000000E-03 0.  1.
         11    1    4    4    0    0  0.14721677023E-01  0.54725511446E-01 -0.11579576719E-01  0.57844248594E-01  0.51100000000E-03 0. -1.
</event>
<event>
 8    1  0.1066842E+005  0.1043930E+01  0.7957747E-01            NaN
         13   -1    0    0    0    0  0.00000000000E+00  0.00000000000E+00  0.74505805969E-08  0.10566000000E+00  0.10566000000E+00 0.  1.
     999900   -1    0    0    0    0 -0.00000000000E+00 -0.00000000000E+00 -0.74505805969E-08  0.93827000000E+00  0.93827000000E+00 0.  1.
     999902    2    1    2    0    0 -0.43431305043E-02 -0.15814758904E-01 -0.17066055235E-01  0.10202610409E+01  0.10199864568E+01 0.  0.
     999903    2    3    3    0    0  0.21913005651E-01 -0.12819425832E+00 -0.16961036453E-01  0.13272594439E+00  0.20360546987E-01 0.  0.
         14    1    1    2    0    0  0.43431305043E-02  0.15814758904E-01  0.17066055235E-01  0.23668959061E-01  0.00000000000E+00 0.  1.
     999901    1    3    3    0    0 -0.26256136155E-01  0.11237949942E+00 -0.10501878155E-03  0.88753509655E+00  0.88000000000E+00 0.  1.
        -11    1    4    4    0    0  0.85093589915E-02 -0.61456710623E-01 -0.18143491949E-01  0.64643513922E-01  0.51100000000E-03 0.  1.
         11    1    4    4    0    0  0.13403646659E-01 -0.66737547698E-01  0.11824554961E-02  0.68082430469E-01  0.51100000000E-03 0. -1.
</event>
<event>
 8    1  0.1066842E+005  0.1043930E+01  0.7957747E-01            NaN
         13   -1    0    0    0    0  0.00000000000E+00  0.00000000000E+00  0.74505805969E-08  0.10566000000E+00  0.10566000000E+00 0.  1.
     999900   -1    0    0    0    0 -0.00000000000E+00 -0.00000000000E+00 -0.74505805969E-08  0.93827000000E+00  0.93827000000E+00 0. -1.
     999902    2    1    2    0    0 -0.80904868240E-02 -0.25888047673E-03 -0.22570862616E-01  0.10199515339E+01  0.10196696351E+01 0.  0.
     999903    2    3    3    0    0  0.76266558272E-02  0.12163087259E+00 -0.45418781378E-01  0.13111737174E+00  0.16633232496E-01 0.  0.
         14    1    1    2    0    0  0.80904868240E-02  0.25888047673E-03  0.22570862616E-01  0.23978466076E-01  0.00000000000E+00 0.  1.
     999901    1    3    3    0    0 -0.15717142651E-01 -0.12188975307E+00  0.22847918762E-01  0.88883416219E+00  0.88000000000E+00 0.  1.
        -11    1    4    4    0    0  0.66281971299E-02  0.83036929499E-01 -0.22786861882E-01  0.86362994698E-01  0.51100000000E-03 0. -1.
         11    1    4    4    0    0  0.99845869726E-03  0.38593943093E-01 -0.22631919495E-01  0.44754377040E-01  0.51100000000E-03 0.  1.
</event>
<event>
 8    1  0.1066842E+005  0.1043930E+01  0.7957747E-01            NaN
         13   -1    0    0    0    0  0.00000000000E+00  0.00000000000E+00  0.74505805969E-08  0.10566000000E+00  0.10566000000E+00 0. -1.
     999900   -1    0    0    0    0 -0.00000000000E+00 -0.00000000000E+00 -0.74505805969E-08  0.93827000000E+00  0.93827000000E+00 0. -1.
     999902    2    1    2    0    0 -0.64462236508E-04 -0.23888576542E-01  0.34839758509E-02  0.10197886178E+01  0.10195028292E+01 0.  0.
     999903    2    3    3    0    0 -0.11824903254E+00 -0.53568140586E-01 -0.11231470584E-02  0.13138009990E+00  0.20176466650E-01 0.  0.
         14    1    1    2    0    0  0.64462236508E-04  0.23888576542E-01 -0.34839758509E-02  0.24141382155E-01  0.00000000000E+00 0. -1.
     999901    1    3    3    0    0  0.11818457031E+00  0.29679564044E-01  0.46071229093E-02  0.88840851795E+00  0.88000000000E+00 0. -1.
        -11    1    4    4    0    0 -0.22039845236E-01 -0.10596818726E-01  0.76918457913E-02  0.25641235497E-01  0.51100000000E-03 0.  1.
         11    1    4    4    0    0 -0.96209187308E-01 -0.42971321860E-01 -0.88149928497E-02  0.10573886440E+00  0.51100000000E-03 0. -1.
</event>
<event>
 8    1  0.1066842E+005  0.1043930E+01  0.7957747E-01            NaN
         13   -1    0    0    0    0  0.00000000000E+00  0.00000000000E+00  0.74505805969E-08  0.10566000000E+00  0.10566000000E+00 0.  1.
     999900   -1    0    0    0    0 -0.00000000000E+00 -0.00000000000E+00 -0.74505805969E-08  0.93827000000E+00  0.93827000000E+00 0.  1.
     999902    2    1    2    0    0 -0.12577922471E-01  0.82707928648E-02  0.26289293870E-01  0.10136358237E+01  0.10131830268E+01 0.  0.
     999903    2    3    3    0    0  0.10588273365E+00 -0.39198761176E-02  0.63062103246E-01  0.12485363494E+00  0.19623521058E-01 0.  0.
         14    1    1    2    0    0  0.12577922471E-01 -0.82707928648E-02 -0.26289293870E-01  0.30294176346E-01  0.00000000000E+00 0. -1.
     999901    1    3    3    0    0 -0.11846065612E+00  0.12190668982E-01 -0.36772809376E-01  0.88878218871E+00  0.88000000000E+00 0.  1.
        -11    1    4    4    0    0  0.97037730174E-01  0.20532937399E-02  0.56266738646E-01  0.11219065956E+00  0.51100000000E-03 0.  1.
         11    1    4    4    0    0  0.88450034765E-02 -0.59731698575E-02  0.67953646000E-02  0.12662975389E-01  0.51100000000E-03 0. -1.
</event>
<event>
 8    1  0.1066842E+005  0.1043930E+01  0.7957747E-01            NaN
         13   -1    0    0    0    0  0.00000000000E+00  0.00000000000E+00  0.74505805969E-08  0.10566000000E+00  0.10566000000E+00 0. -1.
     999900   -1    0    0    0    0 -0.00000000000E+00 -0.00000000000E+00 -0.74505805969E-08  0.93827000000E+00  0.93827000000E+00 0. -1.
     999902    2    1    2    0    0 -0.13528410921E-01  0.19884533260E-01  0.29649778902E-02  0.10196977145E+01  0.10194097436E+01 0.  0.
     999903    2    3    3    0    0  0.93846278591E-01  0.25402397784E-01 -0.82539147549E-01  0.12904024601E+00  0.19653711932E-01 0.  0.
         14    1    1    2    0    0  0.13528410921E-01 -0.19884533260E-01 -0.29649778902E-02  0.24232285466E-01  0.00000000000E+00 0. -1.
     999901    1    3    3    0    0 -0.10737468951E+00 -0.55178645240E-02  0.85504125440E-01  0.89065746853E+00  0.88000000000E+00 0.  1.
        -11    1    4    4    0    0  0.39512877342E-01  0.15261463947E-01 -0.24697387618E-01  0.49034700303E-01  0.51100000000E-03 0. -1.
         11    1    4    4    0    0  0.54333401249E-01  0.10140933837E-01 -0.57841759931E-01  0.80005545703E-01  0.51100000000E-03 0.  1.
</event>
<event>
 8    1  0.1066842E+005  0.1043930E+01  0.7957747E-01            NaN
         13   -1    0    0    0    0  0.00000000000E+00  0.00000000000E+00  0.74505805969E-08  0.10566000000E+00  0.10566000000E+00 0. -1.
     999900   -1    0    0    0    0 -0.00000000000E+00 -0.00000000000E+00 -0.74505805969E-08  0.93827000000E+00  0.93827000000E+00 0. -1.
     999902    2    1    2    0    0  0.15380155870E-01  0.15466224398E-01 -0.60274283787E-02  0.10213007449E+01  0.10210500127E+01 0.  0.
     999903    2    3    3    0    0 -0.12506065273E+00 -0.14934447055E-01  0.19945583461E-01  0.12926799953E+00  0.21193981063E-01 0.  0.
         14    1    1    2    0    0 -0.15380155870E-01 -0.15466224398E-01  0.60274283787E-02  0.22629255060E-01  0.00000000000E+00 0. -1.
     999901    1    3    3    0    0  0.14044080860E+00  0.30400671452E-01 -0.25973011840E-01  0.89203274541E+00  0.88000000000E+00 0. -1.
        -11    1    4    4    0    0 -0.90269054844E-01 -0.16004848301E-01  0.22382333958E-01  0.94371009457E-01  0.51100000000E-03 0. -1.
         11    1    4    4    0    0 -0.34791597882E-01  0.10704012462E-02 -0.24367504971E-02  0.34896990071E-01  0.51100000000E-03 0.  1.
</event>
<event>
 8    1  0.1066842E+005  0.1043930E+01  0.7957747E-01            NaN
         13   -1    0    0    0    0  0.00000000000E+00  0.00000000000E+00  0.74505805969E-08  0.10566000000E+00  0.10566000000E+00 0. -1.
     999900   -1    0    0    0    0 -0.00000000000E+00 -0.00000000000E+00 -0.74505805969E-08  0.93827000000E+00  0.93827000000E+00 0.  1.
     999902    2    1    2    0    0 -0.12405617329E-01  0.67976368974E-02 -0.18084196575E-01  0.10209703533E+01  0.10207121617E+01 0.  0.
     999903    2    3    3    0    0  0.91387149175E-01  0.44898389706E-01 -0.81393757092E-01  0.13179505781E+00  0.19429800216E-01 0.  0.
         14    1    1    2    0    0  0.12405617329E-01 -0.67976368974E-02  0.18084196575E-01  0.22959646654E-01  0.00000000000E+00 0. -1.
     999901    1    3    3    0    0 -0.10379276650E+00 -0.38100752808E-01  0.63309560517E-01  0.88917529554E+00  0.88000000000E+00 0.  1.
        -11    1    4    4    0    0  0.77568510521E-01  0.33334123044E-01 -0.74149855666E-01  0.11236769910E+00  0.51100000000E-03 0. -1.
         11    1    4    4    0    0  0.13818638654E-01  0.11564266662E-01 -0.72439014256E-02  0.19427358713E-01  0.51100000000E-03 0.  1.
</event>
<event>
 8    1  0.1066842E+005  0.1043930E+01  0.7957747E-01            NaN
         13   -1    0    0    0    0  0.00000000000E+00  0.00000000000E+00  0.74505805969E-08  0.10566000000E+00  0.10566000000E+00 0. -1.
     999900   -1    0    0    0    0 -0.00000000000E+00 -0.00000000000E+00 -0.74505805969E-08  0.93827000000E+00  0.93827000000E+00 0.  1.
     999902    2    1    2    0    0 -0.22830444248E-01  0.31342819385E-02 -0.38671562790E-02  0.10205631901E+01  0.10202956518E+01 0.  0.
     999903    2    3    3    0    0  0.96867004978E-01 -0.14329810691E-02  0.81922686903E-01  0.12831421338E+00  0.19181778789E-01 0.  0.
         14    1    1    2    0    0  0.22830444248E-01 -0.31342819385E-02  0.38671562790E-02  0.23366809913E-01  0.00000000000E+00 0.  1.
     999901    1    3    3    0    0 -0.11969744923E+00  0.45672630076E-02 -0.85789843182E-01  0.89224897671E+00  0.88000000000E+00 0.  1.
        -11    1    4    4    0    0  0.45967514499E-01  0.42057296205E-02  0.28211895288E-01  0.54100579550E-01  0.51100000000E-03 0.  1.
         11    1    4    4    0    0  0.50899490478E-01 -0.56387106896E-02  0.53710791615E-01  0.74213633829E-01  0.51100000000E-03 0. -1.
</event>
<event>
 8    1  0.1066842E+005  0.1043930E+01  0.7957747E-01            NaN
         13   -1    0    0    0    0  0.00000000000E+00  0.00000000000E+00  0.74505805969E-08  0.10566000000E+00  0.10566000000E+00 0. -1.
     999900   -1    0    0    0    0 -0.00000000000E+00 -0.00000000000E+00 -0.74505805969E-08  0.93827000000E+00  0.93827000000E+00 0.  1.
     999902    2    1    2    0    0  0.41707476193E-02 -0.66843081482E-02 -0.22445764236E-01  0.10201416112E+01  0.10198642162E+01 0.  0.
     999903    2    3    3    0    0  0.12155490894E+00  0.39699249933E-01 -0.19577698722E-01  0.13113165532E+00  0.21461556523E-01 0.  0.
         14    1    1    2    0    0 -0.41707476193E-02  0.66843081482E-02  0.22445764236E-01  0.23788388833E-01  0.00000000000E+00 0. -1.
     999901    1    3    3    0    0 -0.11738416132E+00 -0.46383558081E-01 -0.28680655136E-02  0.88900995584E+00  0.88000000000E+00 0. -1.
        -11    1    4    4    0    0  0.86329306714E-01  0.36361975435E-01 -0.19791583810E-01  0.95743983445E-01  0.51100000000E-03 0. -1.
         11    1    4    4    0    0  0.35225602225E-01  0.33372744984E-02  0.21388508778E-03  0.35387671879E-01  0.51100000000E-03 0.  1.
</event>
<event>
 8    1  0.1066842E+005  0.1043930E+01  0.7957747E-01            NaN
         13   -1    0    0    0    0  0.00000000000E+00  0.00000000000E+00  0.74505805969E-08  0.10566000000E+00  0.10566000000E+00 0.  1.
     999900   -1    0    0    0    0 -0.00000000000E+00 -0.00000000000E+00 -0.74505805969E-08  0.93827000000E+00  0.93827000000E+00 0. -1.
     999902    2    1    2    0    0 -0.16797723687E-02  0.15650093483E-01 -0.16045126960E-01  0.10214534976E+01  0.10212061763E+01 0.  0.
     999903    2    3    3    0    0 -0.80285925029E-01  0.88905017431E-01 -0.56441408126E-01  0.13399810680E+00  0.20492149532E-01 0.  0.
         14    1    1    2    0    0  0.16797723687E-02 -0.15650093483E-01  0.16045126960E-01  0.22476502406E-01  0.00000000000E+00 0. -1.
     999901    1    3    3    0    0  0.78606152660E-01 -0.73254923948E-01  0.40396281166E-01  0.88745539079E+00  0.88000000000E+00 0. -1.
        -11    1    4    4    0    0 -0.25715869690E-01  0.26827041904E-01 -0.74172713498E-02  0.37898194766E-01  0.51100000000E-03 0.  1.
         11    1    4    4    0    0 -0.54570055339E-01  0.62077975527E-01 -0.49024136776E-01  0.96099912034E-01  0.51100000000E-03 0. -1.
</event>
<event>
 8    1  0.1066842E+005  0.1043930E+01  0.7957747E-01            NaN
         13   -1    0    0    0    0  0.00000000000E+00  0.00000000000E+00  0.74505805969E-08  0.10566000000E+00  0.10566000000E+00 0. -1.
     999900   -1    0    0    0    0 -0.00000000000E+00 -0.00000000000E+00 -0.74505805969E-08  0.93827000000E+00  0.93827000000E+00 0. -1.
     999902    2    1    2    0    0  0.74332830815E-03 -0.21920105939E-01  0.82837820205E-03  0.10219816563E+01  0.10217459449E+01 0.  0.
     999903    2    3    3    0    0 -0.11424878115E+00 -0.10530570248E-01 -0.62470874818E-01  0.13217285537E+00  0.20084237405E-01 0.  0.
         14    1    1    2    0    0 -0.74332830815E-03  0.21920105939E-01 -0.82837820205E-03  0.21948343714E-01  0.00000000000E+00 0. -1.
     999901    1    3    3    0    0  0.11499210945E+00 -0.11389535691E-01  0.63299253020E-01  0.88980880092E+00  0.88000000000E+00 0.  1.
        -11    1    4    4    0    0 -0.98661320181E-01 -0.22998557099E-02 -0.55380922712E-01  0.11316648425E+00  0.51100000000E-03 0. -1.
         11    1    4    4    0    0 -0.15587460965E-01 -0.82307145385E-02 -0.70899521067E-02  0.19006371117E-01  0.51100000000E-03 0.  1.
</event>
<event>
 8    1  0.1066842E+005  0.1043930E+01  0.7957747E-01            NaN
         13   -1    0    0    0    0  0.00000000000E+00  0.00000000000E+00  0.74505805969E-08  0.10566000000E+00  0.10566000000E+00 0. -1.
     999900   -1    0    0    0    0 -0.00000000000E+00 -0.00000000000E+00 -0.74505805969E-08  0.93827000000E+00  0.93827000000E+00 0. -1.
     999902    2    1    2    0    0  0.68300700206E-03 -0.24279402488E-01 -0.23456911450E-03  0.10196398599E+01  0.10193504956E+01 0.  0.
     999903    2    3    3    0    0  0.37061889780E-01 -0.97895719941E-01  0.78460383895E-01  0.13232048056E+00  0.19887736882E-01 0.  0.
         14    1    1    2    0    0 -0.68300700206E-03  0.24279402488E-01  0.23456911450E-03  0.24290140107E-01  0.00000000000E+00 0. -1.
     999901    1    3    3    0    0 -0.36378882778E-01  0.73616317453E-01 -0.78694953010E-01  0.88731937933E+00  0.88000000000E+00 0. -1.
        -11    1    4    4    0    0  0.18276913168E-01 -0.65556234834E-01  0.41371044837E-01  0.79646029107E-01  0.51100000000E-03 0. -1.
         11    1    4    4    0    0  0.18784976612E-01 -0.32339485106E-01  0.37089339059E-01  0.52674451455E-01  0.51100000000E-03 0.  1.
</event>
<event>
 8    1  0.1066842E+005  0.1043930E+01  0.7957747E-01            NaN
         13   -1    0    0    0    0  0.00000000000E+00  0.00000000000E+00  0.74505805969E-08  0.10566000000E+00  0.10566000000E+00 0. -1.
     999900   -1    0    0    0    0 -0.00000000000E+00 -0.00000000000E+00 -0.74505805969E-08  0.93827000000E+00  0.93827000000E+00 0.  1.
     999902    2    1    2    0    0 -0.10437813511E-01  0.20279707163E-01  0.40344250011E-02  0.10207677234E+01  0.10205049015E+01 0.  0.
     999903    2    3    3    0    0 -0.41203482264E-01  0.59967333528E-01  0.10955967265E+00  0.13304185806E+00  0.20075011419E-01 0.  0.
         14    1    1    2    0    0  0.10437813511E-01 -0.20279707163E-01 -0.40344250011E-02  0.23162276628E-01  0.00000000000E+00 0.  1.
     999901    1    3    3    0    0  0.30765668753E-01 -0.39687626365E-01 -0.10552524764E+00  0.88772586532E+00  0.88000000000E+00 0.  1.
        -11    1    4    4    0    0 -0.87108738042E-02  0.23537307650E-01  0.50682960891E-01  0.56558888068E-01  0.51100000000E-03 0.  1.
         11    1    4    4    0    0 -0.32492608460E-01  0.36430025879E-01  0.58876711755E-01  0.76482969988E-01  0.51100000000E-03 0. -1.
</event>
<event>
 8    1  0.1066842E+005  0.1043930E+01  0.7957747E-01            NaN
         13   -1    0    0    0    0  0.00000000000E+00  0.00000000000E+00  0.74505805969E-08  0.10566000000E+00  0.10566000000E+00 0.  1.
     999900   -1    0    0    0    0 -0.00000000000E+00 -0.00000000000E+00 -0.74505805969E-08  0.93827000000E+00  0.93827000000E+00 0.  1.
     999902    2    1    2    0    0 -0.11108096245E-01  0.18632456182E-01  0.12067461410E-01  0.10191069895E+01  0.10188046300E+01 0.  0.
     999903    2    3    3    0    0  0.11472397136E+00  0.26493074223E-01  0.50013786708E-01  0.12931183208E+00  0.18886462583E-01 0.  0.
         14    1    1    2    0    0  0.11108096245E-01 -0.18632456182E-01 -0.12067461410E-01  0.24823010503E-01  0.00000000000E+00 0. -1.
     999901    1    3    3    0    0 -0.12583206761E+00 -0.78606180405E-02 -0.37946325297E-01  0.88979515741E+00  0.88000000000E+00 0.  1.
        -11    1    4    4    0    0  0.94856502698E-02  0.61766468530E-02  0.92935765403E-02  0.14654699359E-01  0.51100000000E-03 0.  1.
         11    1    4    4    0    0  0.10523832109E+00  0.20316427370E-01  0.40720210167E-01  0.11465713272E+00  0.51100000000E-03 0. -1.
</event>
<event>
 8    1  0.1066842E+005  0.1043930E+01  0.7957747E-01            NaN
         13   -1    0    0    0    0  0.00000000000E+00  0.00000000000E+00  0.74505805969E-08  0.10566000000E+00  0.10566000000E+00 0. -1.
     999900   -1    0    0    0    0 -0.00000000000E+00 -0.00000000000E+00 -0.74505805969E-08  0.93827000000E+00  0.93827000000E+00 0.  1.
     999902    2    1    2    0    0  0.63087095986E-02 -0.69094138903E-02  0.22109245685E-01  0.10199225311E+01  0.10196399418E+01 0.  0.
     999903    2    3    3    0    0  0.43688173438E-01  0.12073743183E+00  0.38865155386E-02  0.12974108364E+00  0.18206038501E-01 0.  0.
         14    1    1    2    0    0 -0.63087095986E-02  0.69094138903E-02 -0.22109245685E-01  0.24007468877E-01  0.00000000000E+00 0.  1.
     999901    1    3    3    0    0 -0.37379463839E-01 -0.12764684573E+00  0.18222730147E-01  0.89018144748E+00  0.88000000000E+00 0. -1.
        -11    1    4    4    0    0  0.22612270008E-01  0.87066047260E-01  0.26105321282E-02  0.89993818340E-01  0.51100000000E-03 0.  1.
         11    1    4    4    0    0  0.21075903429E-01  0.33671384575E-01  0.12759834104E-02  0.39747265305E-01  0.51100000000E-03 0. -1.
</event>
<event>
 8    1  0.1066842E+005  0.1043930E+01  0.7957747E-01            NaN
         13   -1    0    0    0    0  0.00000000000E+00  0.00000000000E+00  0.74505805969E-08  0.10566000000E+00  0.10566000000E+00 0. -1.
     999900   -1    0    0    0    0 -0.00000000000E+00 -0.00000000000E+00 -0.74505805969E-08  0.93827000000E+00  0.93827000000E+00 0.  1.
     999902    2    1    2    0    0 -0.21525402084E-01 -0.10898201063E-01 -0.30976258271E-02  0.10196049305E+01  0.10193147234E+01 0.  0.
     999903    2    3    3    0    0  0.60074740494E-01  0.17957351893E-01  0.10996430875E+00  0.12815990848E+00  0.20034270865E-01 0.  0.
         14    1    1    2    0    0  0.21525402084E-01  0.10898201063E-01  0.30976258271E-02  0.24325069518E-01  0.00000000000E+00 0. -1.
     999901    1    3    3    0    0 -0.81600142578E-01 -0.28855552957E-01 -0.11306193458E+00  0.89144502200E+00  0.88000000000E+00 0.  1.
        -11    1    4    4    0    0  0.27265499633E-01  0.23602618610E-02  0.31756392948E-01  0.41925027375E-01  0.51100000000E-03 0.  1.
         11    1    4    4    0    0  0.32809240861E-01  0.15597090032E-01  0.78207915804E-01  0.86234881103E-01  0.51100000000E-03 0. -1.
</event>
<event>
 8    1  0.1066842E+005  0.1043930E+01  0.7957747E-01            NaN
         13   -1    0    0    0    0  0.00000000000E+00  0.00000000000E+00  0.74505805969E-08  0.10566000000E+00  0.10566000000E+00 0. -1.
     999900   -1    0    0    0    0 -0.00000000000E+00 -0.00000000000E+00 -0.74505805969E-08  0.93827000000E+00  0.93827000000E+00 0.  1.
     999902    2    1    2    0    0 -0.14008302956E-01  0.16726003750E-01 -0.10140052276E-01  0.10198714794E+01  0.10195876726E+01 0.  0.
     999903    2    3    3    0    0 -0.95143739171E-01 -0.25940034515E-02  0.86489088113E-01  0.13066204825E+00  0.23090009348E-01 0.  0.
         14    1    1    2    0    0  0.14008302956E-01 -0.16726003750E-01  0.10140052276E-01  0.24058520597E-01  0.00000000000E+00 0. -1.
     999901    1    3    3    0    0  0.81135436214E-01  0.19320007201E-01 -0.96629140389E-01  0.88920943116E+00  0.88000000000E+00 0.  1.
        -11    1    4    4    0    0 -0.52907145304E-01 -0.74136634085E-02  0.61016751406E-01  0.81101377932E-01  0.51100000000E-03 0. -1.
         11    1    4    4    0    0 -0.42236593867E-01  0.48196599570E-02  0.25472336707E-01  0.49560670313E-01  0.51100000000E-03 0.  1.
</event>
<event>
 8    1  0.1066842E+005  0.1043930E+01  0.7957747E-01            NaN
         13   -1    0    0    0    0  0.00000000000E+00  0.00000000000E+00  0.74505805969E-08  0.10566000000E+00  0.10566000000E+00 0. -1.
     999900   -1    0    0    0    0 -0.00000000000E+00 -0.00000000000E+00 -0.74505805969E-08  0.93827000000E+00  0.93827000000E+00 0.  1.
     999902    2    1    2    0    0 -0.10732707753E-01  0.36991080656E-02  0.21294250287E-01  0.10197987027E+01  0.10195131556E+01 0.  0.
     999903    2    3    3    0    0 -0.11097487226E+00  0.56884945055E-01 -0.33869606356E-01  0.13079910992E+00  0.20246917657E-01 0.  0.
         14    1    1    2    0    0  0.10732707753E-01 -0.36991080656E-02 -0.21294250287E-01  0.24131297343E-01  0.00000000000E+00 0.  1.
     999901    1    3    3    0    0  0.10024216451E+00 -0.53185836990E-01  0.55163856643E-01  0.88899959273E+00  0.88000000000E+00 0.  1.
        -11    1    4    4    0    0 -0.58118686422E-01  0.19681099599E-01 -0.11729144988E-01  0.62473685308E-01  0.51100000000E-03 0. -1.
         11    1    4    4    0    0 -0.52856185839E-01  0.37203845456E-01 -0.22140461368E-01  0.68325424615E-01  0.51100000000E-03 0.  1.
</event>
<event>
 8    1  0.1066842E+005  0.1043930E+01  0.7957747E-01            NaN
         13   -1    0    0    0    0  0.00000000000E+00  0.00000000000E+00  0.74505805969E-08  0.10566000000E+00  0.10566000000E+00 0. -1.
     999900   -1    0    0    0    0 -0.00000000000E+00 -0.00000000000E+00 -0.74505805969E-08  0.93827000000E+00  0.93827000000E+00 0.  1.
     999902    2    1    2    0    0 -0.12979942763E-01 -0.15277654380E-01 -0.11375984882E-01  0.10208800831E+01  0.10206198339E+01 0.  0.
     999903    2    3    3    0    0 -0.45583875003E-01 -0.29180469113E-01 -0.12030309389E+00  0.13345604706E+00  0.20206252926E-01 0.  0.
         14    1    1    2    0    0  0.12979942763E-01  0.15277654380E-01  0.11375984882E-01  0.23049916909E-01  0.00000000000E+00 0.  1.
     999901    1    3    3    0    0  0.32603932241E-01  0.13902814733E-01  0.10892710901E+00  0.88742403604E+00  0.88000000000E+00 0. -1.
        -11    1    4    4    0    0 -0.11255289749E-01 -0.41145113987E-02 -0.48967905062E-01  0.50415549174E-01  0.51100000000E-03 0.  1.
         11    1    4    4    0    0 -0.34328585254E-01 -0.25065957715E-01 -0.71335188832E-01  0.83040497882E-01  0.51100000000E-03 0. -1.
</event>
<event>
 8    1  0.1066842E+005  0.1043930E+01  0.7957747E-01            NaN
         13   -1    0    0    0    0  0.00000000000E+00  0.00000000000E+00  0.74505805969E-08  0.10566000000E+00  0.10566000000E+00 0.  1.
     999900   -1    0    0    0    0 -0.00000000000E+00 -0.00000000000E+00 -0.74505805969E-08  0.93827000000E+00  0.93827000000E+00 0.  1.
     999902    2    1    2    0    0 -0.18846276888E-01 -0.37356962035E-03  0.14475269588E-01  0.10201633188E+01  0.10198864358E+01 0.  0.
     999903    2    3    3    0    0  0.10240628348E-01 -0.15396019202E-01 -0.12588535853E+00  0.12843868192E+00  0.17534641285E-01 0.  0.
         14    1    1    2    0    0  0.18846276888E-01  0.37356962035E-03 -0.14475269588E-01  0.23766681225E-01  0.00000000000E+00 0. -1.
     999901    1    3    3    0    0 -0.29086905236E-01  0.15022449582E-01  0.14036062812E+00  0.89172463685E+00  0.88000000000E+00 0. -1.
        -11    1    4    4    0    0  0.15060846030E-01 -0.11220142297E-01 -0.10173224163E+00  0.10345255330E+00  0.51100000000E-03 0. -1.
         11    1    4    4    0    0 -0.48202176819E-02 -0.41758769054E-02 -0.24153116900E-01  0.24986128620E-01  0.51100000000E-03 0.  1.
</event>
<event>
 8    1  0.1066842E+005  0.1043930E+01  0.7957747E-01            NaN
         13   -1    0    0    0    0  0.00000000000E+00  0.00000000000E+00  0.74505805969E-08  0.10566000000E+00  0.10566000000E+00 0. -1.
     999900   -1    0    0    0    0 -0.00000000000E+00 -0.00000000000E+00 -0.74505805969E-08  0.93827000000E+00  0.93827000000E+00 0.  1.
     999902    2    1    2    0    0 -0.21087778337E-01 -0.11785297980E-01  0.29943342227E-02  0.10195875745E+01  0.10192969481E+01 0.  0.
     999903    2    3    3    0    0 -0.15296110193E-01 -0.12155080549E+00  0.44753494945E-01  0.13176673805E+00  0.18735758470E-01 0.  0.
         14    1    1    2    0    0  0.21087778337E-01  0.11785297980E-01 -0.29943342227E-02  0.24342425539E-01  0.00000000000E+00 0.  1.
     999901    1    3    3    0    0 -0.57916681438E-02  0.10976550751E+00 -0.41759160723E-01  0.88782083641E+00  0.88000000000E+00 0.  1.
        -11    1    4    4    0    0 -0.16050555762E-01 -0.68370123700E-01  0.31381829438E-01  0.76923172678E-01  0.51100000000E-03 0.  1.
         11    1    4    4    0    0  0.75444556897E-03 -0.53180681787E-01  0.13371665507E-01  0.54843565374E-01  0.51100000000E-03 0. -1.
</event>
<event>
 8    1  0.1066842E+005  0.1043930E+01  0.7957747E-01            NaN
         13   -1    0    0    0    0  0.00000000000E+00  0.00000000000E+00  0.74505805969E-08  0.10566000000E+00  0.10566000000E+00 0.  1.
     999900   -1    0    0    0    0 -0.00000000000E+00 -0.00000000000E+00 -0.74505805969E-08  0.93827000000E+00  0.93827000000E+00 0. -1.
     999902    2    1    2    0    0 -0.30259752225E-01  0.11027977984E-01 -0.83201201629E-02  0.10106660059E+01  0.10101184496E+01 0.  0.
     999903    2    3    3    0    0  0.49615968250E-01 -0.41795636034E-01  0.97774133423E-01  0.11913560511E+00  0.20612902278E-01 0.  0.
         14    1    1    2    0    0  0.30259752225E-01 -0.11027977984E-01  0.83201201629E-02  0.33263994088E-01  0.00000000000E+00 0.  1.
     999901    1    3    3    0    0 -0.79875720475E-01  0.52823614019E-01 -0.10609425359E+00  0.89153040081E+00  0.88000000000E+00 0. -1.
        -11    1    4    4    0    0  0.32352907002E-01 -0.14205302911E-01  0.46533408290E-01  0.58430475185E-01  0.51100000000E-03 0. -1.
         11    1    4    4    0    0  0.17263061249E-01 -0.27590333123E-01  0.51240725133E-01  0.60705129920E-01  0.51100000000E-03 0.  1.
</event>
<event>
 8    1  0.1066842E+005  0.1043930E+01  0.7957747E-01            NaN
         13   -1    0    0    0    0  0.00000000000E+00  0.00000000000E+00  0.74505805969E-08  0.10566000000E+00  0.10566000000E+00 0.  1.
     999900   -1    0    0    0    0 -0.00000000000E+00 -0.00000000000E+00 -0.74505805969E-08  0.93827000000E+00  0.93827000000E+00 0.  1.
     999902    2    1    2    0    0  0.82181655619E-02  0.12840067399E-01  0.17938826124E-01  0.10203883973E+01  0.10201167944E+01 0.  0.
     999903    2    3    3    0    0 -0.11020622726E+00  0.17216065882E-01 -0.61357973248E-01  0.12891126994E+00  0.20285689180E-01 0.  0.
         14    1    1    2    0    0 -0.82181655619E-02 -0.12840067399E-01 -0.17938826124E-01  0.23541602722E-01  0.00000000000E+00 0. -1.
     999901    1    3    3    0    0  0.11842439282E+00 -0.43759984832E-02  0.79296799372E-01  0.89147712734E+00  0.88000000000E+00 0. -1.
        -11    1    4    4    0    0 -0.51629314133E-01  0.94760508192E-03 -0.36458996715E-01  0.63213950958E-01  0.51100000000E-03 0. -1.
         11    1    4    4    0    0 -0.58576913124E-01  0.16268460800E-01 -0.24898976534E-01  0.65697318982E-01  0.51100000000E-03 0.  1.
</event>
<event>
 8    1  0.1066842E+005  0.1043930E+01  0.7957747E-01            NaN
         13   -1    0    0    0    0  0.00000000000E+00  0.00000000000E+00  0.74505805969E-08  0.10566000000E+00  0.10566000000E+00 0. -1.
     999900   -1    0    0    0    0 -0.00000000000E+00 -0.00000000000E+00 -0.74505805969E-08  0.93827000000E+00  0.93827000000E+00 0. -1.
     999902    2    1    2    0    0  0.18631658670E-01 -0.39762722044E-03  0.16061907934E-01  0.10193275266E+01  0.10190305809E+01 0.  0.
     999903    2    3    3    0    0  0.27989601092E-01  0.11403649891E+00 -0.50601910404E-01  0.12936864832E+00  0.19696521973E-01 0.  0.
         14    1    1    2    0    0 -0.18631658670E-01  0.39762722044E-03 -0.16061907934E-01  0.24602473426E-01  0.00000000000E+00 0. -1.
     999901    1    3    3    0    0 -0.93579424220E-02 -0.11443412613E+00  0.66663818338E-01  0.88995887826E+00  0.88000000000E+00 0.  1.
        -11    1    4    4    0    0  0.24729367359E-01  0.77261184143E-01 -0.26788996675E-01  0.85432684899E-01  0.51100000000E-03 0. -1.
         11    1    4    4    0    0  0.32602337322E-02  0.36775314769E-01 -0.23812913728E-01  0.43935963420E-01  0.51100000000E-03 0.  1.
</event>
<event>
 8    1  0.1066842E+005  0.1043930E+01  0.7957747E-01            NaN
         13   -1    0    0    0    0  0.00000000000E+00  0.00000000000E+00  0.74505805969E-08  0.10566000000E+00  0.10566000000E+00 0.  1.
     999900   -1    0    0    0    0 -0.00000000000E+00 -0.00000000000E+00 -0.74505805969E-08  0.93827000000E+00  0.93827000000E+00 0. -1.
     999902    2    1    2    0    0  0.13348404089E-01  0.88616681797E-03 -0.21232225217E-01  0.10188347301E+01  0.10185256181E+01 0.  0.
     999903    2    3    3    0    0  0.97694405384E-01  0.67809357052E-01  0.47487265435E-01  0.12961297502E+00  0.20054355332E-01 0.  0.
         14    1    1    2    0    0 -0.13348404089E-01 -0.88616681797E-03  0.21232225217E-01  0.25095269893E-01  0.00000000000E+00 0.  1.
     999901    1    3    3    0    0 -0.84346001294E-01 -0.66923190234E-01 -0.68719490652E-01  0.88922175509E+00  0.88000000000E+00 0. -1.
        -11    1    4    4    0    0  0.34453387386E-01  0.31448989000E-01  0.26732085592E-01  0.53767465373E-01  0.51100000000E-03 0.  1.
         11    1    4    4    0    0  0.63241017997E-01  0.36360368052E-01  0.20755179842E-01  0.75845509646E-01  0.51100000000E-03 0. -1.
</event>
<event>
 8    1  0.1066842E+005  0.1043930E+01  0.7957747E-01            NaN
         13   -1    0    0    0    0  0.00000000000E+00  0.00000000000E+00  0.74505805969E-08  0.10566000000E+00  0.10566000000E+00 0.  1.
     999900   -1    0    0    0    0 -0.00000000000E+00 -0.00000000000E+00 -0.74505805969E-08  0.93827000000E+00  0.93827000000E+00 0. -1.
     999902    2    1    2    0    0  0.19674378148E-01  0.10482289138E-01  0.67408433277E-02  0.10206405494E+01  0.10203748000E+01 0.  0.
     999903    2    3    3    0    0  0.61158610470E-01 -0.10296021112E+00 -0.48203444321E-01  0.13069166482E+00  0.20385252056E-01 0.  0.
         14    1    1    2    0    0 -0.19674378148E-01 -0.10482289138E-01 -0.67408433277E-02  0.23289450613E-01  0.00000000000E+00 0. -1.
     999901    1    3    3    0    0 -0.41484232322E-01  0.11344250025E+00  0.54944287649E-01  0.88994888457E+00  0.88000000000E+00 0.  1.
        -11    1    4    4    0    0  0.23466195980E-01 -0.25016107950E-01 -0.79597010414E-02  0.35214854428E-01  0.51100000000E-03 0.  1.
         11    1    4    4    0    0  0.37692414490E-01 -0.77944103167E-01 -0.40243743280E-01  0.95476810393E-01  0.51100000000E-03 0. -1.
</event>
<event>
 8    1  0.1066842E+005  0.1043930E+01  0.7957747E-01            NaN
         13   -1    0    0    0    0  0.00000000000E+00  0.00000000000E+00  0.74505805969E-08  0.10566000000E+00  0.10566000000E+00 0.  1.
     999900   -1    0    0    0    0 -0.00000000000E+00 -0.00000000000E+00 -0.74505805969E-08  0.93827000000E+00  0.93827000000E+00 0. -1.
     999902    2    1    2    0    0 -0.62733083391E-02 -0.12934954786E-01 -0.18475995309E-01  0.10205199625E+01  0.10202514220E+01 0.  0.
     999903    2    3    3    0    0  0.20513882960E-01  0.12606584670E+00 -0.43951836131E-02  0.12909579541E+00  0.18248004117E-01 0.  0.
         14    1    1    2    0    0  0.62733083391E-02  0.12934954786E-01  0.18475995309E-01  0.23410037495E-01  0.00000000000E+00 0.  1.
     999901    1    3    3    0    0 -0.26787191299E-01 -0.13900080149E+00 -0.14080811696E-01  0.89142416710E+00  0.88000000000E+00 0.  1.
        -11    1    4    4    0    0  0.13945561815E-01  0.11637704484E+00 -0.25771523258E-02  0.11723906386E+00  0.51100000000E-03 0.  1.
         11    1    4    4    0    0  0.65683211454E-02  0.96888018582E-02 -0.18180312873E-02  0.11856731543E-01  0.51100000000E-03 0. -1.
</event>
<event>
 8    1  0.1066842E+005  0.1043930E+01  0.7957747E-01            NaN
         13   -1    0    0    0    0  0.00000000000E+00  0.00000000000E+00  0.74505805969E-08  0.10566000000E+00  0.10566000000E+00 0. -1.
     999900   -1    0    0    0    0 -0.00000000000E+00 -0.00000000000E+00 -0.74505805969E-08  0.93827000000E+00  0.93827000000E+00 0. -1.
     999902    2    1    2    0    0 -0.94643343218E-02  0.50442675707E-02  0.21602947702E-01  0.10198114261E+01  0.10195261836E+01 0.  0.
     999903    2    3    3    0    0 -0.83118802526E-01 -0.61927199241E-01 -0.74064499377E-01  0.12904635126E+00  0.20583910374E-01 0.  0.
         14    1    1    2    0    0  0.94643343218E-02 -0.50442675707E-02 -0.21602947702E-01  0.24118573940E-01  0.00000000000E+00 0.  1.
     999901    1    3    3    0    0  0.73654468205E-01  0.66971466812E-01  0.95667447079E-01  0.89076507480E+00  0.88000000000E+00 0.  1.
        -11    1    4    4    0    0 -0.35113366897E-01 -0.35924139091E-01 -0.43633303829E-01  0.66540353383E-01  0.51100000000E-03 0.  1.
         11    1    4    4    0    0 -0.48005435629E-01 -0.26003060150E-01 -0.30431195547E-01  0.62505997876E-01  0.51100000000E-03 0. -1.
</event>
<event>
 8    1  0.1066842E+005  0.1043930E+01  0.7957747E-01            NaN
         13   -1    0    0    0    0  0.00000000000E+00  0.00000000000E+00  0.74505805969E-08  0.10566000000E+00  0.10566000000E+00 0.  1.
     999900   -1    0    0    0    0 -0.00000000000E+00 -0.00000000000E+00 -0.74505805969E-08  0.93827000000E+00  0.93827000000E+00 0.  1.
     999902    2    1    2    0    0 -0.20015062494E-01 -0.76754444120E-02  0.10429610522E-01  0.10200911253E+01  0.10198125376E+01 0.  0.
     999903    2    3    3    0    0  0.76956305068E-01 -0.21377021601E-01  0.10046917935E+00  0.13009207846E+00  0.21228352171E-01 0.  0.
         14    1    1    2    0    0  0.20015062494E-01  0.76754444120E-02 -0.10429610522E-01  0.23838874747E-01  0.00000000000E+00 0. -1.
     999901    1    3    3    0    0 -0.96971367562E-01  0.13701577189E-01 -0.90039568827E-01  0.88999904680E+00  0.88000000000E+00 0.  1.
        -11    1    4    4    0    0  0.46657991269E-01 -0.37615576210E-02  0.66142711678E-01  0.81032320059E-01  0.51100000000E-03 0.  1.
         11    1    4    4    0    0  0.30298313799E-01 -0.17615463980E-01  0.34326467671E-01  0.49059758398E-01  0.51100000000E-03 0. -1.
</event>
<event>
 8    1  0.1066842E+005  0.1043930E+01  0.7957747E-01            NaN
         13   -1    0    0    0    0  0.00000000000E+00  0.00000000000E+00  0.74505805969E-08  0.10566000000E+00  0.10566000000E+00 0.  1.
     999900   -1    0    0    0    0 -0.00000000000E+00 -0.00000000000E+00 -0.74505805969E-08  0.93827000000E+00  0.93827000000E+00 0.  1.
     999902    2    1    2    0    0  0.23341625127E-01  0.24559385500E-02 -0.28539943124E-03  0.10204577920E+01  0.10201878065E+01 0.  0.
     999903    2    3    3    0    0 -0.79653808740E-01 -0.87070809002E-02  0.10000573523E+00  0.12872297482E+00  0.12162017244E-01 0.  0.
         14    1    1    2    0    0 -0.23341625127E-01 -0.24559385500E-02  0.28539943124E-03  0.23472208046E-01  0.00000000000E+00 0.  1.
     999901    1    3    3    0    0  0.10299543387E+00  0.11163019450E-01 -0.10029113466E+00  0.89173481714E+00  0.88000000000E+00 0. -1.
        -11    1    4    4    0    0 -0.69731894159E-01 -0.78608090635E-02  0.93136716819E-01  0.11661491553E+00  0.51100000000E-03 0.  1.
         11    1    4    4    0    0 -0.99219145810E-02 -0.84627183676E-03  0.68690184072E-02  0.12108059293E-01  0.51100000000E-03 0. -1.
</event>
<event>
 8    1  0.1066842E+005  0.1043930E+01  0.7957747E-01            NaN
         13   -1    0    0    0    0  0.00000000000E+00  0.00000000000E+00  0.74505805969E-08  0.10566000000E+00  0.10566000000E+00 0. -1.
     999900   -1    0    0    0    0 -0.00000000000E+00 -0.00000000000E+00 -0.74505805969E-08  0.93827000000E+00  0.93827000000E+00 0.  1.
     999902    2    1    2    0    0  0.23295497222E-01 -0.55607979873E-02 -0.31304792319E-02  0.10197762722E+01  0.10194901877E+01 0.  0.
     999903    2    3    3    0    0  0.11704203607E+00 -0.33854948563E-02 -0.59866179913E-01  0.13297748715E+00  0.19716815327E-01 0.  0.
         14    1    1    2    0    0 -0.23295497222E-01  0.55607979873E-02  0.31304792319E-02  0.24153727773E-01  0.00000000000E+00 0.  1.
     999901    1    3    3    0    0 -0.93746538851E-01 -0.21753031310E-02  0.56735700681E-01  0.88679878508E+00  0.88000000000E+00 0. -1.
        -11    1    4    4    0    0  0.68050209098E-01 -0.10157450951E-01 -0.40640967015E-01  0.79912164837E-01  0.51100000000E-03 0.  1.
         11    1    4    4    0    0  0.48991826975E-01  0.67719560944E-02 -0.19225212899E-01  0.53065322309E-01  0.51100000000E-03 0. -1.
</event>
<event>
 8    1  0.1066842E+005  0.1043930E+01  0.7957747E-01            NaN
         13   -1    0    0    0    0  0.00000000000E+00  0.00000000000E+00  0.74505805969E-08  0.10566000000E+00  0.10566000000E+00 0.  1.
     999900   -1    0    0    0    0 -0.00000000000E+00 -0.00000000000E+00 -0.74505805969E-08  0.93827000000E+00  0.93827000000E+00 0.  1.
     999902    2    1    2    0    0 -0.23082865571E-01 -0.76462039773E-03 -0.16415094577E-02  0.10207762124E+01  0.10205135854E+01 0.  0.
     999903    2    3    3    0    0  0.45108263421E-01  0.11006828992E+00  0.48038813915E-01  0.12982049036E+00  0.19895934284E-01 0.  0.
         14    1    1    2    0    0  0.23082865571E-01  0.76462039773E-03  0.16415094577E-02  0.23153787609E-01  0.00000000000E+00 0.  1.
     999901    1    3    3    0    0 -0.68191128992E-01 -0.11083291032E+00 -0.49680323372E-01  0.89095572203E+00  0.88000000000E+00 0. -1.
        -11    1    4    4    0    0  0.14495783824E-01  0.49950422199E-01  0.29748483432E-01  0.59919995111E-01  0.51100000000E-03 0.  1.
         11    1    4    4    0    0  0.30612479597E-01  0.60117867722E-01  0.18290330482E-01  0.69900495253E-01  0.51100000000E-03 0. -1.
</event>
<event>
 8    1  0.1066842E+005  0.1043930E+01  0.7957747E-01            NaN
         13   -1    0    0    0    0  0.00000000000E+00  0.00000000000E+00  0.74505805969E-08  0.10566000000E+00  0.10566000000E+00 0.  1.
     999900   -1    0    0    0    0 -0.00000000000E+00 -0.00000000000E+00 -0.74505805969E-08  0.93827000000E+00  0.93827000000E+00 0. -1.
     999902    2    1    2    0    0  0.19381618483E-01  0.14240990987E-02 -0.28551781051E-01  0.10093919139E+01  0.10088008507E+01 0.  0.
     999903    2    3    3    0    0  0.42744098226E-01 -0.66345028602E-01 -0.93576970493E-01  0.12408590157E+00  0.20296324997E-01 0.  0.
         14    1    1    2    0    0 -0.19381618483E-01 -0.14240990987E-02  0.28551781051E-01  0.34538086144E-01  0.00000000000E+00 0.  1.
     999901    1    3    3    0    0 -0.23362479743E-01  0.67769127701E-01  0.65025189441E-01  0.88530601229E+00  0.88000000000E+00 0.  1.
        -11    1    4    4    0    0 -0.58605989585E-03 -0.11468589376E-01 -0.15096801364E-01  0.18974892382E-01  0.51100000000E-03 0. -1.
         11    1    4    4    0    0  0.43330158122E-01 -0.54876439226E-01 -0.78480169128E-01  0.10511100919E+00  0.51100000000E-03 0.  1.
</event>
<event>
 8    1  0.1066842E+005  0.1043930E+01  0.7957747E-01            NaN
         13   -1    0    0    0    0  0.00000000000E+00  0.00000000000E+00  0.74505805969E-08  0.10566000000E+00  0.10566000000E+00 0.  1.
     999900   -1    0    0    0    0 -0.00000000000E+00 -0.00000000000E+00 -0.74505805969E-08  0.93827000000E+00  0.93827000000E+00 0.  1.
     999902    2    1    2    0    0 -0.19106880157E-01 -0.34303254560E-02 -0.13317443433E-01  0.10203886682E+01  0.10201170717E+01 0.  0.
     999903    2    3    3    0    0  0.11628149046E+00 -0.36725082035E-01  0.33772030048E-01  0.12816898103E+00  0.20411296159E-01 0.  0.
         14    1    1    2    0    0  0.19106880157E-01  0.34303254560E-02  0.13317443433E-01  0.23541331773E-01  0.00000000000E+00 0.  1.
     999901    1    3    3    0    0 -0.13538837061E+00  0.33294756579E-01 -0.47089473481E-01  0.89221968720E+00  0.88000000000E+00 0. -1.
        -11    1    4    4    0    0  0.67663609814E-01 -0.30684730005E-01  0.25030538418E-01  0.78400929350E-01  0.51100000000E-03 0.  1.
         11    1    4    4    0    0  0.48617880643E-01 -0.60403520300E-02  0.87414916296E-02  0.49768051678E-01  0.51100000000E-03 0. -1.
</event>
<event>
 8    1  0.1066842E+005  0.1043930E+01  0.7957747E-01            NaN
         13   -1    0    0    0    0  0.00000000000E+00  0.00000000000E+00  0.74505805969E-08  0.10566000000E+00  0.10566000000E+00 0.  1.
     999900   -1    0    0    0    0 -0.00000000000E+00 -0.00000000000E+00 -0.74505805969E-08  0.93827000000E+00  0.93827000000E+00 0. -1.
     999902    2    1    2    0    0 -0.13135711453E-01 -0.17906101583E-01  0.68087015117E-02  0.10207021330E+01  0.10204378033E+01 0.  0.
     999903    2    3    3    0    0  0.56571209307E-01  0.23607516047E-01  0.11338312488E+00  0.13056700676E+00  0.20842113836E-01 0.  0.
         14    1    1    2    0    0  0.13135711453E-01  0.17906101583E-01 -0.68087015117E-02  0.23227867004E-01  0.00000000000E+00 0. -1.
     999901    1    3    3    0    0 -0.69706920760E-01 -0.41513617629E-01 -0.10657442337E+00  0.89013512624E+00  0.88000000000E+00 0. -1.
        -11    1    4    4    0    0  0.18226744405E-01 -0.80845776368E-03  0.43786706657E-01  0.47438429743E-01  0.51100000000E-03 0.  1.
         11    1    4    4    0    0  0.38344464902E-01  0.24415973810E-01  0.69596418223E-01  0.83128577013E-01  0.51100000000E-03 0. -1.
</event>
<event>
 8    1  0.1066842E+005  0.1043930E+01  0.7957747E-01            NaN
         13   -1    0    0    0    0  0.00000000000E+00  0.00000000000E+00  0.74505805969E-08  0.10566000000E+00  0.10566000000E+00 0. -1.
     999900   -1    0    0    0    0 -0.00000000000E+00 -0.00000000000E+00 -0.74505805969E-08  0.93827000000E+00  0.93827000000E+00 0.  1.
     999902    2    1    2    0    0 -0.69587662773E-02 -0.12699091377E-02 -0.22662303492E-01  0.10201893788E+01  0.10199131097E+01 0.  0.
     999903    2    3    3    0    0 -0.56644657677E-01  0.11612267757E+00 -0.25213394481E-02  0.13077644561E+00  0.20075559388E-01 0.  0.
         14    1    1    2    0    0  0.69587662773E-02  0.12699091377E-02  0.22662303492E-01  0.23740621240E-01  0.00000000000E+00 0. -1.
     999901    1    3    3    0    0  0.49685891399E-01 -0.11739258671E+00 -0.20140964044E-01  0.88941293315E+00  0.88000000000E+00 0.  1.
        -11    1    4    4    0    0 -0.63119711898E-02  0.50098826029E-02  0.31376469509E-02  0.86629009797E-02  0.51100000000E-03 0. -1.
         11    1    4    4    0    0 -0.50332686487E-01  0.11111279497E+00 -0.56589863990E-02  0.12211354463E+00  0.51100000000E-03 0.  1.
</event>
<event>
 8    1  0.1066842E+005  0.1043930E+01  0.7957747E-01            NaN
         13   -1    0    0    0    0  0.00000000000E+00  0.00000000000E+00  0.74505805969E-08  0.10566000000E+00  0.10566000000E+00 0.  1.
     999900   -1    0    0    0    0 -0.00000000000E+00 -0.00000000000E+00 -0.74505805969E-08  0.93827000000E+00  0.93827000000E+00 0. -1.
     999902    2    1    2    0    0  0.18558349219E-01  0.15496002125E-01  0.31764648293E-02  0.10195449977E+01  0.10192533414E+01 0.  0.
     999903    2    3    3    0    0 -0.97349630662E-01 -0.26681560071E-01  0.76033321030E-01  0.12796116652E+00  0.20103183647E-01 0.  0.
         14    1    1    2    0    0 -0.18558349219E-01 -0.15496002125E-01 -0.31764648293E-02  0.24385002284E-01  0.00000000000E+00 0. -1.
     999901    1    3    3    0    0  0.11590797988E+00  0.42177562196E-01 -0.72856856201E-01  0.89158383119E+00  0.88000000000E+00 0. -1.
        -11    1    4    4    0    0 -0.26871064459E-01  0.17064900226E-02  0.19134350524E-01  0.33035597533E-01  0.51100000000E-03 0.  1.
         11    1    4    4    0    0 -0.70478566202E-01 -0.28388050093E-01  0.56898970506E-01  0.94925568988E-01  0.51100000000E-03 0. -1.
</event>
<event>
 8    1  0.1066842E+005  0.1043930E+01  0.7957747E-01            NaN
         13   -1    0    0    0    0  0.00000000000E+00  0.00000000000E+00  0.74505805969E-08  0.10566000000E+00  0.10566000000E+00 0. -1.
     999900   -1    0    0    0    0 -0.00000000000E+00 -0.00000000000E+00 -0.74505805969E-08  0.93827000000E+00  0.93827000000E+00 0. -1.
     999902    2    1    2    0    0  0.10302007899E-01 -0.19836109418E-01 -0.85453437039E-02  0.10200004053E+01  0.10197196680E+01 0.  0.
     999903    2    3    3    0    0  0.85016852285E-01 -0.90894825462E-01 -0.43316949873E-01  0.13329824916E+00  0.20058180765E-01 0.  0.
         14    1    1    2    0    0 -0.10302007899E-01  0.19836109418E-01  0.85453437039E-02  0.23929594702E-01  0.00000000000E+00 0. -1.
     999901    1    3    3    0    0 -0.74714844386E-01  0.71058716044E-01  0.34771606169E-01  0.88670215613E+00  0.88000000000E+00 0.  1.
        -11    1    4    4    0    0 -0.17173989433E-03 -0.45528110612E-02 -0.30003435781E-02  0.54791208909E-02  0.51100000000E-03 0.  1.
         11    1    4    4    0    0  0.85188592179E-01 -0.86342014401E-01 -0.40316606295E-01  0.12781912827E+00  0.51100000000E-03 0. -1.
</event>
<event>
 8    1  0.1066842E+005  0.1043930E+01  0.7957747E-01            NaN
         13   -1    0    0    0    0  0.00000000000E+00  0.00000000000E+00  0.74505805969E-08  0.10566000000E+00  0.10566000000E+00 0.  1.
     999900   -1    0    0    0    0 -0.00000000000E+00 -0.00000000000E+00 -0.74505805969E-08  0.93827000000E+00  0.93827000000E+00 0. -1.
     999902    2    1    2    0    0 -0.51080920666E-02 -0.12370710926E-01  0.16514415023E-01  0.10226731659E+01  0.10224522244E+01 0.  0.
     999903    2    3    3    0    0 -0.12755638849E+00  0.31836759030E-01  0.50327138041E-02  0.13302170876E+00  0.19627412513E-01 0.  0.
         14    1    1    2    0    0  0.51080920666E-02  0.12370710926E-01 -0.16514415023E-01  0.21256834122E-01  0.00000000000E+00 0. -1.
     999901    1    3    3    0    0  0.12244829642E+00 -0.44207469955E-01  0.11481701218E-01  0.88965145712E+00  0.88000000000E+00 0. -1.
        -11    1    4    4    0    0 -0.22246653870E-01  0.96750050164E-02  0.74317751898E-02  0.25377386271E-01  0.51100000000E-03 0. -1.
         11    1    4    4    0    0 -0.10530973462E+00  0.22161754013E-01 -0.23990613856E-02  0.10764432248E+00  0.51100000000E-03 0.  1.
</event>
<event>
 8    1  0.1066842E+005  0.1043930E+01  0.7957747E-01            NaN
         13   -1    0    0    0    0  0.00000000000E+00  0.00000000000E+00  0.74505805969E-08  0.10566000000E+00  0.10566000000E+00 0. -1.
     999900   -1    0    0    0    0 -0.00000000000E+00 -0.00000000000E+00 -0.74505805969E-08  0.93827000000E+00  0.93827000000E+00 0.  1.
     999902    2    1    2    0    0 -0.16021319884E-01 -0.59819447178E-02  0.15501407801E-01  0.10208484057E+01  0.10205874325E+01 0.  0.
     999903    2    3    3    0    0 -0.51159919606E-01 -0.11789777035E+00  0.27915928483E-01  0.13297792325E+00  0.19662334089E-01 0.  0.
         14    1    1    2    0    0  0.16021319884E-01  0.59819447178E-02 -0.15501407801E-01  0.23081594339E-01  0.00000000000E+00 0.  1.
     999901    1    3    3    0    0  0.35138599722E-01  0.11191582563E+00 -0.12414520682E-01  0.88787048241E+00  0.88000000000E+00 0. -1.
        -11    1    4    4    0    0 -0.37089508817E-01 -0.99598064927E-01  0.17764246662E-01  0.10775544433E+00  0.51100000000E-03 0.  1.
         11    1    4    4    0    0 -0.14070410789E-01 -0.18299705418E-01  0.10151681821E-01  0.25222478922E-01  0.51100000000E-03 0. -1.
</event>
<event>
 8    1  0.1066842E+005  0.1043930E+01  0.7957747E-01            NaN
         13   -1    0    0    0    0  0.00000000000E+00  0.00000000000E+00  0.74505805969E-08  0.10566000000E+00  0.10566000000E+00 0.  1.
     999900   -1    0    0    0    0 -0.00000000000E+00 -0.00000000000E+00 -0.74505805969E-08  0.93827000000E+00  0.93827000000E+00 0. -1.
     999902    2    1    2    0    0 -0.53578844706E-02 -0.14159734876E-01 -0.18357986042E-01  0.10201346082E+01  0.10198570479E+01 0.  0.
     999903    2    3    3    0    0  0.11075459709E+00  0.61204003583E-01  0.13304344364E-01  0.12875124255E+00  0.19681617014E-01 0.  0.
         14    1    1    2    0    0  0.53578844706E-02  0.14159734876E-01  0.18357986042E-01  0.23795391766E-01  0.00000000000E+00 0.  1.
     999901    1    3    3    0    0 -0.11611248156E+00 -0.75363738459E-01 -0.31662330406E-01  0.89138336568E+00  0.88000000000E+00 0. -1.
        -11    1    4    4    0    0  0.78396536283E-01  0.52701541932E-01  0.12426793208E-01  0.95279356282E-01  0.51100000000E-03 0.  1.
         11    1    4    4    0    0  0.32358060808E-01  0.85024616511E-02  0.87755115550E-03  0.33471886269E-01  0.51100000000E-03 0. -1.
</event>
<event>
 8    1  0.1066842E+005  0.1043930E+01  0.7957747E-01            NaN
         13   -1    0    0    0    0  0.00000000000E+00  0.00000000000E+00  0.74505805969E-08  0.10566000000E+00  0.10566000000E+00 0. -1.
     999900   -1    0    0    0    0 -0.00000000000E+00 -0.00000000000E+00 -0.74505805969E-08  0.93827000000E+00  0.93827000000E+00 0.  1.
     999902    2    1    2    0    0  0.20823122088E-01 -0.13962464287E-01 -0.77120940172E-03  0.10188471854E+01  0.10185383840E+01 0.  0.
     999903    2    3    3    0    0  0.31350307702E-01  0.77185019486E-01  0.96177170571E-01  0.12878107901E+00  0.19853189799E-01 0.  0.
         14    1    1    2    0    0 -0.20823122088E-01  0.13962464287E-01  0.77120940172E-03  0.25082814563E-01  0.00000000000E+00 0. -1.
     999901    1    3    3    0    0 -0.10527185614E-01 -0.91147483774E-01 -0.96948379973E-01  0.89006610643E+00  0.88000000000E+00 0.  1.
        -11    1    4    4    0    0  0.21975094352E-01  0.31293749729E-01  0.35991782710E-01  0.52515455701E-01  0.51100000000E-03 0. -1.
         11    1    4    4    0    0  0.93752133497E-02  0.45891269757E-01  0.60185387861E-01  0.76265623306E-01  0.51100000000E-03 0.  1.
</event>
<event>
 8    1  0.1066842E+005  0.1043930E+01  0.7957747E-01            NaN
         13   -1    0    0    0    0  0.00000000000E+00  0.00000000000E+00  0.74505805969E-08  0.10566000000E+00  0.10566000000E+00 0. -1.
     999900   -1    0    0    0    0 -0.00000000000E+00 -0.00000000000E+00 -0.74505805969E-08  0.93827000000E+00  0.93827000000E+00 0. -1.
     999902    2    1    2    0    0 -0.25041040842E-02 -0.80576830174E-02 -0.21946763299E-01  0.10204170841E+01  0.10201461505E+01 0.  0.
     999903    2    3    3    0    0 -0.90111311229E-01 -0.43816731699E-01 -0.85375829057E-01  0.13307443404E+00  0.19488930703E-01 0.  0.
         14    1    1    2    0    0  0.25041040842E-02  0.80576830174E-02  0.21946763299E-01  0.23512915858E-01  0.00000000000E+00 0. -1.
     999901    1    3    3    0    0  0.87607207144E-01  0.35759048682E-01  0.63429065758E-01  0.88734265010E+00  0.88000000000E+00 0. -1.
        -11    1    4    4    0    0 -0.18532861376E-01 -0.91572250633E-02 -0.28883569693E-01  0.35522435739E-01  0.51100000000E-03 0.  1.
         11    1    4    4    0    0 -0.71578449852E-01 -0.34659506636E-01 -0.56492259364E-01  0.97551998301E-01  0.51100000000E-03 0. -1.
</event>
<event>
 8    1  0.1066842E+005  0.1043930E+01  0.7957747E-01            NaN
         13   -1    0    0    0    0  0.00000000000E+00  0.00000000000E+00  0.74505805969E-08  0.10566000000E+00  0.10566000000E+00 0. -1.
     999900   -1    0    0    0    0 -0.00000000000E+00 -0.00000000000E+00 -0.74505805969E-08  0.93827000000E+00  0.93827000000E+00 0.  1.
     999902    2    1    2    0    0  0.26364074427E-02  0.11987113425E-01 -0.20109702289E-01  0.10203706779E+01  0.10200986612E+01 0.  0.
     999903    2    3    3    0    0  0.78518396098E-01  0.89157341264E-01  0.51354462576E-01  0.13086494596E+00  0.19343816247E-01 0.  0.
         14    1    1    2    0    0 -0.26364074427E-02 -0.11987113425E-01  0.20109702289E-01  0.23559322117E-01  0.00000000000E+00 0.  1.
     999901    1    3    3    0    0 -0.75881988655E-01 -0.77170227840E-01 -0.71464164865E-01  0.88950573192E+00  0.88000000000E+00 0. -1.
        -11    1    4    4    0    0  0.64520424702E-01  0.70184446420E-01  0.32675468250E-01  0.10078040022E+00  0.51100000000E-03 0. -1.
         11    1    4    4    0    0  0.13997971396E-01  0.18972894845E-01  0.18678994326E-01  0.30084545734E-01  0.51100000000E-03 0.  1.
</event>
<event>
 8    1  0.1066842E+005  0.1043930E+01  0.7957747E-01            NaN
         13   -1    0    0    0    0  0.00000000000E+00  0.00000000000E+00  0.74505805969E-08  0.10566000000E+00  0.10566000000E+00 0. -1.
     999900   -1    0    0    0    0 -0.00000000000E+00 -0.00000000000E+00 -0.74505805969E-08  0.93827000000E+00  0.93827000000E+00 0.  1.
     999902    2    1    2    0    0 -0.17877172178E-01  0.18371535096E-02 -0.61202543178E-02  0.10249451131E+01  0.10247692711E+01 0.  0.
     999903    2    3    3    0    0  0.12260146060E+00 -0.43770805351E-01 -0.15444692030E-01  0.13258796636E+00  0.19850157893E-01 0.  0.
         14    1    1    2    0    0  0.17877172178E-01 -0.18371535096E-02  0.61202543178E-02  0.18984886910E-01  0.00000000000E+00 0. -1.
     999901    1    3    3    0    0 -0.14047863278E+00  0.45607958860E-01  0.93244377124E-02  0.89235714673E+00  0.88000000000E+00 0.  1.
        -11    1    4    4    0    0  0.48080635332E-01 -0.27550114558E-01 -0.62289989356E-02  0.55765740871E-01  0.51100000000E-03 0. -1.
         11    1    4    4    0    0  0.74520825272E-01 -0.16220690793E-01 -0.92156930946E-02  0.76822225490E-01  0.51100000000E-03 0.  1.
</event>
<event>
 8    1  0.1066842E+005  0.1043930E+01  0.7957747E-01            NaN
         13   -1    0    0    0    0  0.00000000000E+00  0.00000000000E+00  0.74505805969E-08  0.10566000000E+00  0.10566000000E+00 0.  1.
     999900   -1    0    0    0    0 -0.00000000000E+00 -0.00000000000E+00 -0.74505805969E-08  0.93827000000E+00  0.93827000000E+00 0. -1.
     999902    2    1    2    0    0 -0.15798691878E-01 -0.14845825135E-01  0.14029360919E-01  0.10181071389E+01  0.10177796058E+01 0.  0.
     999903    2    3    3    0    0  0.15118760437E-01  0.12024841327E+00  0.32264700459E-01  0.12707466488E+00  0.20462202863E-01 0.  0.
         14    1    1    2    0    0  0.15798691878E-01  0.14845825135E-01 -0.14029360919E-01  0.25822861127E-01  0.00000000000E+00 0. -1.
     999901    1    3    3    0    0 -0.30917452315E-01 -0.13509423841E+00 -0.18235339540E-01  0.89103247400E+00  0.88000000000E+00 0.  1.
        -11    1    4    4    0    0  0.15258129956E-01  0.51805855077E-01  0.88069606522E-02  0.54721849630E-01  0.51100000000E-03 0.  1.
         11    1    4    4    0    0 -0.13936951846E-03  0.68442558195E-01  0.23457739807E-01  0.72352815246E-01  0.51100000000E-03 0. -1.
</event>
<event>
 8    1  0.1066842E+005  0.1043930E+01  0.7957747E-01            NaN
         13   -1    0    0    0    0  0.00000000000E+00  0.00000000000E+00  0.74505805969E-08  0.10566000000E+00  0.10566000000E+00 0.  1.
     999900   -1    0    0    0    0 -0.00000000000E+00 -0.00000000000E+00 -0.74505805969E-08  0.93827000000E+00  0.93827000000E+00 0. -1.
     999902    2    1    2    0    0  0.25628911846E-01  0.16582036837E-02 -0.12676110860E-01  0.10152895645E+01  0.10148855232E+01 0.  0.
     999903    2    3    3    0    0  0.10891690675E+00 -0.61298119994E-01  0.24590555697E-01  0.12833455250E+00  0.15643204419E-01 0.  0.
         14    1    1    2    0    0 -0.25628911846E-01 -0.16582036837E-02  0.12676110860E-01  0.28640435549E-01  0.00000000000E+00 0. -1.
     999901    1    3    3    0    0 -0.83287994908E-01  0.62956323678E-01 -0.37266666557E-01  0.88695501195E+00  0.88000000000E+00 0. -1.
        -11    1    4    4    0    0  0.37652881705E-01 -0.29293906406E-01  0.12107932683E-01  0.49221292223E-01  0.51100000000E-03 0.  1.
         11    1    4    4    0    0  0.71264025049E-01 -0.32004213588E-01  0.12482623014E-01  0.79113260279E-01  0.51100000000E-03 0. -1.
</event>
<event>
 8    1  0.1066842E+005  0.1043930E+01  0.7957747E-01            NaN
         13   -1    0    0    0    0  0.00000000000E+00  0.00000000000E+00  0.74505805969E-08  0.10566000000E+00  0.10566000000E+00 0.  1.
     999900   -1    0    0    0    0 -0.00000000000E+00 -0.00000000000E+00 -0.74505805969E-08  0.93827000000E+00  0.93827000000E+00 0. -1.
     999902    2    1    2    0    0 -0.28137829526E-02 -0.17433414504E-01 -0.16102776697E-01  0.10200314491E+01  0.10197514484E+01 0.  0.
     999903    2    3    3    0    0 -0.50381112490E-01 -0.11531990938E+00 -0.38712367547E-01  0.13303899691E+00  0.19073261444E-01 0.  0.
         14    1    1    2    0    0  0.28137829526E-02  0.17433414504E-01  0.16102776697E-01  0.23898550858E-01  0.00000000000E+00 0.  1.
     999901    1    3    3    0    0  0.47567329537E-01  0.97886494877E-01  0.22609590850E-01  0.88699245223E+00  0.88000000000E+00 0.  1.
        -11    1    4    4    0    0 -0.27946272684E-01 -0.78693931149E-01 -0.18348642505E-01  0.85502413763E-01  0.51100000000E-03 0.  1.
         11    1    4    4    0    0 -0.22434839806E-01 -0.36625978233E-01 -0.20363725042E-01  0.47536583146E-01  0.51100000000E-03 0. -1.
</event>
<event>
 8    1  0.1066842E+005  0.1043930E+01  0.7957747E-01            NaN
         13   -1    0    0    0    0  0.00000000000E+00  0.00000000000E+00  0.74505805969E-08  0.10566000000E+00  0.10566000000E+00 0. -1.
     999900   -1    0    0    0    0 -0.00000000000E+00 -0.00000000000E+00 -0.74505805969E-08  0.93827000000E+00  0.93827000000E+00 0. -1.
     999902    2    1    2    0    0 -0.21250895113E-01 -0.40772369197E-02 -0.16279630910E-01  0.10168513961E+01  0.10164907826E+01 0.  0.
     999903    2    3    3    0    0  0.10995412511E+00  0.44714472274E-01  0.31867457875E-01  0.12448738389E+00  0.19806065127E-01 0.  0.
         14    1    1    2    0    0  0.21250895113E-01  0.40772369197E-02  0.16279630910E-01  0.27078603852E-01  0.00000000000E+00 0. -1.
     999901    1    3    3    0    0 -0.13120502023E+00 -0.48791709194E-01 -0.48147088785E-01  0.89236401226E+00  0.88000000000E+00 0. -1.
        -11    1    4    4    0    0  0.12357378791E-01  0.59053879905E-02 -0.25909142231E-02  0.13948203304E-01  0.51100000000E-03 0. -1.
         11    1    4    4    0    0  0.97596746321E-01  0.38809084284E-01  0.34458372098E-01  0.11053918058E+00  0.51100000000E-03 0.  1.
</event>
<event>
 8    1  0.1066842E+005  0.1043930E+01  0.7957747E-01            NaN
         13   -1    0    0    0    0  0.00000000000E+00  0.00000000000E+00  0.74505805969E-08  0.10566000000E+00  0.10566000000E+00 0. -1.
     999900   -1    0    0    0    0 -0.00000000000E+00 -0.00000000000E+00 -0.74505805969E-08  0.93827000000E+00  0.93827000000E+00 0.  1.
     999902    2    1    2    0    0 -0.11322035605E-01  0.11588608449E-02  0.20857612332E-01  0.10201692879E+01  0.10198925456E+01 0.  0.
     999903    2    3    3    0    0 -0.86703761567E-01  0.84877044006E-01  0.49556351718E-01  0.13252366239E+00  0.19622289043E-01 0.  0.
         14    1    1    2    0    0  0.11322035605E-01 -0.11588608449E-02 -0.20857612332E-01  0.23760712129E-01  0.00000000000E+00 0.  1.
     999901    1    3    3    0    0  0.75381725962E-01 -0.83718183161E-01 -0.28698739386E-01  0.88764562549E+00  0.88000000000E+00 0.  1.
        -11    1    4    4    0    0 -0.15406839538E-01  0.19192752177E-01  0.18274405482E-01  0.30658562546E-01  0.51100000000E-03 0. -1.
         11    1    4    4    0    0 -0.71296922029E-01  0.65684291829E-01  0.31281946236E-01  0.10186509984E+00  0.51100000000E-03 0.  1.
</event>
<event>
 8    1  0.1305950E+005  0.1043930E+01  0.7957747E-01            NaN
         13   -1    0    0    0    0  0.00000000000E+00  0.00000000000E+00  0.74505805969E-08  0.10566000000E+00  0.10566000000E+00 0.  1.
     999900   -1    0    0    0    0 -0.00000000000E+00 -0.00000000000E+00 -0.74505805969E-08  0.93827000000E+00  0.93827000000E+00 0.  1.
     999902    2    1    2    0    0 -0.20366871480E-01 -0.57782022502E-02  0.99682987260E-02  0.10205299134E+01  0.10202616037E+01 0.  0.
     999903    2    3    3    0    0 -0.81690643083E-01  0.10666583231E-01 -0.10028318507E+00  0.13138064265E+00  0.20421040360E-01 0.  0.
         14    1    1    2    0    0  0.20366871480E-01  0.57782022502E-02 -0.99682987260E-02  0.23400086637E-01  0.00000000000E+00 0.  1.
     999901    1    3    3    0    0  0.61323771603E-01 -0.16444785481E-01  0.11025148380E+00  0.88914927071E+00  0.88000000000E+00 0. -1.
        -11    1    4    4    0    0 -0.41349644870E-01  0.76138601730E-02 -0.35641964629E-01  0.55121454636E-01  0.51100000000E-03 0. -1.
         11    1    4    4    0    0 -0.40340998213E-01  0.30527230582E-02 -0.64641220443E-01  0.76259188012E-01  0.51100000000E-03 0.  1.
</event>
<event>
 8    1  0.1066842E+005  0.1043930E+01  0.7957747E-01            NaN
         13   -1    0    0    0    0  0.00000000000E+00  0.00000000000E+00  0.74505805969E-08  0.10566000000E+00  0.10566000000E+00 0. -1.
     999900   -1    0    0    0    0 -0.00000000000E+00 -0.00000000000E+00 -0.74505805969E-08  0.93827000000E+00  0.93827000000E+00 0.  1.
     999902    2    1    2    0    0 -0.10516736589E-01  0.20593735739E-01  0.42079759453E-02  0.10204265798E+01  0.10201558675E+01 0.  0.
     999903    2    3    3    0    0 -0.12676321537E+00  0.14777217247E-01 -0.25997445501E-01  0.13224898313E+00  0.22948800514E-01 0.  0.
         14    1    1    2    0    0  0.10516736589E-01 -0.20593735739E-01 -0.42079759453E-02  0.23503420213E-01  0.00000000000E+00 0.  1.
     999901    1    3    3    0    0  0.11624647879E+00  0.58165184912E-02  0.30205421446E-01  0.88817759666E+00  0.88000000000E+00 0. -1.
        -11    1    4    4    0    0 -0.30323041920E-01  0.13730420336E-02  0.33778336738E-02  0.30545752520E-01  0.51100000000E-03 0.  1.
         11    1    4    4    0    0 -0.96440173455E-01  0.13404175214E-01 -0.29375279175E-01  0.10170323061E+00  0.51100000000E-03 0. -1.
</event>
<event>
 8    1  0.1066842E+005  0.1043930E+01  0.7957747E-01            NaN
         13   -1    0    0    0    0  0.00000000000E+00  0.00000000000E+00  0.74505805969E-08  0.10566000000E+00  0.10566000000E+00 0. -1.
     999900   -1    0    0    0    0 -0.00000000000E+00 -0.00000000000E+00 -0.74505805969E-08  0.93827000000E+00  0.93827000000E+00 0. -1.
     999902    2    1    2    0    0 -0.25370156333E-02 -0.29238020289E-01  0.83538100887E-02  0.10134163240E+01  0.10129568408E+01 0.  0.
     999903    2    3    3    0    0  0.10060855855E+00  0.25281865997E-01 -0.62678887092E-01  0.12287880570E+00  0.20231243177E-01 0.  0.
         14    1    1    2    0    0  0.25370156333E-02  0.29238020289E-01 -0.83538100887E-02  0.30513675979E-01  0.00000000000E+00 0.  1.
     999901    1    3    3    0    0 -0.10314557418E+00 -0.54519886286E-01  0.71032697181E-01  0.89053751832E+00  0.88000000000E+00 0.  1.
        -11    1    4    4    0    0  0.53114803408E-01  0.10895862387E-01 -0.44082810635E-01  0.69881739194E-01  0.51100000000E-03 0.  1.
         11    1    4    4    0    0  0.47493755142E-01  0.14386003609E-01 -0.18596076458E-01  0.52997066503E-01  0.51100000000E-03 0. -1.
</event>
<event>
 8    1  0.1066842E+005  0.1043930E+01  0.7957747E-01            NaN
         13   -1    0    0    0    0  0.00000000000E+00  0.00000000000E+00  0.74505805969E-08  0.10566000000E+00  0.10566000000E+00 0.  1.
     999900   -1    0    0    0    0 -0.00000000000E+00 -0.00000000000E+00 -0.74505805969E-08  0.93827000000E+00  0.93827000000E+00 0.  1.
     999902    2    1    2    0    0  0.18720360467E-01 -0.13536927260E-01 -0.11023019316E-01  0.10183329836E+01  0.10180112269E+01 0.  0.
     999903    2    3    3    0    0  0.65622095507E-01 -0.10718343577E+00  0.31701597401E-01  0.13109297422E+00  0.19642512273E-01 0.  0.
         14    1    1    2    0    0 -0.18720360467E-01  0.13536927260E-01  0.11023019316E-01  0.25597016438E-01  0.00000000000E+00 0. -1.
     999901    1    3    3    0    0 -0.46901735040E-01  0.93646508514E-01 -0.42724616718E-01  0.88724000934E+00  0.88000000000E+00 0.  1.
        -11    1    4    4    0    0  0.14417043934E-01 -0.14300619294E-01  0.10742051812E-01  0.22978504436E-01  0.51100000000E-03 0.  1.
         11    1    4    4    0    0  0.51205051573E-01 -0.92882816481E-01  0.20959545590E-01  0.10811446978E+00  0.51100000000E-03 0. -1.
</event>
<event>
 8    1  0.1066842E+005  0.1043930E+01  0.7957747E-01            NaN
         13   -1    0    0    0    0  0.00000000000E+00  0.00000000000E+00  0.74505805969E-08  0.10566000000E+00  0.10566000000E+00 0.  1.
     999900   -1    0    0    0    0 -0.00000000000E+00 -0.00000000000E+00 -0.74505805969E-08  0.93827000000E+00  0.93827000000E+00 0. -1.
     999902    2    1    2    0    0  0.11063548628E-01  0.16289861078E-01  0.12914641804E-01  0.10203811220E+01  0.10201093493E+01 0.  0.
     999903    2    3    3    0    0  0.56740959725E-01  0.11639540256E+00 -0.22409737021E-01  0.13282528879E+00  0.19311519375E-01 0.  0.
         14    1    1    2    0    0 -0.11063548628E-01 -0.16289861078E-01 -0.12914641804E-01  0.23548878001E-01  0.00000000000E+00 0. -1.
     999901    1    3    3    0    0 -0.45677411097E-01 -0.10010554149E+00  0.35324378825E-01  0.88755583321E+00  0.88000000000E+00 0.  1.
        -11    1    4    4    0    0  0.23784409731E-01  0.64862339915E-01 -0.18533826034E-01  0.71530309059E-01  0.51100000000E-03 0. -1.
         11    1    4    4    0    0  0.32956549994E-01  0.51533062649E-01 -0.38759109867E-02  0.61294979733E-01  0.51100000000E-03 0.  1.
</event>
<event>
 8    1  0.1066842E+005  0.1043930E+01  0.7957747E-01            NaN
         13   -1    0    0    0    0  0.00000000000E+00  0.00000000000E+00  0.74505805969E-08  0.10566000000E+00  0.10566000000E+00 0. -1.
     999900   -1    0    0    0    0 -0.00000000000E+00 -0.00000000000E+00 -0.74505805969E-08  0.93827000000E+00  0.93827000000E+00 0. -1.
     999902    2    1    2    0    0  0.12741700350E-01  0.15704019028E-01 -0.12493228872E-01  0.10201592636E+01  0.10198822850E+01 0.  0.
     999903    2    3    3    0    0  0.97444786869E-01  0.75476805141E-01 -0.42823398647E-01  0.13355488845E+00  0.28475079558E-01 0.  0.
         14    1    1    2    0    0 -0.12741700350E-01 -0.15704019028E-01  0.12493228872E-01  0.23770736402E-01  0.00000000000E+00 0. -1.
     999901    1    3    3    0    0 -0.84703086519E-01 -0.59772786113E-01  0.30330169775E-01  0.88660437514E+00  0.88000000000E+00 0.  1.
        -11    1    4    4    0    0  0.65289254736E-01  0.37138047820E-01 -0.35139227432E-01  0.82927364635E-01  0.51100000000E-03 0. -1.
         11    1    4    4    0    0  0.32155532134E-01  0.38338757321E-01 -0.76841712155E-02  0.50627523819E-01  0.51100000000E-03 0.  1.
</event>
<event>
 8    1  0.1066842E+005  0.1043930E+01  0.7957747E-01            NaN
         13   -1    0    0    0    0  0.00000000000E+00  0.00000000000E+00  0.74505805969E-08  0.10566000000E+00  0.10566000000E+00 0.  1.
     999900   -1    0    0    0    0 -0.00000000000E+00 -0.00000000000E+00 -0.74505805969E-08  0.93827000000E+00  0.93827000000E+00 0. -1.
     999902    2    1    2    0    0  0.15655169393E-01  0.54581137951E-02 -0.17017157814E-01  0.10201716542E+01  0.10198949677E+01 0.  0.
     999903    2    3    3    0    0 -0.63615002764E-01  0.10692490846E+00  0.29260679320E-01  0.12959829461E+00  0.21441221612E-01 0.  0.
         14    1    1    2    0    0 -0.15655169393E-01 -0.54581137951E-02  0.17017157814E-01  0.23758345796E-01  0.00000000000E+00 0. -1.
     999901    1    3    3    0    0  0.79270172156E-01 -0.10146679467E+00 -0.46277837134E-01  0.89057335960E+00  0.88000000000E+00 0.  1.
        -11    1    4    4    0    0 -0.27477267011E-01  0.40651376977E-01  0.21958106980E-01  0.53758294575E-01  0.51100000000E-03 0. -1.
         11    1    4    4    0    0 -0.36137735752E-01  0.66273531487E-01  0.73025723407E-02  0.75840000032E-01  0.51100000000E-03 0.  1.
</event>
<event>
 8    1  0.1066842E+005  0.1043930E+01  0.7957747E-01            NaN
         13   -1    0    0    0    0  0.00000000000E+00  0.00000000000E+00  0.74505805969E-08  0.10566000000E+00  0.10566000000E+00 0. -1.
     999900   -1    0    0    0    0 -0.00000000000E+00 -0.00000000000E+00 -0.74505805969E-08  0.93827000000E+00  0.93827000000E+00 0. -1.
     999902    2    1    2    0    0  0.41937176454E-02  0.23687409413E-01  0.11018690411E-02  0.10198489961E+01  0.10195646523E+01 0.  0.
     999903    2    3    3    0    0 -0.12488324023E+00  0.21248103333E-01  0.22017526472E-01  0.13018373548E+00  0.20389407228E-01 0.  0.
         14    1    1    2    0    0 -0.41937176454E-02 -0.23687409413E-01 -0.11018690411E-02  0.24081003878E-01  0.00000000000E+00 0. -1.
     999901    1    3    3    0    0  0.12907695787E+00  0.24393060797E-02 -0.20915657431E-01  0.88966526064E+00  0.88000000000E+00 0. -1.
        -11    1    4    4    0    0 -0.60175394935E-01  0.20565448763E-01  0.11043704716E-01  0.64546420298E-01  0.51100000000E-03 0. -1.
         11    1    4    4    0    0 -0.64707845290E-01  0.68265457041E-03  0.10973821756E-01  0.65637315182E-01  0.51100000000E-03 0.  1.
</event>
<event>
 8    1  0.1066842E+005  0.1043930E+01  0.7957747E-01            NaN
         13   -1    0    0    0    0  0.00000000000E+00  0.00000000000E+00  0.74505805969E-08  0.10566000000E+00  0.10566000000E+00 0. -1.
     999900   -1    0    0    0    0 -0.00000000000E+00 -0.00000000000E+00 -0.74505805969E-08  0.93827000000E+00  0.93827000000E+00 0. -1.
     999902    2    1    2    0    0  0.19083493208E-01 -0.82825922048E-02 -0.12982287187E-01  0.10194081561E+01  0.10191131772E+01 0.  0.
     999903    2    3    3    0    0  0.10468632991E+00  0.21277730997E-01  0.72426362239E-01  0.13064705450E+00  0.20275734160E-01 0.  0.
         14    1    1    2    0    0 -0.19083493208E-01  0.82825922048E-02  0.12982287187E-01  0.24521843880E-01  0.00000000000E+00 0. -1.
     999901    1    3    3    0    0 -0.85602836701E-01 -0.29560323202E-01 -0.85408649427E-01  0.88876110162E+00  0.88000000000E+00 0. -1.
        -11    1    4    4    0    0  0.34650879934E-01  0.12571537995E-01  0.15569579836E-01  0.40017495987E-01  0.51100000000E-03 0.  1.
         11    1    4    4    0    0  0.70035449975E-01  0.87061930016E-02  0.56856782404E-01  0.90629558512E-01  0.51100000000E-03 0. -1.
</event>
<event>
 8    1  0.1066842E+005  0.1043930E+01  0.7957747E-01            NaN
         13   -1    0    0    0    0  0.00000000000E+00  0.00000000000E+00  0.74505805969E-08  0.10566000000E+00  0.10566000000E+00 0. -1.
     999900   -1    0    0    0    0 -0.00000000000E+00 -0.00000000000E+00 -0.74505805969E-08  0.93827000000E+00  0.93827000000E+00 0.  1.
     999902    2    1    2    0    0 -0.11819487031E-02 -0.11712189445E-01  0.20706105930E-01  0.10201116204E+01  0.10198335172E+01 0.  0.
     999903    2    3    3    0    0  0.16596458832E-01 -0.12463613503E+00  0.34282241912E-01  0.13261390168E+00  0.24526846626E-01 0.  0.
         14    1    1    2    0    0  0.11819487031E-02  0.11712189445E-01 -0.20706105930E-01  0.23818379607E-01  0.00000000000E+00 0.  1.
     999901    1    3    3    0    0 -0.17778407535E-01  0.11292394559E+00 -0.13576135982E-01  0.88749771872E+00  0.88000000000E+00 0.  1.
        -11    1    4    4    0    0  0.82293867255E-03 -0.27147718420E-01  0.17833970759E-01  0.32495960941E-01  0.51100000000E-03 0. -1.
         11    1    4    4    0    0  0.15773520159E-01 -0.97488416613E-01  0.16448271152E-01  0.10011794073E+00  0.51100000000E-03 0.  1.
</event>
<event>
 8    1  0.1066842E+005  0.1043930E+01  0.7957747E-01            NaN
         13   -1    0    0    0    0  0.00000000000E+00  0.00000000000E+00  0.74505805969E-08  0.10566000000E+00  0.10566000000E+00 0.  1.
     999900   -1    0    0    0    0 -0.00000000000E+00 -0.00000000000E+00 -0.74505805969E-08  0.93827000000E+00  0.93827000000E+00 0. -1.
     999902    2    1    2    0    0 -0.20388296645E-01  0.14385800633E-01 -0.73307314652E-02  0.10179228178E+01  0.10175905314E+01 0.  0.
     999903    2    3    3    0    0 -0.62749903898E-01  0.25673026814E-01  0.10893199245E+00  0.12919399069E+00  0.15108060954E-01 0.  0.
         14    1    1    2    0    0  0.20388296645E-01 -0.14385800633E-01  0.73307314652E-02  0.26007182158E-01  0.00000000000E+00 0.  1.
     999901    1    3    3    0    0  0.42361607253E-01 -0.11287226180E-01 -0.11626272391E+00  0.88872882715E+00  0.88000000000E+00 0. -1.
        -11    1    4    4    0    0 -0.88030565217E-02  0.95954454678E-02  0.23768248008E-01  0.27106403528E-01  0.51100000000E-03 0.  1.
         11    1    4    4    0    0 -0.53946847377E-01  0.16077581346E-01  0.85163744441E-01  0.10208758716E+00  0.51100000000E-03 0. -1.
</event>
<event>
 8    1  0.1066842E+005  0.1043930E+01  0.7957747E-01            NaN
         13   -1    0    0    0    0  0.00000000000E+00  0.00000000000E+00  0.74505805969E-08  0.10566000000E+00  0.10566000000E+00 0. -1.
     999900   -1    0    0    0    0 -0.00000000000E+00 -0.00000000000E+00 -0.74505805969E-08  0.93827000000E+00  0.93827000000E+00 0. -1.
     999902    2    1    2    0    0 -0.68333777990E-02  0.17778157100E-01 -0.13378575588E-01  0.10206546008E+01  0.10203891757E+01 0.  0.
     999903    2    3    3    0    0  0.32263388054E-02 -0.39614716427E-01 -0.12394260684E+00  0.13182416433E+00  0.20883138918E-01 0.  0.
         14    1    1    2    0    0  0.68333777990E-02 -0.17778157100E-01  0.13378575588E-01  0.23275399175E-01  0.00000000000E+00 0. -1.
     999901    1    3    3    0    0 -0.10059716604E-01  0.57392873527E-01  0.11056403126E+00  0.88883043649E+00  0.88000000000E+00 0.  1.
        -11    1    4    4    0    0 -0.13856082639E-02 -0.17502678124E-01 -0.26472943620E-01  0.31770135610E-01  0.51100000000E-03 0.  1.
         11    1    4    4    0    0  0.46119470693E-02 -0.22112038303E-01 -0.97469663223E-01  0.10005402872E+00  0.51100000000E-03 0. -1.
</event>
<event>
 8    1  0.1066842E+005  0.1043930E+01  0.7957747E-01            NaN
         13   -1    0    0    0    0  0.00000000000E+00  0.00000000000E+00  0.74505805969E-08  0.10566000000E+00  0.10566000000E+00 0. -1.
     999900   -1    0    0    0    0 -0.00000000000E+00 -0.00000000000E+00 -0.74505805969E-08  0.93827000000E+00  0.93827000000E+00 0. -1.
     999902    2    1    2    0    0 -0.89194359416E-03 -0.38519915778E-02  0.24011544608E-01  0.10195950934E+01  0.10193046487E+01 0.  0.
     999903    2    3    3    0    0  0.88798032306E-01 -0.92588288112E-01 -0.81443520191E-02  0.13001517922E+00  0.19491914271E-01 0.  0.
         14    1    1    2    0    0  0.89194359416E-03  0.38519915778E-02 -0.24011544608E-01  0.24334906553E-01  0.00000000000E+00 0.  1.
     999901    1    3    3    0    0 -0.89689975900E-01  0.88736296535E-01  0.32155896627E-01  0.88957991422E+00  0.88000000000E+00 0.  1.
        -11    1    4    4    0    0  0.78233482668E-01 -0.76836143474E-01 -0.77091380859E-03  0.10965913634E+00  0.51100000000E-03 0. -1.
         11    1    4    4    0    0  0.10564549638E-01 -0.15752144638E-01 -0.73734382105E-02  0.20356042882E-01  0.51100000000E-03 0.  1.
</event>
<event>
 8    1  0.1066842E+005  0.1043930E+01  0.7957747E-01            NaN
         13   -1    0    0    0    0  0.00000000000E+00  0.00000000000E+00  0.74505805969E-08  0.10566000000E+00  0.10566000000E+00 0. -1.
     999900   -1    0    0    0    0 -0.00000000000E+00 -0.00000000000E+00 -0.74505805969E-08  0.93827000000E+00  0.93827000000E+00 0.  1.
     999902    2    1    2    0    0  0.23974441591E-01 -0.66444881680E-02 -0.12422959689E-02  0.10190208376E+01  0.10187163497E+01 0.  0.
     999903    2    3    3    0    0 -0.11961624425E+00 -0.18955429812E-01  0.31325668324E-01  0.12670333992E+00  0.20126714691E-01 0.  0.
         14    1    1    2    0    0 -0.23974441591E-01  0.66444881680E-02  0.12422959689E-02  0.24909162408E-01  0.00000000000E+00 0.  1.
     999901    1    3    3    0    0  0.14359068584E+00  0.12310941644E-01 -0.32567964292E-01  0.89231749767E+00  0.88000000000E+00 0.  1.
        -11    1    4    4    0    0 -0.51068390444E-01 -0.12846996446E-01  0.22690438631E-01  0.57342331192E-01  0.51100000000E-03 0. -1.
         11    1    4    4    0    0 -0.68547853806E-01 -0.61084333656E-02  0.86352296930E-02  0.69361008733E-01  0.51100000000E-03 0.  1.
</event>
<event>
 8    1  0.1066842E+005  0.1043930E+01  0.7957747E-01            NaN
         13   -1    0    0    0    0  0.00000000000E+00  0.00000000000E+00  0.74505805969E-08  0.10566000000E+00  0.10566000000E+00 0. -1.
     999900   -1    0    0    0    0 -0.00000000000E+00 -0.00000000000E+00 -0.74505805969E-08  0.93827000000E+00  0.93827000000E+00 0. -1.
     999902    2    1    2    0    0 -0.19575057723E-01  0.10937554234E-01 -0.74063383651E-02  0.10203150296E+01  0.10200417113E+01 0.  0.
     999903    2    3    3    0    0 -0.76512263758E-01 -0.87759041442E-01 -0.57625094423E-01  0.13154915107E+00  0.20706322244E-01 0.  0.
         14    1    1    2    0    0  0.19575057723E-01 -0.10937554234E-01  0.74063383651E-02  0.23614970367E-01  0.00000000000E+00 0. -1.
     999901    1    3    3    0    0  0.56937206035E-01  0.98696595676E-01  0.50218756058E-01  0.88876587856E+00  0.88000000000E+00 0.  1.
        -11    1    4    4    0    0 -0.38691494319E-01 -0.29845378937E-01 -0.19947824522E-01  0.52782148504E-01  0.51100000000E-03 0.  1.
         11    1    4    4    0    0 -0.37820769439E-01 -0.57913662506E-01 -0.37677269900E-01  0.78767002571E-01  0.51100000000E-03 0. -1.
</event>
<event>
 8    1  0.1066842E+005  0.1043930E+01  0.7957747E-01            NaN
         13   -1    0    0    0    0  0.00000000000E+00  0.00000000000E+00  0.74505805969E-08  0.10566000000E+00  0.10566000000E+00 0.  1.
     999900   -1    0    0    0    0 -0.00000000000E+00 -0.00000000000E+00 -0.74505805969E-08  0.93827000000E+00  0.93827000000E+00 0.  1.
     999902    2    1    2    0    0 -0.16380315308E-01  0.90985671268E-02 -0.14249703979E-01  0.10203895515E+01  0.10201179755E+01 0.  0.
     999903    2    3    3    0    0  0.17030769126E-01 -0.88387007334E-01  0.89368739726E-01  0.12833769218E+00  0.19531549655E-01 0.  0.
         14    1    1    2    0    0  0.16380315308E-01 -0.90985671268E-02  0.14249703979E-01  0.23540448526E-01  0.00000000000E+00 0.  1.
     999901    1    3    3    0    0 -0.33411084433E-01  0.97485574461E-01 -0.10361844370E+00  0.89205185929E+00  0.88000000000E+00 0.  1.
        -11    1    4    4    0    0  0.97750016340E-02 -0.81438091240E-01  0.80496500316E-01  0.11492458852E+00  0.51100000000E-03 0. -1.
         11    1    4    4    0    0  0.72557674916E-02 -0.69489160942E-02  0.88722394099E-02  0.13413103665E-01  0.51100000000E-03 0.  1.
</event>
<event>
 8    1  0.1066842E+005  0.1043930E+01  0.7957747E-01            NaN
         13   -1    0    0    0    0  0.00000000000E+00  0.00000000000E+00  0.74505805969E-08  0.10566000000E+00  0.10566000000E+00 0. -1.
     999900   -1    0    0    0    0 -0.00000000000E+00 -0.00000000000E+00 -0.74505805969E-08  0.93827000000E+00  0.93827000000E+00 0.  1.
     999902    2    1    2    0    0 -0.15149388465E-01 -0.11557855529E-01 -0.14239840556E-01  0.10201421658E+01  0.10198647839E+01 0.  0.
     999903    2    3    3    0    0 -0.48077466175E-01  0.11423664992E+00 -0.35517627986E-01  0.13033248948E+00  0.19068323922E-01 0.  0.
         14    1    1    2    0    0  0.15149388465E-01  0.11557855529E-01  0.14239840556E-01  0.23787834167E-01  0.00000000000E+00 0. -1.
     999901    1    3    3    0    0  0.32928077710E-01 -0.12579450544E+00  0.21277787430E-01  0.88980967636E+00  0.88000000000E+00 0.  1.
        -11    1    4    4    0    0 -0.30679453528E-01  0.92409316674E-01 -0.29876909163E-01  0.10185087873E+00  0.51100000000E-03 0.  1.
         11    1    4    4    0    0 -0.17398012647E-01  0.21827333242E-01 -0.56407188237E-02  0.28481610741E-01  0.51100000000E-03 0. -1.
</event>
<event>
 8    1  0.1066842E+005  0.1043930E+01  0.7957747E-01            NaN
         13   -1    0    0    0    0  0.00000000000E+00  0.00000000000E+00  0.74505805969E-08  0.10566000000E+00  0.10566000000E+00 0. -1.
     999900   -1    0    0    0    0 -0.00000000000E+00 -0.00000000000E+00 -0.74505805969E-08  0.93827000000E+00  0.93827000000E+00 0.  1.
     999902    2    1    2    0    0  0.13240716264E-01  0.10421451363E-01 -0.16474110034E-01  0.10203647816E+01  0.10200926272E+01 0.  0.
     999903    2    3    3    0    0 -0.98525250590E-03  0.96613951391E-01  0.84952706121E-01  0.13024179895E+00  0.20266662052E-01 0.  0.
         14    1    1    2    0    0 -0.13240716264E-01 -0.10421451363E-01  0.16474110034E-01  0.23565218376E-01  0.00000000000E+00 0. -1.
     999901    1    3    3    0    0  0.14225968770E-01 -0.86192500028E-01 -0.10142681616E+00  0.89012298267E+00  0.88000000000E+00 0.  1.
        -11    1    4    4    0    0  0.79871525494E-02  0.20822283248E-01  0.16910071171E-01  0.27992386706E-01  0.51100000000E-03 0. -1.
         11    1    4    4    0    0 -0.89724050553E-02  0.75791668143E-01  0.68042634950E-01  0.10224941224E+00  0.51100000000E-03 0.  1.
</event>
<event>
 8    1  0.1066842E+005  0.1043930E+01  0.7957747E-01            NaN
         13   -1    0    0    0    0  0.00000000000E+00  0.00000000000E+00  0.74505805969E-08  0.10566000000E+00  0.10566000000E+00 0.  1.
     999900   -1    0    0    0    0 -0.00000000000E+00 -0.00000000000E+00 -0.74505805969E-08  0.93827000000E+00  0.93827000000E+00 0.  1.
     999902    2    1    2    0    0  0.85276490902E-02 -0.21375700679E-01 -0.12545008515E-02  0.10208818949E+01  0.10206216871E+01 0.  0.
     999903    2    3    3    0    0  0.12381162808E+00 -0.12034324809E-01 -0.40223693297E-01  0.13245842878E+00  0.21287217516E-01 0.  0.
         14    1    1    2    0    0 -0.85276490902E-02  0.21375700679E-01  0.12545008515E-02  0.23048105148E-01  0.00000000000E+00 0.  1.
     999901    1    3    3    0    0 -0.11528397899E+00 -0.93413758695E-02  0.38969192446E-01  0.88842346608E+00  0.88000000000E+00 0.  1.
        -11    1    4    4    0    0  0.46248692687E-01 -0.14879580299E-01 -0.15671759734E-01  0.51051039747E-01  0.51100000000E-03 0.  1.
         11    1    4    4    0    0  0.77562935394E-01  0.28452554894E-02 -0.24551933564E-01  0.81407389029E-01  0.51100000000E-03 0. -1.
</event>
<event>
 8    1  0.1066842E+005  0.1043930E+01  0.7957747E-01            NaN
         13   -1    0    0    0    0  0.00000000000E+00  0.00000000000E+00  0.74505805969E-08  0.10566000000E+00  0.10566000000E+00 0. -1.
     999900   -1    0    0    0    0 -0.00000000000E+00 -0.00000000000E+00 -0.74505805969E-08  0.93827000000E+00  0.93827000000E+00 0.  1.
     999902    2    1    2    0    0 -0.22889961479E-01 -0.76825433030E-03 -0.15335660430E-02  0.10209758636E+01  0.10207177973E+01 0.  0.
     999903    2    3    3    0    0  0.85004854690E-02 -0.12415954328E+00  0.30226551050E-01  0.13124586224E+00  0.28705078397E-01 0.  0.
         14    1    1    2    0    0  0.22889961479E-01  0.76825433030E-03  0.15335660430E-02  0.22954136360E-01  0.00000000000E+00 0.  1.
     999901    1    3    3    0    0 -0.31390446948E-01  0.12339128895E+00 -0.31760117093E-01  0.88973000140E+00  0.88000000000E+00 0.  1.
        -11    1    4    4    0    0  0.97044075476E-02 -0.92330413743E-01  0.96917441565E-02  0.93344908022E-01  0.51100000000E-03 0. -1.
         11    1    4    4    0    0 -0.12039220787E-02 -0.31829129540E-01  0.20534806893E-01  0.37900954220E-01  0.51100000000E-03 0.  1.
</event>
<event>
 8    1  0.1066842E+005  0.1043930E+01  0.7957747E-01            NaN
         13   -1    0    0    0    0  0.00000000000E+00  0.00000000000E+00  0.74505805969E-08  0.10566000000E+00  0.10566000000E+00 0. -1.
     999900   -1    0    0    0    0 -0.00000000000E+00 -0.00000000000E+00 -0.74505805969E-08  0.93827000000E+00  0.93827000000E+00 0.  1.
     999902    2    1    2    0    0  0.12674745035E-01 -0.25303770830E-03 -0.19467740512E-01  0.10206984243E+01  0.10204340092E+01 0.  0.
     999903    2    3    3    0    0  0.11525971005E+00 -0.19391752901E-01 -0.61566842430E-01  0.13353310719E+00  0.19487785561E-01 0.  0.
         14    1    1    2    0    0 -0.12674745035E-01  0.25303770830E-03  0.19467740512E-01  0.23231575720E-01  0.00000000000E+00 0. -1.
     999901    1    3    3    0    0 -0.10258496502E+00  0.19138715193E-01  0.42099101918E-01  0.88716531709E+00  0.88000000000E+00 0.  1.
        -11    1    4    4    0    0  0.15917244995E-01  0.21512801568E-02 -0.13950862080E-01  0.21280845103E-01  0.51100000000E-03 0.  1.
         11    1    4    4    0    0  0.99342465060E-01 -0.21543033058E-01 -0.47615980351E-01  0.11225226209E+00  0.51100000000E-03 0. -1.
</event>
<event>
 8    1  0.1066842E+005  0.1043930E+01  0.7957747E-01            NaN
         13   -1    0    0    0    0  0.00000000000E+00  0.00000000000E+00  0.74505805969E-08  0.10566000000E+00  0.10566000000E+00 0.  1.
     999900   -1    0    0    0    0 -0.00000000000E+00 -0.00000000000E+00 -0.74505805969E-08  0.93827000000E+00  0.93827000000E+00 0.  1.
     999902    2    1    2    0    0  0.21627212066E-01 -0.10272286198E-01 -0.74005754077E-03  0.10199757968E+01  0.10196944749E+01 0.  0.
     999903    2    3    3    0    0  0.34828467548E-01 -0.12104041595E+00  0.34805460379E-01  0.13222170047E+00  0.20183001743E-01 0.  0.
         14    1    1    2    0    0 -0.21627212066E-01  0.10272286198E-01  0.74005754077E-03  0.23954203194E-01  0.00000000000E+00 0.  1.
     999901    1    3    3    0    0 -0.13201255482E-01  0.11076812975E+00 -0.35545517920E-01  0.88775409633E+00  0.88000000000E+00 0. -1.
        -11    1    4    4    0    0  0.32413583089E-02 -0.45514986781E-01  0.14389346243E-01  0.47848038954E-01  0.51100000000E-03 0. -1.
         11    1    4    4    0    0  0.31587109239E-01 -0.75525429164E-01  0.20416114136E-01  0.84373661518E-01  0.51100000000E-03 0.  1.
</event>
<event>
 8    1  0.1066842E+005  0.1043930E+01  0.7957747E-01            NaN
         13   -1    0    0    0    0  0.00000000000E+00  0.00000000000E+00  0.74505805969E-08  0.10566000000E+00  0.10566000000E+00 0. -1.
     999900   -1    0    0    0    0 -0.00000000000E+00 -0.00000000000E+00 -0.74505805969E-08  0.93827000000E+00  0.93827000000E+00 0. -1.
     999902    2    1    2    0    0  0.19551414468E-01 -0.30381756959E-02 -0.14772048346E-01  0.10192378609E+01  0.10189387202E+01 0.  0.
     999903    2    3    3    0    0  0.40862941911E-01 -0.11515843169E+00 -0.44170586851E-01  0.13138122438E+00  0.19461268353E-01 0.  0.
         14    1    1    2    0    0 -0.19551414468E-01  0.30381756959E-02  0.14772048346E-01  0.24692139064E-01  0.00000000000E+00 0. -1.
     999901    1    3    3    0    0 -0.21311527444E-01  0.11212025600E+00  0.29398538505E-01  0.88785663655E+00  0.88000000000E+00 0.  1.
        -11    1    4    4    0    0  0.19228704020E-01 -0.81229658775E-01 -0.30755024578E-01  0.88961413999E-01  0.51100000000E-03 0. -1.
         11    1    4    4    0    0  0.21634237891E-01 -0.33928772917E-01 -0.13415562273E-01  0.42419810382E-01  0.51100000000E-03 0.  1.
</event>
<event>
 8    1  0.1066842E+005  0.1043930E+01  0.7957747E-01            NaN
         13   -1    0    0    0    0  0.00000000000E+00  0.00000000000E+00  0.74505805969E-08  0.10566000000E+00  0.10566000000E+00 0.  1.
     999900   -1    0    0    0    0 -0.00000000000E+00 -0.00000000000E+00 -0.74505805969E-08  0.93827000000E+00  0.93827000000E+00 0.  1.
     999902    2    1    2    0    0  0.76478128890E-03  0.21437371055E-01 -0.10709338847E-01  0.10199542684E+01  0.10196724346E+01 0.  0.
     999903    2    3    3    0    0 -0.12195651957E+00  0.37950645666E-01  0.19535863377E-01  0.13077038516E+00  0.20139501071E-01 0.  0.
         14    1    1    2    0    0 -0.76478128890E-03 -0.21437371055E-01  0.10709338847E-01  0.23975731620E-01  0.00000000000E+00 0.  1.
     999901    1    3    3    0    0  0.12272130086E+00 -0.16513274611E-01 -0.30245202225E-01  0.88918388322E+00  0.88000000000E+00 0.  1.
        -11    1    4    4    0    0 -0.89414612959E-01  0.30027132321E-01  0.55961019020E-02  0.94489042558E-01  0.51100000000E-03 0. -1.
         11    1    4    4    0    0 -0.32541906614E-01  0.79235133456E-02  0.13939761475E-01  0.36281342599E-01  0.51100000000E-03 0.  1.
</event>
<event>
 8    1  0.1066842E+005  0.1043930E+01  0.7957747E-01            NaN
         13   -1    0    0    0    0  0.00000000000E+00  0.00000000000E+00  0.74505805969E-08  0.10566000000E+00  0.10566000000E+00 0.  1.
     999900   -1    0    0    0    0 -0.00000000000E+00 -0.00000000000E+00 -0.74505805969E-08  0.93827000000E+00  0.93827000000E+00 0.  1.
     999902    2    1    2    0    0  0.84545936235E-02  0.26497126232E-02 -0.21494924014E-01  0.10206806368E+01  0.10204158120E+01 0.  0.
     999903    2    3    3    0    0 -0.64466572528E-01 -0.19940513955E-01 -0.11237661567E+00  0.13271256493E+00  0.20749893268E-01 0.  0.
         14    1    1    2    0    0 -0.84545936235E-02 -0.26497126232E-02  0.21494924014E-01  0.23249363189E-01  0.00000000000E+00 0.  1.
     999901    1    3    3    0    0  0.72921166151E-01  0.22590226578E-01  0.90881691652E-01  0.88796807189E+00  0.88000000000E+00 0. -1.
        -11    1    4    4    0    0 -0.41490559394E-01 -0.18635255036E-01 -0.58334755214E-01  0.73972589761E-01  0.51100000000E-03 0. -1.
         11    1    4    4    0    0 -0.22976013134E-01 -0.13052589189E-02 -0.54041860451E-01  0.58739975165E-01  0.51100000000E-03 0.  1.
</event>
<event>
 8    1  0.1066842E+005  0.1043930E+01  0.7957747E-01            NaN
         13   -1    0    0    0    0  0.00000000000E+00  0.00000000000E+00  0.74505805969E-08  0.10566000000E+00  0.10566000000E+00 0. -1.
     999900   -1    0    0    0    0 -0.00000000000E+00 -0.00000000000E+00 -0.74505805969E-08  0.93827000000E+00  0.93827000000E+00 0. -1.
     999902    2    1    2    0    0  0.18240044284E-01 -0.26673606410E-02  0.14413077963E-01  0.10205301956E+01  0.10202618925E+01 0.  0.
     999903    2    3    3    0    0 -0.10564290309E+00  0.16120205612E-01 -0.67341627452E-01  0.12790273182E+00  0.20098010228E-01 0.  0.
         14    1    1    2    0    0 -0.18240044284E-01  0.26673606410E-02 -0.14413077963E-01  0.23399804371E-01  0.00000000000E+00 0. -1.
     999901    1    3    3    0    0  0.12388294738E+00 -0.18787566253E-01  0.81754705415E-01  0.89262746381E+00  0.88000000000E+00 0.  1.
        -11    1    4    4    0    0 -0.28283480766E-01 -0.31017910662E-02 -0.23640579712E-01  0.36996141990E-01  0.51100000000E-03 0.  1.
         11    1    4    4    0    0 -0.77359422327E-01  0.19221996678E-01 -0.43701047740E-01  0.90906589825E-01  0.51100000000E-03 0. -1.
</event>
<event>
 8    1  0.1066842E+005  0.1043930E+01  0.7957747E-01            NaN
         13   -1    0    0    0    0  0.00000000000E+00  0.00000000000E+00  0.74505805969E-08  0.10566000000E+00  0.10566000000E+00 0.  1.
     999900   -1    0    0    0    0 -0.00000000000E+00 -0.00000000000E+00 -0.74505805969E-08  0.93827000000E+00  0.93827000000E+00 0. -1.
     999902    2    1    2    0    0 -0.21259047903E-01  0.26633920704E-02  0.80083467746E-02  0.10210569942E+01  0.10208007695E+01 0.  0.
     999903    2    3    3    0    0  0.99204376944E-01  0.79848507521E-01  0.11792115202E-01  0.12949471616E+00  0.20310956976E-01 0.  0.
         14    1    1    2    0    0  0.21259047903E-01 -0.26633920704E-02 -0.80083467746E-02  0.22873005774E-01  0.00000000000E+00 0.  1.
     999901    1    3    3    0    0 -0.12046342485E+00 -0.77185115450E-01 -0.37837684277E-02  0.89156227807E+00  0.88000000000E+00 0.  1.
        -11    1    4    4    0    0  0.38258375347E-01  0.35890812656E-01  0.14067711501E-01  0.54314043719E-01  0.51100000000E-03 0.  1.
         11    1    4    4    0    0  0.60946001598E-01  0.43957694865E-01 -0.22755962990E-02  0.75180672437E-01  0.51100000000E-03 0. -1.
</event>
<event>
 8    1  0.1066842E+005  0.1043930E+01  0.7957747E-01            NaN
         13   -1    0    0    0    0  0.00000000000E+00  0.00000000000E+00  0.74505805969E-08  0.10566000000E+00  0.10566000000E+00 0. -1.
     999900   -1    0    0    0    0 -0.00000000000E+00 -0.00000000000E+00 -0.74505805969E-08  0.93827000000E+00  0.93827000000E+00 0. -1.
     999902    2    1    2    0    0  0.79099670577E-02  0.49966685495E-02  0.21014874692E-01  0.10209265387E+01  0.10206673494E+01 0.  0.
     999903    2    3    3    0    0 -0.34856504167E-01 -0.11852508137E+00 -0.33355713246E-01  0.12961135613E+00  0.20574966250E-01 0.  0.
         14    1    1    2    0    0 -0.79099670577E-02 -0.49966685495E-02 -0.21014874692E-01  0.23003461343E-01  0.00000000000E+00 0.  1.
     999901    1    3    3    0    0  0.42766471224E-01  0.12352174992E+00  0.54370587938E-01  0.89131518252E+00  0.88000000000E+00 0. -1.
        -11    1    4    4    0    0 -0.27391994060E-02 -0.33685962076E-01 -0.15359814563E-01  0.37127244427E-01  0.51100000000E-03 0. -1.
         11    1    4    4    0    0 -0.32117304761E-01 -0.84839119294E-01 -0.17995898683E-01  0.92484111706E-01  0.51100000000E-03 0.  1.
</event>
<event>
 8    1  0.1066842E+005  0.1043930E+01  0.7957747E-01            NaN
         13   -1    0    0    0    0  0.00000000000E+00  0.00000000000E+00  0.74505805969E-08  0.10566000000E+00  0.10566000000E+00 0.  1.
     999900   -1    0    0    0    0 -0.00000000000E+00 -0.00000000000E+00 -0.74505805969E-08  0.93827000000E+00  0.93827000000E+00 0. -1.
     999902    2    1    2    0    0  0.16661071224E-01 -0.25796285231E-01 -0.86595151127E-02  0.10120234673E+01  0.10115203762E+01 0.  0.
     999903    2    3    3    0    0  0.37051160757E-01 -0.99484820518E-01 -0.66646427867E-01  0.12680697513E+00  0.19189699504E-01 0.  0.
         14    1    1    2    0    0 -0.16661071224E-01  0.25796285231E-01  0.86595151127E-02  0.31906532686E-01  0.00000000000E+00 0.  1.
     999901    1    3    3    0    0 -0.20390089533E-01  0.73688535287E-01  0.57986912755E-01  0.88521649218E+00  0.88000000000E+00 0.  1.
        -11    1    4    4    0    0  0.82748559131E-02 -0.37504396618E-01 -0.32986226766E-01  0.50630082790E-01  0.51100000000E-03 0.  1.
         11    1    4    4    0    0  0.28776304844E-01 -0.61980423900E-01 -0.33660201101E-01  0.76176892340E-01  0.51100000000E-03 0. -1.
</event>
<event>
 8    1  0.1066842E+005  0.1043930E+01  0.7957747E-01            NaN
         13   -1    0    0    0    0  0.00000000000E+00  0.00000000000E+00  0.74505805969E-08  0.10566000000E+00  0.10566000000E+00 0. -1.
     999900   -1    0    0    0    0 -0.00000000000E+00 -0.00000000000E+00 -0.74505805969E-08  0.93827000000E+00  0.93827000000E+00 0. -1.
     999902    2    1    2    0    0  0.21090025415E-01  0.13876261217E-01 -0.39352454632E-02  0.10183795410E+01  0.10180589686E+01 0.  0.
     999903    2    3    3    0    0 -0.10625011256E+00 -0.29092740876E-01 -0.59093622742E-01  0.12646906767E+00  0.19154499173E-01 0.  0.
         14    1    1    2    0    0 -0.21090025415E-01 -0.13876261217E-01  0.39352454632E-02  0.25550458982E-01  0.00000000000E+00 0. -1.
     999901    1    3    3    0    0  0.12734013797E+00  0.42969002093E-01  0.55158377278E-01  0.89191047335E+00  0.88000000000E+00 0.  1.
        -11    1    4    4    0    0 -0.74801457382E-01 -0.29360638394E-01 -0.42717582567E-01  0.91007461753E-01  0.51100000000E-03 0. -1.
         11    1    4    4    0    0 -0.31448655177E-01  0.26789751850E-03 -0.16376040174E-01  0.35461605919E-01  0.51100000000E-03 0.  1.
</event>
<event>
 8    1  0.1066842E+005  0.1043930E+01  0.7957747E-01            NaN
         13   -1    0    0    0    0  0.00000000000E+00  0.00000000000E+00  0.74505805969E-08  0.10566000000E+00  0.10566000000E+00 0. -1.
     999900   -1    0    0    0    0 -0.00000000000E+00 -0.00000000000E+00 -0.74505805969E-08  0.93827000000E+00  0.93827000000E+00 0. -1.
     999902    2    1    2    0    0 -0.45053734149E-03 -0.20608085474E-03  0.24216556000E-01  0.10197083766E+01  0.10194206621E+01 0.  0.
     999903    2    3    3    0    0 -0.36167467909E-01 -0.36756468948E-01 -0.11481474366E+00  0.12732878685E+00  0.19263199505E-01 0.  0.
         14    1    1    2    0    0  0.45053734149E-03  0.20608085474E-03 -0.24216556000E-01  0.24221623350E-01  0.00000000000E+00 0.  1.
     999901    1    3    3    0    0  0.35716930567E-01  0.36550388094E-01  0.13903129966E+00  0.89237958980E+00  0.88000000000E+00 0.  1.
        -11    1    4    4    0    0 -0.22381001685E-01 -0.34317785717E-01 -0.88155228654E-01  0.97212268325E-01  0.51100000000E-03 0. -1.
         11    1    4    4    0    0 -0.13786466224E-01 -0.24386832315E-02 -0.26659515008E-01  0.30116518529E-01  0.51100000000E-03 0.  1.
</event>
<event>
 8    1  0.1066842E+005  0.1043930E+01  0.7957747E-01            NaN
         13   -1    0    0    0    0  0.00000000000E+00  0.00000000000E+00  0.74505805969E-08  0.10566000000E+00  0.10566000000E+00 0. -1.
     999900   -1    0    0    0    0 -0.00000000000E+00 -0.00000000000E+00 -0.74505805969E-08  0.93827000000E+00  0.93827000000E+00 0.  1.
     999902    2    1    2    0    0 -0.18674192988E-01  0.12639304728E-01  0.72903930578E-02  0.10202313220E+01  0.10199560398E+01 0.  0.
     999903    2    3    3    0    0  0.10856707986E+00 -0.58832150971E-01  0.28728025611E-01  0.12795441287E+00  0.17291601997E-01 0.  0.
         14    1    1    2    0    0  0.18674192988E-01 -0.12639304728E-01 -0.72903930578E-02  0.23698677995E-01  0.00000000000E+00 0.  1.
     999901    1    3    3    0    0 -0.12724127284E+00  0.71471455699E-01 -0.21437632554E-01  0.89227690914E+00  0.88000000000E+00 0.  1.
        -11    1    4    4    0    0  0.56969704118E-01 -0.31026458838E-01  0.23922452939E-01  0.69142846419E-01  0.51100000000E-03 0. -1.
         11    1    4    4    0    0  0.51597375739E-01 -0.27805692133E-01  0.48055726723E-02  0.58811566446E-01  0.51100000000E-03 0.  1.
</event>
<event>
 8    1  0.1066842E+005  0.1043930E+01  0.7957747E-01            NaN
         13   -1    0    0    0    0  0.00000000000E+00  0.00000000000E+00  0.74505805969E-08  0.10566000000E+00  0.10566000000E+00 0.  1.
     999900   -1    0    0    0    0 -0.00000000000E+00 -0.00000000000E+00 -0.74505805969E-08  0.93827000000E+00  0.93827000000E+00 0.  1.
     999902    2    1    2    0    0 -0.31922576700E-02  0.19024461261E-01 -0.13003296168E-01  0.10206661580E+01  0.10204009994E+01 0.  0.
     999903    2    3    3    0    0 -0.10199008689E+00 -0.73422998910E-01 -0.32090560227E-01  0.13012033230E+00  0.10420279662E-01 0.  0.
         14    1    1    2    0    0  0.31922576700E-02 -0.19024461261E-01  0.13003296168E-01  0.23263842042E-01  0.00000000000E+00 0.  1.
     999901    1    3    3    0    0  0.98797829224E-01  0.92447460171E-01  0.19087264059E-01  0.89054582566E+00  0.88000000000E+00 0.  1.
        -11    1    4    4    0    0 -0.70035080086E-01 -0.52540413102E-01 -0.26895675985E-01  0.91591735212E-01  0.51100000000E-03 0. -1.
         11    1    4    4    0    0 -0.31955006808E-01 -0.20882585808E-01 -0.51948842428E-02  0.38528597086E-01  0.51100000000E-03 0.  1.
</event>
<event>
 8    1  0.1066842E+005  0.1043930E+01  0.7957747E-01            NaN
         13   -1    0    0    0    0  0.00000000000E+00  0.00000000000E+00  0.74505805969E-08  0.10566000000E+00  0.10566000000E+00 0. -1.
     999900   -1    0    0    0    0 -0.00000000000E+00 -0.00000000000E+00 -0.74505805969E-08  0.93827000000E+00  0.93827000000E+00 0. -1.
     999902    2    1    2    0    0 -0.60186125577E-02 -0.21306368599E-01  0.80713783679E-02  0.10203645128E+01  0.10200923521E+01 0.  0.
     999903    2    3    3    0    0 -0.92091568198E-01  0.83516406389E-01  0.31072352662E-01  0.12967634473E+00  0.19864949383E-01 0.  0.
         14    1    1    2    0    0  0.60186125577E-02  0.21306368599E-01 -0.80713783679E-02  0.23565487238E-01  0.00000000000E+00 0.  1.
     999901    1    3    3    0    0  0.86072955640E-01 -0.10482277499E+00 -0.23000974294E-01  0.89068816803E+00  0.88000000000E+00 0.  1.
        -11    1    4    4    0    0 -0.50382954338E-01  0.54325864588E-01  0.25952941365E-01  0.78508330371E-01  0.51100000000E-03 0.  1.
         11    1    4    4    0    0 -0.41708613860E-01  0.29190541801E-01  0.51194112969E-02  0.51168014362E-01  0.51100000000E-03 0. -1.
</event>
<event>
 8    1  0.1066842E+005  0.1043930E+01  0.7957747E-01            NaN
         13   -1    0    0    0    0  0.00000000000E+00  0.00000000000E+00  0.74505805969E-08  0.10566000000E+00  0.10566000000E+00 0.  1.
     999900   -1    0    0    0    0 -0.00000000000E+00 -0.00000000000E+00 -0.74505805969E-08  0.93827000000E+00  0.93827000000E+00 0. -1.
     999902    2    1    2    0    0  0.21156965001E-01  0.10467883330E-01 -0.20009210832E-02  0.10202403940E+01  0.10199653249E+01 0.  0.
     999903    2    3    3    0    0  0.25246393426E-02 -0.77754581631E-01 -0.10209918230E+00  0.12998760470E+00  0.20503306565E-01 0.  0.
         14    1    1    2    0    0 -0.21156965001E-01 -0.10467883330E-01  0.20009210832E-02  0.23689606046E-01  0.00000000000E+00 0. -1.
     999901    1    3    3    0    0  0.18632325658E-01  0.88222464961E-01  0.10009826122E+00  0.89025278926E+00  0.88000000000E+00 0.  1.
        -11    1    4    4    0    0  0.10659041899E-01 -0.40534096305E-01 -0.46718709702E-01  0.62765652189E-01  0.51100000000E-03 0.  1.
         11    1    4    4    0    0 -0.81344025561E-02 -0.37220485326E-01 -0.55380472596E-01  0.67221952507E-01  0.51100000000E-03 0. -1.
</event>
<event>
 8    1  0.1066842E+005  0.1043930E+01  0.7957747E-01            NaN
         13   -1    0    0    0    0  0.00000000000E+00  0.00000000000E+00  0.74505805969E-08  0.10566000000E+00  0.10566000000E+00 0.  1.
     999900   -1    0    0    0    0 -0.00000000000E+00 -0.00000000000E+00 -0.74505805969E-08  0.93827000000E+00  0.93827000000E+00 0.  1.
     999902    2    1    2    0    0  0.13866018797E-01  0.22694324372E-02 -0.18227932571E-01  0.10209153454E+01  0.10206559009E+01 0.  0.
     999903    2    3    3    0    0  0.10057074325E+00  0.30054587357E-01 -0.80807568124E-01  0.13400726962E+00  0.20256668682E-01 0.  0.
         14    1    1    2    0    0 -0.13866018797E-01 -0.22694324372E-02  0.18227932571E-01  0.23014654607E-01  0.00000000000E+00 0.  1.
     999901    1    3    3    0    0 -0.86704724458E-01 -0.27785154919E-01  0.62579635553E-01  0.88690807577E+00  0.88000000000E+00 0. -1.
        -11    1    4    4    0    0  0.35057226806E-01  0.13980252530E-01 -0.17925396905E-01  0.41785614598E-01  0.51100000000E-03 0. -1.
         11    1    4    4    0    0  0.65513516448E-01  0.16074334827E-01 -0.62882171219E-01  0.92221655027E-01  0.51100000000E-03 0.  1.
</event>
<event>
 7    1  0.1066842E+005  0.1043930E+01  0.7957747E-01            NaN
         13   -1    0    0    0    0  0.00000000000E+00  0.00000000000E+00  0.74505805969E-08  0.10566000000E+00  0.10566000000E+00 0.  1.
     999900   -1    0    0    0    0 -0.00000000000E+00 -0.00000000000E+00 -0.74505805969E-08  0.93827000000E+00  0.93827000000E+00 0. -1.
     999903    2    1    2    0    0 -0.36972801781E-01 -0.10842287513E+00  0.17025885338E-01  0.11754720366E+00  0.20123528345E-01 0.  0.
         14    1    1    2    0    0 -0.58608536593E-02  0.79903622489E-02 -0.38117329147E-01  0.39384340489E-01  0.00000000000E+00 0. -1.
     999901    1    1    2    0    0  0.42833655440E-01  0.10043251288E+00  0.21091443808E-01  0.88699845585E+00  0.88000000000E+00 0.  1.
        -11    1    3    3    0    0 -0.12412385724E-01 -0.60111487684E-01  0.15586254743E-01  0.63329698632E-01  0.51100000000E-03 0.  1.
         11    1    3    3    0    0 -0.24560416057E-01 -0.48311387448E-01  0.14396305951E-02  0.54217505027E-01  0.51100000000E-03 0. -1.
</event>
<event>
 8    1  0.1066842E+005  0.1043930E+01  0.7957747E-01            NaN
         13   -1    0    0    0    0  0.00000000000E+00  0.00000000000E+00  0.74505805969E-08  0.10566000000E+00  0.10566000000E+00 0.  1.
     999900   -1    0    0    0    0 -0.00000000000E+00 -0.00000000000E+00 -0.74505805969E-08  0.93827000000E+00  0.93827000000E+00 0.  1.
     999902    2    1    2    0    0 -0.54237980279E-02  0.85720621800E-03 -0.23302920255E-01  0.10199888538E+01  0.10197078422E+01 0.  0.
     999903    2    3    3    0    0  0.11720253253E+00 -0.48826673593E-01 -0.19942557716E-01  0.13009167050E+00  0.20140989030E-01 0.  0.
         14    1    1    2    0    0  0.54237980279E-02 -0.85720621800E-03  0.23302920255E-01  0.23941146170E-01  0.00000000000E+00 0.  1.
     999901    1    3    3    0    0 -0.12262633056E+00  0.49683879811E-01 -0.33603625384E-02  0.88989718333E+00  0.88000000000E+00 0.  1.
        -11    1    4    4    0    0  0.19568419442E-01 -0.16494165780E-01 -0.18675453898E-02  0.25665724050E-01  0.51100000000E-03 0.  1.
         11    1    4    4    0    0  0.97634113091E-01 -0.32332507813E-01 -0.18075012326E-01  0.10442594645E+00  0.51100000000E-03 0. -1.
</event>
<event>
 8    1  0.1066842E+005  0.1043930E+01  0.7957747E-01            NaN
         13   -1    0    0    0    0  0.00000000000E+00  0.00000000000E+00  0.74505805969E-08  0.10566000000E+00  0.10566000000E+00 0. -1.
     999900   -1    0    0    0    0 -0.00000000000E+00 -0.00000000000E+00 -0.74505805969E-08  0.93827000000E+00  0.93827000000E+00 0. -1.
     999902    2    1    2    0    0  0.25171372278E-02 -0.16961765106E-01  0.24373679001E-02  0.10266101207E+01  0.10264640090E+01 0.  0.
     999903    2    3    3    0    0  0.11477974037E+00  0.60572657781E-01  0.33536840331E-01  0.13555363769E+00  0.20165152193E-01 0.  0.
         14    1    1    2    0    0 -0.25171372278E-02  0.16961765106E-01 -0.24373679001E-02  0.17319879261E-01  0.00000000000E+00 0. -1.
     999901    1    3    3    0    0 -0.11226260314E+00 -0.77534422886E-01 -0.31099472431E-01  0.89105648305E+00  0.88000000000E+00 0. -1.
        -11    1    4    4    0    0  0.32684395474E-01  0.26905522515E-01  0.67918182131E-02  0.42878511693E-01  0.51100000000E-03 0.  1.
         11    1    4    4    0    0  0.82095344892E-01  0.33667135266E-01  0.26745022118E-01  0.92675125999E-01  0.51100000000E-03 0. -1.
</event>
<event>
 8    1  0.1066842E+005  0.1043930E+01  0.7957747E-01            NaN
         13   -1    0    0    0    0  0.00000000000E+00  0.00000000000E+00  0.74505805969E-08  0.10566000000E+00  0.10566000000E+00 0.  1.
     999900   -1    0    0    0    0 -0.00000000000E+00 -0.00000000000E+00 -0.74505805969E-08  0.93827000000E+00  0.93827000000E+00 0.  1.
     999902    2    1    2    0    0  0.67962540825E-02  0.21130757387E-01 -0.63145628110E-02  0.10208524854E+01  0.10205916055E+01 0.  0.
     999903    2    3    3    0    0  0.61459403364E-01  0.97577198428E-01  0.63039952781E-01  0.13313509394E+00  0.21268513762E-01 0.  0.
         14    1    1    2    0    0 -0.67962540825E-02 -0.21130757387E-01  0.63145628110E-02  0.23077514615E-01  0.00000000000E+00 0.  1.
     999901    1    3    3    0    0 -0.54663149281E-01 -0.76446441040E-01 -0.69354515592E-01  0.88771739144E+00  0.88000000000E+00 0.  1.
        -11    1    4    4    0    0  0.14388695038E-01  0.26304986286E-01  0.27271326673E-01  0.40533606154E-01  0.51100000000E-03 0.  1.
         11    1    4    4    0    0  0.47070708326E-01  0.71272212142E-01  0.35768626108E-01  0.92601487788E-01  0.51100000000E-03 0. -1.
</event>
<event>
 8    1  0.1066842E+005  0.1043930E+01  0.7957747E-01            NaN
         13   -1    0    0    0    0  0.00000000000E+00  0.00000000000E+00  0.74505805969E-08  0.10566000000E+00  0.10566000000E+00 0.  1.
     999900   -1    0    0    0    0 -0.00000000000E+00 -0.00000000000E+00 -0.74505805969E-08  0.93827000000E+00  0.93827000000E+00 0. -1.
     999902    2    1    2    0    0 -0.14501019074E-01  0.18302138281E-01 -0.53018751546E-03  0.10205734395E+01  0.10203061386E+01 0.  0.
     999903    2    3    3    0    0  0.10539328864E+00  0.49439621363E-01 -0.55952841002E-01  0.13017136268E+00  0.16181526328E-01 0.  0.
         14    1    1    2    0    0  0.14501019074E-01 -0.18302138281E-01  0.53018751546E-03  0.23356560505E-01  0.00000000000E+00 0. -1.
     999901    1    3    3    0    0 -0.11989430772E+00 -0.31137483083E-01  0.55422653486E-01  0.89040207681E+00  0.88000000000E+00 0.  1.
        -11    1    4    4    0    0  0.53811926340E-01  0.17364509947E-01 -0.22800293635E-01  0.60970190528E-01  0.51100000000E-03 0.  1.
         11    1    4    4    0    0  0.51581362303E-01  0.32075111416E-01 -0.33152547367E-01  0.69201172153E-01  0.51100000000E-03 0. -1.
</event>
<event>
 8    1  0.1066842E+005  0.1043930E+01  0.7957747E-01            NaN
         13   -1    0    0    0    0  0.00000000000E+00  0.00000000000E+00  0.74505805969E-08  0.10566000000E+00  0.10566000000E+00 0. -1.
     999900   -1    0    0    0    0 -0.00000000000E+00 -0.00000000000E+00 -0.74505805969E-08  0.93827000000E+00  0.93827000000E+00 0.  1.
     999902    2    1    2    0    0  0.94112401468E-02 -0.15121720869E-01  0.76903196669E-02  0.10245295129E+01  0.10243458127E+01 0.  0.
     999903    2    3    3    0    0 -0.70685219367E-01 -0.11373540870E+00  0.15810710305E-02  0.13538530346E+00  0.19862959978E-01 0.  0.
         14    1    1    2    0    0 -0.94112401468E-02  0.15121720869E-01 -0.76903196669E-02  0.19400487100E-01  0.00000000000E+00 0. -1.
     999901    1    3    3    0    0  0.80096459514E-01  0.98613687832E-01  0.61092486364E-02  0.88914420944E+00  0.88000000000E+00 0. -1.
        -11    1    4    4    0    0 -0.52663965368E-01 -0.73767112212E-01  0.83391042709E-02  0.91021326476E-01  0.51100000000E-03 0.  1.
         11    1    4    4    0    0 -0.18021253999E-01 -0.39968296489E-01 -0.67580332405E-02  0.44363976988E-01  0.51100000000E-03 0. -1.
</event>
<event>
 8    1  0.1066842E+005  0.1043930E+01  0.7957747E-01            NaN
         13   -1    0    0    0    0  0.00000000000E+00  0.00000000000E+00  0.74505805969E-08  0.10566000000E+00  0.10566000000E+00 0.  1.
     999900   -1    0    0    0    0 -0.00000000000E+00 -0.00000000000E+00 -0.74505805969E-08  0.93827000000E+00  0.93827000000E+00 0. -1.
     999902    2    1    2    0    0 -0.99090931661E-02  0.17852354660E-01  0.12411535273E-01  0.10200355885E+01  0.10197556859E+01 0.  0.
     999903    2    3    3    0    0 -0.49134175705E-01  0.88546125921E-01 -0.81184170088E-01  0.13138696700E+00  0.20422585182E-01 0.  0.
         14    1    1    2    0    0  0.99090931661E-02 -0.17852354660E-01 -0.12411535273E-01  0.23894411525E-01  0.00000000000E+00 0.  1.
     999901    1    3    3    0    0  0.39225082539E-01 -0.70693771262E-01  0.93595705362E-01  0.88864862148E+00  0.88000000000E+00 0.  1.
        -11    1    4    4    0    0 -0.43331894657E-01  0.87085935702E-01 -0.75746811349E-01  0.12328606508E+00  0.51100000000E-03 0. -1.
         11    1    4    4    0    0 -0.58022810484E-02  0.14601902198E-02 -0.54373587395E-02  0.81009019192E-02  0.51100000000E-03 0.  1.
</event>
<event>
 8    1  0.1066842E+005  0.1043930E+01  0.7957747E-01            NaN
         13   -1    0    0    0    0  0.00000000000E+00  0.00000000000E+00  0.74505805969E-08  0.10566000000E+00  0.10566000000E+00 0.  1.
     999900   -1    0    0    0    0 -0.00000000000E+00 -0.00000000000E+00 -0.74505805969E-08  0.93827000000E+00  0.93827000000E+00 0. -1.
     999902    2    1    2    0    0 -0.11481134635E-01 -0.18812342492E-01 -0.76228943007E-02  0.10206098542E+01  0.10203433958E+01 0.  0.
     999903    2    3    3    0    0 -0.93618968324E-01  0.84188897009E-01  0.27746115868E-01  0.13010053592E+00  0.17436194873E-01 0.  0.
         14    1    1    2    0    0  0.11481134635E-01  0.18812342492E-01  0.76228943007E-02  0.23320145799E-01  0.00000000000E+00 0.  1.
     999901    1    3    3    0    0  0.82137833689E-01 -0.10300123950E+00 -0.35369010169E-01  0.89050931828E+00  0.88000000000E+00 0.  1.
        -11    1    4    4    0    0 -0.47152824745E-01  0.53611778160E-01  0.13283654766E-01  0.72624570524E-01  0.51100000000E-03 0.  1.
         11    1    4    4    0    0 -0.46466143579E-01  0.30577118850E-01  0.14462461102E-01  0.57475965398E-01  0.51100000000E-03 0. -1.
</event>
<event>
 8    1  0.1066842E+005  0.1043930E+01  0.7957747E-01            NaN
         13   -1    0    0    0    0  0.00000000000E+00  0.00000000000E+00  0.74505805969E-08  0.10566000000E+00  0.10566000000E+00 0. -1.
     999900   -1    0    0    0    0 -0.00000000000E+00 -0.00000000000E+00 -0.74505805969E-08  0.93827000000E+00  0.93827000000E+00 0.  1.
     999902    2    1    2    0    0 -0.96625557832E-02 -0.74662686220E-02 -0.22024884146E-01  0.10187465595E+01  0.10184352443E+01 0.  0.
     999903    2    3    3    0    0  0.27963371883E-01 -0.33903596856E-01 -0.12254744082E+00  0.13183087745E+00  0.20738875331E-01 0.  0.
         14    1    1    2    0    0  0.96625557832E-02  0.74662686220E-02  0.22024884146E-01  0.25183440453E-01  0.00000000000E+00 0. -1.
     999901    1    3    3    0    0 -0.37625927666E-01  0.26437328234E-01  0.10052255667E+00  0.88691568210E+00  0.88000000000E+00 0. -1.
        -11    1    4    4    0    0  0.12949748724E-01 -0.21909984833E-01 -0.42788332662E-01  0.49788010207E-01  0.51100000000E-03 0.  1.
         11    1    4    4    0    0  0.15013623158E-01 -0.11993612023E-01 -0.79759108157E-01  0.82042867239E-01  0.51100000000E-03 0. -1.
</event>
<event>
 8    1  0.1066842E+005  0.1043930E+01  0.7957747E-01            NaN
         13   -1    0    0    0    0  0.00000000000E+00  0.00000000000E+00  0.74505805969E-08  0.10566000000E+00  0.10566000000E+00 0. -1.
     999900   -1    0    0    0    0 -0.00000000000E+00 -0.00000000000E+00 -0.74505805969E-08  0.93827000000E+00  0.93827000000E+00 0.  1.
     999902    2    1    2    0    0 -0.15542490327E-01  0.22375728198E-01  0.83865757436E-02  0.10154242660E+01  0.10150240702E+01 0.  0.
     999903    2    3    3    0    0 -0.91709070100E-01  0.68754857555E-01 -0.54862584734E-01  0.12865889240E+00  0.20135128879E-01 0.  0.
         14    1    1    2    0    0  0.15542490327E-01 -0.22375728198E-01 -0.83865757436E-02  0.28505733996E-01  0.00000000000E+00 0.  1.
     999901    1    3    3    0    0  0.76166579773E-01 -0.46379129357E-01  0.63249160478E-01  0.88676537360E+00  0.88000000000E+00 0. -1.
        -11    1    4    4    0    0 -0.16064309882E-01  0.56434608457E-02 -0.13819215204E-01  0.21934961412E-01  0.51100000000E-03 0.  1.
         11    1    4    4    0    0 -0.75644760218E-01  0.63111396710E-01 -0.41043369530E-01  0.10672393099E+00  0.51100000000E-03 0. -1.
</event>
<event>
 8    1  0.1066842E+005  0.1043930E+01  0.7957747E-01            NaN
         13   -1    0    0    0    0  0.00000000000E+00  0.00000000000E+00  0.74505805969E-08  0.10566000000E+00  0.10566000000E+00 0.  1.
     999900   -1    0    0    0    0 -0.00000000000E+00 -0.00000000000E+00 -0.74505805969E-08  0.93827000000E+00  0.93827000000E+00 0.  1.
     999902    2    1    2    0    0  0.11279331957E-02 -0.32066893877E-02 -0.23187633067E-01  0.10204945265E+01  0.10202253953E+01 0.  0.
     999903    2    3    3    0    0  0.79716044786E-01 -0.88871411763E-01 -0.53226778198E-01  0.13234088768E+00  0.20694081499E-01 0.  0.
         14    1    1    2    0    0 -0.11279331957E-02  0.32066893877E-02  0.23187633067E-01  0.23435473483E-01  0.00000000000E+00 0.  1.
     999901    1    3    3    0    0 -0.78588111590E-01  0.85664722375E-01  0.30039145131E-01  0.88815363884E+00  0.88000000000E+00 0.  1.
        -11    1    4    4    0    0  0.52067659702E-01 -0.55808219816E-01 -0.23076503100E-01  0.79739480197E-01  0.51100000000E-03 0. -1.
         11    1    4    4    0    0  0.27648385084E-01 -0.33063191947E-01 -0.30150275098E-01  0.52601407481E-01  0.51100000000E-03 0.  1.
</event>
<event>
 8    1  0.1066842E+005  0.1043930E+01  0.7957747E-01            NaN
         13   -1    0    0    0    0  0.00000000000E+00  0.00000000000E+00  0.74505805969E-08  0.10566000000E+00  0.10566000000E+00 0.  1.
     999900   -1    0    0    0    0 -0.00000000000E+00 -0.00000000000E+00 -0.74505805969E-08  0.93827000000E+00  0.93827000000E+00 0. -1.
     999902    2    1    2    0    0  0.23762323602E-01 -0.13047652067E-03  0.26872079573E-02  0.10200158591E+01  0.10197354886E+01 0.  0.
     999903    2    3    3    0    0 -0.93579307999E-01  0.55984313109E-01 -0.64009919142E-01  0.12795844232E+00  0.19615376925E-01 0.  0.
         14    1    1    2    0    0 -0.23762323602E-01  0.13047652067E-03 -0.26872079573E-02  0.23914140873E-01  0.00000000000E+00 0. -1.
     999901    1    3    3    0    0  0.11734163160E+00 -0.56114789630E-01  0.66697127099E-01  0.89205741681E+00  0.88000000000E+00 0.  1.
        -11    1    4    4    0    0 -0.35091792715E-01  0.10343266090E-01 -0.22276628770E-01  0.42836040663E-01  0.51100000000E-03 0.  1.
         11    1    4    4    0    0 -0.58487515284E-01  0.45641047019E-01 -0.41733290372E-01  0.85122401654E-01  0.51100000000E-03 0. -1.
</event>
<event>
 8    1  0.1066842E+005  0.1043930E+01  0.7957747E-01            NaN
         13   -1    0    0    0    0  0.00000000000E+00  0.00000000000E+00  0.74505805969E-08  0.10566000000E+00  0.10566000000E+00 0.  1.
     999900   -1    0    0    0    0 -0.00000000000E+00 -0.00000000000E+00 -0.74505805969E-08  0.93827000000E+00  0.93827000000E+00 0. -1.
     999902    2    1    2    0    0 -0.21841974275E-01  0.74962383476E-02 -0.43290434860E-02  0.10204351911E+01  0.10201646794E+01 0.  0.
     999903    2    3    3    0    0  0.86928620750E-01 -0.46234029526E-01 -0.80609792455E-01  0.12884294306E+00  0.20208778923E-01 0.  0.
         14    1    1    2    0    0  0.21841974275E-01 -0.74962383476E-02  0.43290434860E-02  0.23494808939E-01  0.00000000000E+00 0.  1.
     999901    1    3    3    0    0 -0.10877059503E+00  0.53730267873E-01  0.76280748969E-01  0.89159224800E+00  0.88000000000E+00 0.  1.
        -11    1    4    4    0    0  0.27817887465E-01 -0.18086257938E-01 -0.15930878755E-01  0.36810346482E-01  0.51100000000E-03 0.  1.
         11    1    4    4    0    0  0.59110733285E-01 -0.28147771588E-01 -0.64678913700E-01  0.92032596580E-01  0.51100000000E-03 0. -1.
</event>
<event>
 8    1  0.1240466E+005  0.1043930E+01  0.7957747E-01            NaN
         13   -1    0    0    0    0  0.00000000000E+00  0.00000000000E+00  0.74505805969E-08  0.10566000000E+00  0.10566000000E+00 0.  1.
     999900   -1    0    0    0    0 -0.00000000000E+00 -0.00000000000E+00 -0.74505805969E-08  0.93827000000E+00  0.93827000000E+00 0. -1.
     999902    2    1    2    0    0 -0.23055105003E-01 -0.20395329600E-01  0.15271681550E-02  0.10131105325E+01  0.10126416501E+01 0.  0.
     999903    2    3    3    0    0  0.10578086314E-01 -0.25724107002E-02  0.12215588348E+00  0.12406602574E+00  0.18756483339E-01 0.  0.
         14    1    1    2    0    0  0.23055105003E-01  0.20395329600E-01 -0.15271681550E-02  0.30819467529E-01  0.00000000000E+00 0. -1.
     999901    1    3    3    0    0 -0.33633191317E-01 -0.17822918900E-01 -0.12062871532E+00  0.88904450674E+00  0.88000000000E+00 0. -1.
        -11    1    4    4    0    0 -0.43318182161E-02 -0.32108108590E-02  0.55209687713E-01  0.55474721214E-01  0.51100000000E-03 0. -1.
         11    1    4    4    0    0  0.14909904530E-01  0.63840015874E-03  0.66946195763E-01  0.68591304521E-01  0.51100000000E-03 0.  1.
</event>
<event>
 8    1  0.1066842E+005  0.1043930E+01  0.7957747E-01            NaN
         13   -1    0    0    0    0  0.00000000000E+00  0.00000000000E+00  0.74505805969E-08  0.10566000000E+00  0.10566000000E+00 0. -1.
     999900   -1    0    0    0    0 -0.00000000000E+00 -0.00000000000E+00 -0.74505805969E-08  0.93827000000E+00  0.93827000000E+00 0. -1.
     999902    2    1    2    0    0 -0.27560246421E-02 -0.20272827989E-01 -0.11621173858E-01  0.10204005523E+01  0.10201292331E+01 0.  0.
     999903    2    3    3    0    0  0.10716357679E+00 -0.38542052572E-01 -0.63199452070E-01  0.13187570622E+00  0.20676294218E-01 0.  0.
         14    1    1    2    0    0  0.27560246421E-02  0.20272827989E-01  0.11621173858E-01  0.23529447684E-01  0.00000000000E+00 0.  1.
     999901    1    3    3    0    0 -0.10991960143E+00  0.18269224583E-01  0.51578278213E-01  0.88852484610E+00  0.88000000000E+00 0. -1.
        -11    1    4    4    0    0  0.73495489994E-01 -0.20356765301E-01 -0.50855371408E-01  0.91665232586E-01  0.51100000000E-03 0. -1.
         11    1    4    4    0    0  0.33668086795E-01 -0.18185287270E-01 -0.12344080662E-01  0.40210473635E-01  0.51100000000E-03 0.  1.
</event>
<event>
 8    1  0.1066842E+005  0.1043930E+01  0.7957747E-01            NaN
         13   -1    0    0    0    0  0.00000000000E+00  0.00000000000E+00  0.74505805969E-08  0.10566000000E+00  0.10566000000E+00 0. -1.
     999900   -1    0    0    0    0 -0.00000000000E+00 -0.00000000000E+00 -0.74505805969E-08  0.93827000000E+00  0.93827000000E+00 0.  1.
     999902    2    1    2    0    0  0.84250324831E-02 -0.21425332028E-01  0.39290565758E-02  0.10205748397E+01  0.10203075713E+01 0.  0.
     999903    2    3    3    0    0  0.79709443934E-01  0.43469717085E-01 -0.89534393256E-01  0.13039044808E+00  0.27240587714E-01 0.  0.
         14    1    1    2    0    0 -0.84250324831E-02  0.21425332028E-01 -0.39290565758E-02  0.23355160252E-01  0.00000000000E+00 0.  1.
     999901    1    3    3    0    0 -0.71284411451E-01 -0.64895049113E-01  0.93463449831E-01  0.89018439167E+00  0.88000000000E+00 0.  1.
        -11    1    4    4    0    0  0.25532932975E-01  0.25479353236E-01 -0.23281652142E-01  0.42935120299E-01  0.51100000000E-03 0.  1.
         11    1    4    4    0    0  0.54176510959E-01  0.17990363849E-01 -0.66252741114E-01  0.87455327781E-01  0.51100000000E-03 0. -1.
</event>
<event>
 8    1  0.1066842E+005  0.1043930E+01  0.7957747E-01            NaN
         13   -1    0    0    0    0  0.00000000000E+00  0.00000000000E+00  0.74505805969E-08  0.10566000000E+00  0.10566000000E+00 0. -1.
     999900   -1    0    0    0    0 -0.00000000000E+00 -0.00000000000E+00 -0.74505805969E-08  0.93827000000E+00  0.93827000000E+00 0. -1.
     999902    2    1    2    0    0  0.66380583007E-02 -0.67620429570E-02 -0.21499816738E-01  0.10204346566E+01  0.10201641325E+01 0.  0.
     999903    2    3    3    0    0 -0.19956460669E-01  0.11562262202E+00  0.49164353339E-01  0.12876280012E+00  0.19896582854E-01 0.  0.
         14    1    1    2    0    0 -0.66380583007E-02  0.67620429570E-02  0.21499816738E-01  0.23495343427E-01  0.00000000000E+00 0. -1.
     999901    1    3    3    0    0  0.26594518970E-01 -0.12238466498E+00 -0.70664170077E-01  0.89167185646E+00  0.88000000000E+00 0. -1.
        -11    1    4    4    0    0 -0.16988986073E-01  0.66642989692E-01  0.19773468551E-01  0.71562314821E-01  0.51100000000E-03 0. -1.
         11    1    4    4    0    0 -0.29674745957E-02  0.48979632330E-01  0.29390884788E-01  0.57200485298E-01  0.51100000000E-03 0.  1.
</event>
<event>
 8    1  0.1066842E+005  0.1043930E+01  0.7957747E-01            NaN
         13   -1    0    0    0    0  0.00000000000E+00  0.00000000000E+00  0.74505805969E-08  0.10566000000E+00  0.10566000000E+00 0.  1.
     999900   -1    0    0    0    0 -0.00000000000E+00 -0.00000000000E+00 -0.74505805969E-08  0.93827000000E+00  0.93827000000E+00 0. -1.
     999902    2    1    2    0    0  0.13184442066E-01 -0.18516871044E-01  0.42618744017E-02  0.10208027953E+01  0.10205407778E+01 0.  0.
     999903    2    3    3    0    0  0.56419571187E-01  0.82711561080E-01  0.81509106806E-01  0.13058731192E+00  0.19619918259E-01 0.  0.
         14    1    1    2    0    0 -0.13184442066E-01  0.18516871044E-01 -0.42618744017E-02  0.23127204744E-01  0.00000000000E+00 0.  1.
     999901    1    3    3    0    0 -0.43235129120E-01 -0.10122843212E+00 -0.77247232404E-01  0.89021548334E+00  0.88000000000E+00 0.  1.
        -11    1    4    4    0    0  0.81580665718E-02  0.15213990322E-01  0.24247251507E-01  0.29769277424E-01  0.51100000000E-03 0.  1.
         11    1    4    4    0    0  0.48261504615E-01  0.67497570758E-01  0.57261855299E-01  0.10081803449E+00  0.51100000000E-03 0. -1.
</event>
<event>
 8    1  0.1066842E+005  0.1043930E+01  0.7957747E-01            NaN
         13   -1    0    0    0    0  0.00000000000E+00  0.00000000000E+00  0.74505805969E-08  0.10566000000E+00  0.10566000000E+00 0.  1.
     999900   -1    0    0    0    0 -0.00000000000E+00 -0.00000000000E+00 -0.74505805969E-08  0.93827000000E+00  0.93827000000E+00 0.  1.
     999902    2    1    2    0    0  0.22701682007E-02  0.17147179089E-01 -0.20726128978E-01  0.10169345960E+01  0.10165762247E+01 0.  0.
     999903    2    3    3    0    0 -0.21852654471E-01  0.11923896513E+00  0.39330760051E-01  0.12867141807E+00  0.17718798772E-01 0.  0.
         14    1    1    2    0    0 -0.22701682007E-02 -0.17147179089E-01  0.20726128978E-01  0.26995403993E-01  0.00000000000E+00 0.  1.
     999901    1    3    3    0    0  0.24122822672E-01 -0.10209178604E+00 -0.60056889028E-01  0.88826317793E+00  0.88000000000E+00 0. -1.
        -11    1    4    4    0    0 -0.28794361057E-02  0.64640343838E-01  0.21216764505E-01  0.68096089615E-01  0.51100000000E-03 0.  1.
         11    1    4    4    0    0 -0.18973218365E-01  0.54598621293E-01  0.18113995546E-01  0.60575328459E-01  0.51100000000E-03 0. -1.
</event>
<event>
 8    1  0.1066842E+005  0.1043930E+01  0.7957747E-01            NaN
         13   -1    0    0    0    0  0.00000000000E+00  0.00000000000E+00  0.74505805969E-08  0.10566000000E+00  0.10566000000E+00 0. -1.
     999900   -1    0    0    0    0 -0.00000000000E+00 -0.00000000000E+00 -0.74505805969E-08  0.93827000000E+00  0.93827000000E+00 0. -1.
     999902    2    1    2    0    0 -0.12428717943E-01 -0.66843700820E-02 -0.23203998110E-01  0.10167715876E+01  0.10164088164E+01 0.  0.
     999903    2    3    3    0    0 -0.12175170707E+00  0.25557909565E-01 -0.29119983861E-01  0.12940127068E+00  0.20494645078E-01 0.  0.
         14    1    1    2    0    0  0.12428717943E-01  0.66843700820E-02  0.23203998110E-01  0.27158412350E-01  0.00000000000E+00 0. -1.
     999901    1    3    3    0    0  0.10932298913E+00 -0.32242279647E-01  0.59159857516E-02  0.88737031697E+00  0.88000000000E+00 0. -1.
        -11    1    4    4    0    0 -0.86096420113E-01  0.25510394984E-01 -0.14967949682E-01  0.91036665400E-01  0.51100000000E-03 0. -1.
         11    1    4    4    0    0 -0.35655286961E-01  0.47514581590E-04 -0.14152034180E-01  0.38364605281E-01  0.51100000000E-03 0.  1.
</event>
<event>
 8    1  0.1066842E+005  0.1043930E+01  0.7957747E-01            NaN
         13   -1    0    0    0    0  0.00000000000E+00  0.00000000000E+00  0.74505805969E-08  0.10566000000E+00  0.10566000000E+00 0. -1.
     999900   -1    0    0    0    0 -0.00000000000E+00 -0.00000000000E+00 -0.74505805969E-08  0.93827000000E+00  0.93827000000E+00 0.  1.
     999902    2    1    2    0    0  0.37631423732E-02  0.99316739948E-02  0.21501396098E-01  0.10199485609E+01  0.10196665913E+01 0.  0.
     999903    2    3    3    0    0 -0.55956119149E-01 -0.10458934729E+00 -0.44718676583E-01  0.12805924456E+00  0.18149138970E-01 0.  0.
         14    1    1    2    0    0 -0.37631423732E-02 -0.99316739948E-02 -0.21501396098E-01  0.23981439136E-01  0.00000000000E+00 0.  1.
     999901    1    3    3    0    0  0.59719261522E-01  0.11452102128E+00  0.66220072681E-01  0.89188931630E+00  0.88000000000E+00 0. -1.
        -11    1    4    4    0    0 -0.14998617070E-01 -0.34033347244E-01 -0.22627964419E-01  0.43537491124E-01  0.51100000000E-03 0.  1.
         11    1    4    4    0    0 -0.40957502079E-01 -0.70556000045E-01 -0.22090712163E-01  0.84521753435E-01  0.51100000000E-03 0. -1.
</event>
<event>
 8    1  0.1066842E+005  0.1043930E+01  0.7957747E-01            NaN
         13   -1    0    0    0    0  0.00000000000E+00  0.00000000000E+00  0.74505805969E-08  0.10566000000E+00  0.10566000000E+00 0.  1.
     999900   -1    0    0    0    0 -0.00000000000E+00 -0.00000000000E+00 -0.74505805969E-08  0.93827000000E+00  0.93827000000E+00 0. -1.
     999902    2    1    2    0    0 -0.33322909102E-04 -0.16607983466E-01  0.16890479528E-01  0.10202421440E+01  0.10199671160E+01 0.  0.
     999903    2    3    3    0    0  0.56622668954E-01 -0.67741621826E-01  0.97699682573E-01  0.13325021745E+00  0.20379855482E-01 0.  0.
         14    1    1    2    0    0  0.33322909102E-04  0.16607983466E-01 -0.16890479528E-01  0.23687856043E-01  0.00000000000E+00 0. -1.
     999901    1    3    3    0    0 -0.56655991864E-01  0.51133638360E-01 -0.80809203044E-01  0.88699192650E+00  0.88000000000E+00 0. -1.
        -11    1    4    4    0    0  0.17297766792E-01 -0.30439858918E-01  0.50031221164E-01  0.61067028412E-01  0.51100000000E-03 0. -1.
         11    1    4    4    0    0  0.39324902162E-01 -0.37301762908E-01  0.47668461409E-01  0.72183189042E-01  0.51100000000E-03 0.  1.
</event>
<event>
 8    1  0.1066842E+005  0.1043930E+01  0.7957747E-01            NaN
         13   -1    0    0    0    0  0.00000000000E+00  0.00000000000E+00  0.74505805969E-08  0.10566000000E+00  0.10566000000E+00 0. -1.
     999900   -1    0    0    0    0 -0.00000000000E+00 -0.00000000000E+00 -0.74505805969E-08  0.93827000000E+00  0.93827000000E+00 0.  1.
     999902    2    1    2    0    0 -0.49000511102E-02 -0.19040995479E-01  0.15753520073E-01  0.10187358855E+01  0.10184243031E+01 0.  0.
     999903    2    3    3    0    0 -0.58450630606E-01 -0.10662725826E+00  0.48010005119E-01  0.13218103735E+00  0.19519672649E-01 0.  0.
         14    1    1    2    0    0  0.49000511102E-02  0.19040995479E-01 -0.15753520073E-01  0.25194114479E-01  0.00000000000E+00 0.  1.
     999901    1    3    3    0    0  0.53550579496E-01  0.87586262781E-01 -0.32256485047E-01  0.88655484817E+00  0.88000000000E+00 0.  1.
        -11    1    4    4    0    0 -0.53194049625E-01 -0.80920853935E-01  0.39585564306E-01  0.10461868638E+00  0.51100000000E-03 0. -1.
         11    1    4    4    0    0 -0.52565809817E-02 -0.25706404325E-01  0.84244408129E-02  0.27562350969E-01  0.51100000000E-03 0.  1.
</event>
<event>
 8    1  0.1066842E+005  0.1043930E+01  0.7957747E-01            NaN
         13   -1    0    0    0    0  0.00000000000E+00  0.00000000000E+00  0.74505805969E-08  0.10566000000E+00  0.10566000000E+00 0.  1.
     999900   -1    0    0    0    0 -0.00000000000E+00 -0.00000000000E+00 -0.74505805969E-08  0.93827000000E+00  0.93827000000E+00 0. -1.
     999902    2    1    2    0    0  0.27322641575E-02  0.17128952489E-01 -0.17471795979E-01  0.10193102938E+01  0.10190129268E+01 0.  0.
     999903    2    3    3    0    0  0.43326449375E-01 -0.33074173784E-01 -0.11771026718E+00  0.13126975816E+00  0.20123623437E-01 0.  0.
         14    1    1    2    0    0 -0.27322641575E-02 -0.17128952489E-01  0.17471795979E-01  0.24619706243E-01  0.00000000000E+00 0.  1.
     999901    1    3    3    0    0 -0.40594185218E-01  0.50203126273E-01  0.10023847120E+00  0.88804053560E+00  0.88000000000E+00 0.  1.
        -11    1    4    4    0    0  0.18869962886E-01 -0.24039433017E-01 -0.48701915102E-01  0.57498760810E-01  0.51100000000E-03 0.  1.
         11    1    4    4    0    0  0.24456486490E-01 -0.90347407669E-02 -0.69008352077E-01  0.73770997346E-01  0.51100000000E-03 0. -1.
</event>
<event>
 8    1  0.1072080E+005  0.1043930E+01  0.7957747E-01            NaN
         13   -1    0    0    0    0  0.00000000000E+00  0.00000000000E+00  0.74505805969E-08  0.10566000000E+00  0.10566000000E+00 0.  1.
     999900   -1    0    0    0    0 -0.00000000000E+00 -0.00000000000E+00 -0.74505805969E-08  0.93827000000E+00  0.93827000000E+00 0.  1.
     999902    2    1    2    0    0  0.13823823499E-01 -0.15429686478E-01 -0.38684978095E-02  0.10228554040E+01  0.10226382737E+01 0.  0.
     999903    2    3    3    0    0  0.42048947733E-01  0.56346500653E-01  0.11010464977E+00  0.13215996950E+00  0.20004536891E-01 0.  0.
         14    1    1    2    0    0 -0.13823823499E-01  0.15429686478E-01  0.38684978095E-02  0.21074595992E-01  0.00000000000E+00 0.  1.
     999901    1    3    3    0    0 -0.28225124234E-01 -0.71776187130E-01 -0.11397314758E+00  0.89069543450E+00  0.88000000000E+00 0. -1.
        -11    1    4    4    0    0  0.18594823346E-01  0.21331054121E-01  0.62304673356E-01  0.68431825696E-01  0.51100000000E-03 0. -1.
         11    1    4    4    0    0  0.23454124387E-01  0.35015446532E-01  0.47799976417E-01  0.63728143807E-01  0.51100000000E-03 0.  1.
</event>
<event>
 7    1  0.1066842E+005  0.1043930E+01  0.7957747E-01            NaN
         13   -1    0    0    0    0  0.00000000000E+00  0.00000000000E+00  0.74505805969E-08  0.10566000000E+00  0.10566000000E+00 0. -1.
     999900   -1    0    0    0    0 -0.00000000000E+00 -0.00000000000E+00 -0.74505805969E-08  0.93827000000E+00  0.93827000000E+00 0.  1.
     999903    2    1    2    0    0 -0.66489998447E-01 -0.80229150893E-01 -0.48706887293E-01  0.11704074270E+00  0.21645739426E-01 0.  0.
         14    1    1    2    0    0  0.15617126811E-01  0.26618228084E-01 -0.26386989957E-01  0.40604161796E-01  0.00000000000E+00 0. -1.
     999901    1    1    2    0    0  0.50872871636E-01  0.53610922809E-01  0.75093877250E-01  0.88628509550E+00  0.88000000000E+00 0. -1.
        -11    1    3    3    0    0 -0.63647614209E-02 -0.75383811163E-02  0.17897082739E-02  0.10039997734E-01  0.51100000000E-03 0. -1.
         11    1    3    3    0    0 -0.60125237026E-01 -0.72690769777E-01 -0.50496595567E-01  0.10700074497E+00  0.51100000000E-03 0.  1.
</event>
<event>
 8    1  0.1066842E+005  0.1043930E+01  0.7957747E-01            NaN
         13   -1    0    0    0    0  0.00000000000E+00  0.00000000000E+00  0.74505805969E-08  0.10566000000E+00  0.10566000000E+00 0. -1.
     999900   -1    0    0    0    0 -0.00000000000E+00 -0.00000000000E+00 -0.74505805969E-08  0.93827000000E+00  0.93827000000E+00 0. -1.
     999902    2    1    2    0    0  0.11415932247E-02 -0.17586926381E-01 -0.16825406569E-01  0.10195640910E+01  0.10192728968E+01 0.  0.
     999903    2    3    3    0    0 -0.86453006492E-01 -0.96439267301E-01 -0.16164899397E-01  0.13170659015E+00  0.17625756921E-01 0.  0.
         14    1    1    2    0    0 -0.11415932247E-02  0.17586926381E-01  0.16825406569E-01  0.24365908989E-01  0.00000000000E+00 0. -1.
     999901    1    3    3    0    0  0.87594599717E-01  0.78852340919E-01 -0.66050717276E-03  0.88785750086E+00  0.88000000000E+00 0. -1.
        -11    1    4    4    0    0 -0.67437903320E-01 -0.84499489157E-01 -0.15672411012E-01  0.10924248285E+00  0.51100000000E-03 0. -1.
         11    1    4    4    0    0 -0.19015103172E-01 -0.11939778144E-01 -0.49248838512E-03  0.22464107296E-01  0.51100000000E-03 0.  1.
</event>
<event>
 8    1  0.1066842E+005  0.1043930E+01  0.7957747E-01            NaN
         13   -1    0    0    0    0  0.00000000000E+00  0.00000000000E+00  0.74505805969E-08  0.10566000000E+00  0.10566000000E+00 0.  1.
     999900   -1    0    0    0    0 -0.00000000000E+00 -0.00000000000E+00 -0.74505805969E-08  0.93827000000E+00  0.93827000000E+00 0. -1.
     999902    2    1    2    0    0  0.10461873167E-01  0.11156290682E-01  0.19021786524E-01  0.10195221739E+01  0.10192299648E+01 0.  0.
     999903    2    3    3    0    0 -0.63151788156E-01  0.11202692014E+00  0.11397837273E-01  0.13067349184E+00  0.20185925540E-01 0.  0.
         14    1    1    2    0    0 -0.10461873167E-01 -0.11156290682E-01 -0.19021786524E-01  0.24407826092E-01  0.00000000000E+00 0. -1.
     999901    1    3    3    0    0  0.73613661323E-01 -0.10087062946E+00  0.76239492515E-02  0.88884868207E+00  0.88000000000E+00 0.  1.
        -11    1    4    4    0    0 -0.21663923278E-01  0.29670381302E-01  0.11354699531E-01  0.38455785271E-01  0.51100000000E-03 0.  1.
         11    1    4    4    0    0 -0.41487864878E-01  0.82356538841E-01  0.43137741173E-04  0.92217706564E-01  0.51100000000E-03 0. -1.
</event>
<event>
 8    1  0.1066842E+005  0.1043930E+01  0.7957747E-01            NaN
         13   -1    0    0    0    0  0.00000000000E+00  0.00000000000E+00  0.74505805969E-08  0.10566000000E+00  0.10566000000E+00 0. -1.
     999900   -1    0    0    0    0 -0.00000000000E+00 -0.00000000000E+00 -0.74505805969E-08  0.93827000000E+00  0.93827000000E+00 0.  1.
     999902    2    1    2    0    0  0.10511700930E-01  0.18026477320E-01  0.11949116840E-01  0.10198835630E+01  0.10196000446E+01 0.  0.
     999903    2    3    3    0    0  0.62670576776E-01 -0.49064891136E-01  0.10239732897E+00  0.13117512982E+00  0.19665629099E-01 0.  0.
         14    1    1    2    0    0 -0.10511700930E-01 -0.18026477320E-01 -0.11949116840E-01  0.24046437038E-01  0.00000000000E+00 0.  1.
     999901    1    3    3    0    0 -0.52158875846E-01  0.67091368456E-01 -0.90448212135E-01  0.88870843314E+00  0.88000000000E+00 0.  1.
        -11    1    4    4    0    0  0.50299244190E-02 -0.13075910961E-01  0.16695478592E-01  0.21800910842E-01  0.51100000000E-03 0.  1.
         11    1    4    4    0    0  0.57640652357E-01 -0.35988980176E-01  0.85701850382E-01  0.10937421898E+00  0.51100000000E-03 0. -1.
</event>
<event>
 8    1  0.1066842E+005  0.1043930E+01  0.7957747E-01            NaN
         13   -1    0    0    0    0  0.00000000000E+00  0.00000000000E+00  0.74505805969E-08  0.10566000000E+00  0.10566000000E+00 0. -1.
     999900   -1    0    0    0    0 -0.00000000000E+00 -0.00000000000E+00 -0.74505805969E-08  0.93827000000E+00  0.93827000000E+00 0.  1.
     999902    2    1    2    0    0  0.55552207289E-02 -0.10356537511E-01  0.21456895785E-01  0.10194653986E+01  0.10191718119E+01 0.  0.
     999903    2    3    3    0    0 -0.83463094513E-01 -0.80026810243E-02  0.99286747099E-01  0.13155364234E+00  0.20454134404E-01 0.  0.
         14    1    1    2    0    0 -0.55552207289E-02  0.10356537511E-01 -0.21456895785E-01  0.24464601433E-01  0.00000000000E+00 0.  1.
     999901    1    3    3    0    0  0.89018315242E-01 -0.23538564865E-02 -0.77829851314E-01  0.88791175623E+00  0.88000000000E+00 0.  1.
        -11    1    4    4    0    0 -0.82578518850E-01 -0.49575002054E-02  0.92843535940E-01  0.12435421935E+00  0.51100000000E-03 0.  1.
         11    1    4    4    0    0 -0.88457566284E-03 -0.30451808189E-02  0.64432111599E-02  0.71994229889E-02  0.51100000000E-03 0. -1.
</event>
<event>
 8    1  0.1066842E+005  0.1043930E+01  0.7957747E-01            NaN
         13   -1    0    0    0    0  0.00000000000E+00  0.00000000000E+00  0.74505805969E-08  0.10566000000E+00  0.10566000000E+00 0. -1.
     999900   -1    0    0    0    0 -0.00000000000E+00 -0.00000000000E+00 -0.74505805969E-08  0.93827000000E+00  0.93827000000E+00 0. -1.
     999902    2    1    2    0    0 -0.78094518137E-02  0.17981660376E-01  0.11308617427E-01  0.10212978884E+01  0.10210470921E+01 0.  0.
     999903    2    3    3    0    0  0.11031275401E+00 -0.64066397135E-01  0.10376302306E-01  0.12962215784E+00  0.20514122346E-01 0.  0.
         14    1    1    2    0    0  0.78094518137E-02 -0.17981660376E-01 -0.11308617427E-01  0.22632111603E-01  0.00000000000E+00 0. -1.
     999901    1    3    3    0    0 -0.11812220582E+00  0.82048057511E-01  0.93231512126E-03  0.89167573055E+00  0.88000000000E+00 0. -1.
        -11    1    4    4    0    0  0.66866036774E-01 -0.37869921195E-01  0.16253317500E-01  0.78546987567E-01  0.51100000000E-03 0. -1.
         11    1    4    4    0    0  0.43446717233E-01 -0.26196475940E-01 -0.58770151936E-02  0.51075170274E-01  0.51100000000E-03 0.  1.
</event>
<event>
 8    1  0.1066842E+005  0.1043930E+01  0.7957747E-01            NaN
         13   -1    0    0    0    0  0.00000000000E+00  0.00000000000E+00  0.74505805969E-08  0.10566000000E+00  0.10566000000E+00 0.  1.
     999900   -1    0    0    0    0 -0.00000000000E+00 -0.00000000000E+00 -0.74505805969E-08  0.93827000000E+00  0.93827000000E+00 0. -1.
     999902    2    1    2    0    0  0.23810280874E-01 -0.51295480466E-02  0.25700558110E-02  0.10194382274E+01  0.10191439803E+01 0.  0.
     999903    2    3    3    0    0  0.44553673176E-01 -0.10609554219E+00  0.60477470555E-01  0.13153187592E+00  0.20045350395E-01 0.  0.
         14    1    1    2    0    0 -0.23810280874E-01  0.51295480466E-02 -0.25700558110E-02  0.24491772605E-01  0.00000000000E+00 0. -1.
     999901    1    3    3    0    0 -0.20743392302E-01  0.10096599415E+00 -0.57907414744E-01  0.88790635147E+00  0.88000000000E+00 0. -1.
        -11    1    4    4    0    0  0.43198265915E-01 -0.10657018851E+00  0.60632938416E-01  0.12999965230E+00  0.51100000000E-03 0.  1.
         11    1    4    4    0    0  0.13554072609E-02  0.47464631555E-03 -0.15546786107E-03  0.15322236206E-02  0.51100000000E-03 0. -1.
</event>
<event>
 8    1  0.1066842E+005  0.1043930E+01  0.7957747E-01            NaN
         13   -1    0    0    0    0  0.00000000000E+00  0.00000000000E+00  0.74505805969E-08  0.10566000000E+00  0.10566000000E+00 0.  1.
     999900   -1    0    0    0    0 -0.00000000000E+00 -0.00000000000E+00 -0.74505805969E-08  0.93827000000E+00  0.93827000000E+00 0. -1.
     999902    2    1    2    0    0 -0.16202098141E-01 -0.21204483085E-02 -0.17308850545E-01  0.10201266264E+01  0.10198488777E+01 0.  0.
     999903    2    3    3    0    0 -0.69891982930E-01 -0.94448107559E-01  0.54975142181E-01  0.13072684233E+00  0.16183533230E-01 0.  0.
         14    1    1    2    0    0  0.16202098141E-01  0.21204483085E-02  0.17308850545E-01  0.23803373550E-01  0.00000000000E+00 0.  1.
     999901    1    3    3    0    0  0.53689884789E-01  0.92327659251E-01 -0.72283992726E-01  0.88939978412E+00  0.88000000000E+00 0. -1.
        -11    1    4    4    0    0 -0.31130875227E-01 -0.50570586839E-01  0.34619767537E-01  0.68740854453E-01  0.51100000000E-03 0. -1.
         11    1    4    4    0    0 -0.38761107703E-01 -0.43877520720E-01  0.20355374645E-01  0.61985987875E-01  0.51100000000E-03 0.  1.
</event>
<event>
 8    1  0.1066842E+005  0.1043930E+01  0.7957747E-01            NaN
         13   -1    0    0    0    0  0.00000000000E+00  0.00000000000E+00  0.74505805969E-08  0.10566000000E+00  0.10566000000E+00 0.  1.
     999900   -1    0    0    0    0 -0.00000000000E+00 -0.00000000000E+00 -0.74505805969E-08  0.93827000000E+00  0.93827000000E+00 0. -1.
     999902    2    1    2    0    0  0.43658480135E-03  0.38982954203E-02  0.23528978120E-01  0.10200762765E+01  0.10197973376E+01 0.  0.
     999903    2    3    3    0    0 -0.27567879744E-01 -0.12351055760E+00  0.22579572901E-01  0.13045941108E+00  0.22248033531E-01 0.  0.
         14    1    1    2    0    0 -0.43658480135E-03 -0.38982954203E-02 -0.23528978120E-01  0.23853723501E-01  0.00000000000E+00 0. -1.
     999901    1    3    3    0    0  0.28004464545E-01  0.12740885302E+00  0.94940521900E-03  0.88961686542E+00  0.88000000000E+00 0. -1.
        -11    1    4    4    0    0 -0.30712777416E-01 -0.99972869092E-01  0.20855569116E-01  0.10664457387E+00  0.51100000000E-03 0.  1.
         11    1    4    4    0    0  0.31448976726E-02 -0.23537688507E-01  0.17240037848E-02  0.23814837217E-01  0.51100000000E-03 0. -1.
</event>
<event>
 8    1  0.1066842E+005  0.1043930E+01  0.7957747E-01            NaN
         13   -1    0    0    0    0  0.00000000000E+00  0.00000000000E+00  0.74505805969E-08  0.10566000000E+00  0.10566000000E+00 0.  1.
     999900   -1    0    0    0    0 -0.00000000000E+00 -0.00000000000E+00 -0.74505805969E-08  0.93827000000E+00  0.93827000000E+00 0. -1.
     999902    2    1    2    0    0 -0.20361886853E-01 -0.15587591206E-01  0.63268436209E-02  0.10175177228E+01  0.10171748659E+01 0.  0.
     999903    2    3    3    0    0  0.12401146949E+00 -0.23175577706E-02  0.28696895184E-02  0.12564793875E+00  0.19873443498E-01 0.  0.
         14    1    1    2    0    0  0.20361886853E-01  0.15587591206E-01 -0.63268436209E-02  0.26412277184E-01  0.00000000000E+00 0. -1.
     999901    1    3    3    0    0 -0.14437335634E+00 -0.13270033436E-01  0.34571541025E-02  0.89186978406E+00  0.88000000000E+00 0. -1.
        -11    1    4    4    0    0  0.46710048327E-01  0.78128889084E-02 -0.30474467055E-02  0.47459644965E-01  0.51100000000E-03 0.  1.
         11    1    4    4    0    0  0.77301421162E-01 -0.10130446679E-01  0.59171362239E-02  0.78188293789E-01  0.51100000000E-03 0. -1.
</event>
<event>
 8    1  0.1066842E+005  0.1043930E+01  0.7957747E-01            NaN
         13   -1    0    0    0    0  0.00000000000E+00  0.00000000000E+00  0.74505805969E-08  0.10566000000E+00  0.10566000000E+00 0.  1.
     999900   -1    0    0    0    0 -0.00000000000E+00 -0.00000000000E+00 -0.74505805969E-08  0.93827000000E+00  0.93827000000E+00 0. -1.
     999902    2    1    2    0    0 -0.19105167581E-01 -0.10332436248E-01  0.10043539184E-01  0.10200001160E+01  0.10197193719E+01 0.  0.
     999903    2    3    3    0    0 -0.89396386009E-01 -0.65568071673E-01 -0.68748245563E-01  0.13196859849E+00  0.19962561606E-01 0.  0.
         14    1    1    2    0    0  0.19105167581E-01  0.10332436248E-01 -0.10043539184E-01  0.23929883962E-01  0.00000000000E+00 0. -1.
     999901    1    3    3    0    0  0.70291218428E-01  0.55235635425E-01  0.78791784747E-01  0.88803151754E+00  0.88000000000E+00 0.  1.
        -11    1    4    4    0    0 -0.32903325800E-01 -0.35660394324E-01 -0.25789131984E-01  0.54951187626E-01  0.51100000000E-03 0. -1.
         11    1    4    4    0    0 -0.56493060208E-01 -0.29907677350E-01 -0.42959113579E-01  0.77017410867E-01  0.51100000000E-03 0.  1.
</event>
<event>
 8    1  0.1066842E+005  0.1043930E+01  0.7957747E-01            NaN
         13   -1    0    0    0    0  0.00000000000E+00  0.00000000000E+00  0.74505805969E-08  0.10566000000E+00  0.10566000000E+00 0. -1.
     999900   -1    0    0    0    0 -0.00000000000E+00 -0.00000000000E+00 -0.74505805969E-08  0.93827000000E+00  0.93827000000E+00 0.  1.
     999902    2    1    2    0    0  0.19139585614E-01 -0.13155825553E-01 -0.52772664846E-02  0.10201130097E+01  0.10198349394E+01 0.  0.
     999903    2    3    3    0    0 -0.11976897578E+00 -0.38775320210E-01 -0.16535398463E-01  0.12877766742E+00  0.21497330243E-01 0.  0.
         14    1    1    2    0    0 -0.19139585614E-01  0.13155825553E-01  0.52772664846E-02  0.23816990259E-01  0.00000000000E+00 0.  1.
     999901    1    3    3    0    0  0.13890856139E+00  0.25619494657E-01  0.11258131979E-01  0.89133534232E+00  0.88000000000E+00 0.  1.
        -11    1    4    4    0    0 -0.35882839745E-01 -0.11765211676E-01 -0.14999344677E-01  0.40635450726E-01  0.51100000000E-03 0. -1.
         11    1    4    4    0    0 -0.83886136033E-01 -0.27010108534E-01 -0.15360537860E-02  0.88142216695E-01  0.51100000000E-03 0.  1.
</event>
<event>
 8    1  0.1066842E+005  0.1043930E+01  0.7957747E-01            NaN
         13   -1    0    0    0    0  0.00000000000E+00  0.00000000000E+00  0.74505805969E-08  0.10566000000E+00  0.10566000000E+00 0.  1.
     999900   -1    0    0    0    0 -0.00000000000E+00 -0.00000000000E+00 -0.74505805969E-08  0.93827000000E+00  0.93827000000E+00 0.  1.
     999902    2    1    2    0    0  0.87887410163E-02  0.12669589396E-01  0.18992588704E-01  0.10194661718E+01  0.10191726039E+01 0.  0.
     999903    2    3    3    0    0 -0.12281051015E+00  0.30601047600E-01  0.19353794703E-01  0.12949986314E+00  0.19411328296E-01 0.  0.
         14    1    1    2    0    0 -0.87887410163E-02 -0.12669589396E-01 -0.18992588704E-01  0.24463828192E-01  0.00000000000E+00 0. -1.
     999901    1    3    3    0    0  0.13159925116E+00 -0.17931458204E-01 -0.36120599833E-03  0.88996630867E+00  0.88000000000E+00 0.  1.
        -11    1    4    4    0    0 -0.85878754216E-01  0.12780915356E-01  0.96727817874E-02  0.87363241993E-01  0.51100000000E-03 0. -1.
         11    1    4    4    0    0 -0.36931755932E-01  0.17820132244E-01  0.96810129152E-02  0.42136621144E-01  0.51100000000E-03 0.  1.
</event>
<event>
 8    1  0.1066842E+005  0.1043930E+01  0.7957747E-01            NaN
         13   -1    0    0    0    0  0.00000000000E+00  0.00000000000E+00  0.74505805969E-08  0.10566000000E+00  0.10566000000E+00 0.  1.
     999900   -1    0    0    0    0 -0.00000000000E+00 -0.00000000000E+00 -0.74505805969E-08  0.93827000000E+00  0.93827000000E+00 0.  1.
     999902    2    1    2    0    0  0.46607907921E-02 -0.21394074970E-01 -0.12741826082E-01  0.10185965528E+01  0.10182814708E+01 0.  0.
     999903    2    3    3    0    0 -0.11366179132E+00  0.38614720306E-01 -0.40520833271E-01  0.12821856443E+00  0.19696773979E-01 0.  0.
         14    1    1    2    0    0 -0.46607907921E-02  0.21394074970E-01  0.12741826082E-01  0.25333447190E-01  0.00000000000E+00 0. -1.
     999901    1    3    3    0    0  0.11832258211E+00 -0.60008795276E-01  0.27779007188E-01  0.89037798838E+00  0.88000000000E+00 0. -1.
        -11    1    4    4    0    0 -0.14586034549E-01  0.72730405784E-02 -0.12626266251E-01  0.20623608888E-01  0.51100000000E-03 0.  1.
         11    1    4    4    0    0 -0.99075756773E-01  0.31341679728E-01 -0.27894567019E-01  0.10759495554E+00  0.51100000000E-03 0. -1.
</event>
<event>
 8    1  0.1066842E+005  0.1043930E+01  0.7957747E-01            NaN
         13   -1    0    0    0    0  0.00000000000E+00  0.00000000000E+00  0.74505805969E-08  0.10566000000E+00  0.10566000000E+00 0.  1.
     999900   -1    0    0    0    0 -0.00000000000E+00 -0.00000000000E+00 -0.74505805969E-08  0.93827000000E+00  0.93827000000E+00 0.  1.
     999902    2    1    2    0    0  0.17852849862E-01 -0.15441231739E-01  0.11875976119E-01  0.10175066260E+01  0.10171634771E+01 0.  0.
     999903    2    3    3    0    0  0.52459179292E-01 -0.11736325307E+00  0.15399328601E-01  0.13094128125E+00  0.19554568499E-01 0.  0.
         14    1    1    2    0    0 -0.17852849862E-01  0.15441231739E-01 -0.11875976119E-01  0.26423374019E-01  0.00000000000E+00 0. -1.
     999901    1    3    3    0    0 -0.34606329431E-01  0.10192202134E+00 -0.35233524819E-02  0.88656534473E+00  0.88000000000E+00 0. -1.
        -11    1    4    4    0    0  0.27792321603E-01 -0.64054203720E-01  0.18114461585E-01  0.72137015421E-01  0.51100000000E-03 0. -1.
         11    1    4    4    0    0  0.24666857689E-01 -0.53309049353E-01 -0.27151329839E-02  0.58804265826E-01  0.51100000000E-03 0.  1.
</event>
<event>
 8    1  0.1066842E+005  0.1043930E+01  0.7957747E-01            NaN
         13   -1    0    0    0    0  0.00000000000E+00  0.00000000000E+00  0.74505805969E-08  0.10566000000E+00  0.10566000000E+00 0. -1.
     999900   -1    0    0    0    0 -0.00000000000E+00 -0.00000000000E+00 -0.74505805969E-08  0.93827000000E+00  0.93827000000E+00 0. -1.
     999902    2    1    2    0    0 -0.21865119431E-01  0.15348045922E-01 -0.10342480885E-01  0.10152836587E+01  0.10148794483E+01 0.  0.
     999903    2    3    3    0    0  0.15464650022E-01  0.11240940708E-01  0.12149933217E+00  0.12467002544E+00  0.20371877109E-01 0.  0.
         14    1    1    2    0    0  0.21865119431E-01 -0.15348045922E-01  0.10342480885E-01  0.28646341341E-01  0.00000000000E+00 0. -1.
     999901    1    3    3    0    0 -0.37329769453E-01  0.41071052140E-02 -0.13184181306E+00  0.89061363322E+00  0.88000000000E+00 0.  1.
        -11    1    4    4    0    0 -0.26772020858E-02  0.25536332022E-02  0.56600815088E-01  0.56723908920E-01  0.51100000000E-03 0.  1.
         11    1    4    4    0    0  0.18141852108E-01  0.86873075060E-02  0.64898517086E-01  0.67946116523E-01  0.51100000000E-03 0. -1.
</event>
<event>
 8    1  0.1066842E+005  0.1043930E+01  0.7957747E-01            NaN
         13   -1    0    0    0    0  0.00000000000E+00  0.00000000000E+00  0.74505805969E-08  0.10566000000E+00  0.10566000000E+00 0.  1.
     999900   -1    0    0    0    0 -0.00000000000E+00 -0.00000000000E+00 -0.74505805969E-08  0.93827000000E+00  0.93827000000E+00 0.  1.
     999902    2    1    2    0    0  0.77247104422E-02 -0.12037590441E-01 -0.19354169810E-01  0.10198642853E+01  0.10195803067E+01 0.  0.
     999903    2    3    3    0    0  0.89498637848E-01  0.90855454455E-01  0.59423214754E-02  0.12974414377E+00  0.23097876016E-01 0.  0.
         14    1    1    2    0    0 -0.77247104422E-02  0.12037590441E-01  0.19354169810E-01  0.24065714701E-01  0.00000000000E+00 0.  1.
     999901    1    3    3    0    0 -0.81773927406E-01 -0.10289304490E+00 -0.25296491285E-01  0.89012014153E+00  0.88000000000E+00 0. -1.
        -11    1    4    4    0    0  0.43029532745E-01  0.27667473879E-01  0.14993588050E-02  0.51181432150E-01  0.51100000000E-03 0.  1.
         11    1    4    4    0    0  0.46469105103E-01  0.63187980575E-01  0.44429626704E-02  0.78562711617E-01  0.51100000000E-03 0. -1.
</event>
<event>
 8    1  0.1066842E+005  0.1043930E+01  0.7957747E-01            NaN
         13   -1    0    0    0    0  0.00000000000E+00  0.00000000000E+00  0.74505805969E-08  0.10566000000E+00  0.10566000000E+00 0. -1.
     999900   -1    0    0    0    0 -0.00000000000E+00 -0.00000000000E+00 -0.74505805969E-08  0.93827000000E+00  0.93827000000E+00 0. -1.
     999902    2    1    2    0    0 -0.75591296532E-02 -0.21898422728E-01  0.48835935100E-02  0.10202544674E+01  0.10199797289E+01 0.  0.
     999903    2    3    3    0    0  0.11613368478E+00  0.51412627219E-01  0.44293668375E-02  0.12858489366E+00  0.19600117586E-01 0.  0.
         14    1    1    2    0    0  0.75591296532E-02  0.21898422728E-01 -0.48835935100E-02  0.23675532616E-01  0.00000000000E+00 0.  1.
     999901    1    3    3    0    0 -0.12369281443E+00 -0.73311049947E-01  0.45422667251E-03  0.89166957373E+00  0.88000000000E+00 0.  1.
        -11    1    4    4    0    0  0.24263489257E-01  0.93596764761E-02 -0.69056209236E-02  0.26912249553E-01  0.51100000000E-03 0. -1.
         11    1    4    4    0    0  0.91870195519E-01  0.42052950743E-01  0.11334987761E-01  0.10167264411E+00  0.51100000000E-03 0.  1.
</event>
<event>
 8    1  0.1066842E+005  0.1043930E+01  0.7957747E-01            NaN
         13   -1    0    0    0    0  0.00000000000E+00  0.00000000000E+00  0.74505805969E-08  0.10566000000E+00  0.10566000000E+00 0. -1.
     999900   -1    0    0    0    0 -0.00000000000E+00 -0.00000000000E+00 -0.74505805969E-08  0.93827000000E+00  0.93827000000E+00 0.  1.
     999902    2    1    2    0    0 -0.10858875580E-01  0.20616034628E-01  0.91296696661E-03  0.10206111327E+01  0.10203447038E+01 0.  0.
     999903    2    3    3    0    0 -0.89488477422E-01 -0.67171927137E-01  0.64149072913E-01  0.13050543921E+00  0.19907554386E-01 0.  0.
         14    1    1    2    0    0  0.10858875580E-01 -0.20616034628E-01 -0.91296696661E-03  0.23318867282E-01  0.00000000000E+00 0.  1.
     999901    1    3    3    0    0  0.78629601842E-01  0.87787961765E-01 -0.63236105947E-01  0.89010569351E+00  0.88000000000E+00 0.  1.
        -11    1    4    4    0    0 -0.80459486565E-01 -0.51745580531E-01  0.51957516318E-01  0.10886311913E+00  0.51100000000E-03 0. -1.
         11    1    4    4    0    0 -0.90289908570E-02 -0.15426346606E-01  0.12191556595E-01  0.21642320086E-01  0.51100000000E-03 0.  1.
</event>
<event>
 8    1  0.1066842E+005  0.1043930E+01  0.7957747E-01            NaN
         13   -1    0    0    0    0  0.00000000000E+00  0.00000000000E+00  0.74505805969E-08  0.10566000000E+00  0.10566000000E+00 0. -1.
     999900   -1    0    0    0    0 -0.00000000000E+00 -0.00000000000E+00 -0.74505805969E-08  0.93827000000E+00  0.93827000000E+00 0. -1.
     999902    2    1    2    0    0  0.22765198132E-02  0.11414391018E-02  0.22722571218E-01  0.10210651652E+01  0.10208091256E+01 0.  0.
     999903    2    3    3    0    0  0.93231942379E-01 -0.90180556242E-01 -0.97010343817E-02  0.13108545428E+00  0.16265252894E-01 0.  0.
         14    1    1    2    0    0 -0.22765198132E-02 -0.11414391018E-02 -0.22722571218E-01  0.22864834757E-01  0.00000000000E+00 0.  1.
     999901    1    3    3    0    0 -0.90955422566E-01  0.91321995344E-01  0.32423605600E-01  0.88997971096E+00  0.88000000000E+00 0.  1.
        -11    1    4    4    0    0  0.68537534825E-01 -0.74811544758E-01 -0.10344645197E-01  0.10198741939E+00  0.51100000000E-03 0.  1.
         11    1    4    4    0    0  0.24694407553E-01 -0.15369011484E-01  0.64361081535E-03  0.29098034887E-01  0.51100000000E-03 0. -1.
</event>
<event>
 8    1  0.1066842E+005  0.1043930E+01  0.7957747E-01            NaN
         13   -1    0    0    0    0  0.00000000000E+00  0.00000000000E+00  0.74505805969E-08  0.10566000000E+00  0.10566000000E+00 0.  1.
     999900   -1    0    0    0    0 -0.00000000000E+00 -0.00000000000E+00 -0.74505805969E-08  0.93827000000E+00  0.93827000000E+00 0. -1.
     999902    2    1    2    0    0 -0.21366685033E-01 -0.90425751339E-02  0.40238998600E-02  0.10203822790E+01  0.10201105333E+01 0.  0.
     999903    2    3    3    0    0 -0.10159980123E+00 -0.83757264815E-01  0.87902181727E-02  0.13356642687E+00  0.20613671028E-01 0.  0.
         14    1    1    2    0    0  0.21366685033E-01  0.90425751339E-02 -0.40238998600E-02  0.23547721003E-01  0.00000000000E+00 0. -1.
     999901    1    3    3    0    0  0.80233116194E-01  0.74714689681E-01 -0.47663183127E-02  0.88681585212E+00  0.88000000000E+00 0. -1.
        -11    1    4    4    0    0 -0.44308907239E-01 -0.49514373396E-01  0.67471789427E-02  0.66788756376E-01  0.51100000000E-03 0. -1.
         11    1    4    4    0    0 -0.57290893988E-01 -0.34242891419E-01  0.20430392300E-02  0.66777670496E-01  0.51100000000E-03 0.  1.
</event>
<event>
 8    1  0.1066842E+005  0.1043930E+01  0.7957747E-01            NaN
         13   -1    0    0    0    0  0.00000000000E+00  0.00000000000E+00  0.74505805969E-08  0.10566000000E+00  0.10566000000E+00 0.  1.
     999900   -1    0    0    0    0 -0.00000000000E+00 -0.00000000000E+00 -0.74505805969E-08  0.93827000000E+00  0.93827000000E+00 0. -1.
     999902    2    1    2    0    0 -0.11850855821E-01  0.13385664788E-01 -0.15002168224E-01  0.10205915370E+01  0.10203246549E+01 0.  0.
     999903    2    3    3    0    0  0.51611652751E-01  0.11976911012E+00 -0.18032090933E-02  0.13181758372E+00  0.19084584816E-01 0.  0.
         14    1    1    2    0    0  0.11850855821E-01 -0.13385664788E-01  0.15002168224E-01  0.23338463037E-01  0.00000000000E+00 0.  1.
     999901    1    3    3    0    0 -0.63462508573E-01 -0.10638344533E+00 -0.13198959131E-01  0.88877395324E+00  0.88000000000E+00 0. -1.
        -11    1    4    4    0    0  0.11624446264E-01  0.34219204246E-01  0.75391995905E-02  0.36921299295E-01  0.51100000000E-03 0. -1.
         11    1    4    4    0    0  0.39987206488E-01  0.85549905872E-01 -0.93424086838E-02  0.94896284429E-01  0.51100000000E-03 0.  1.
</event>
<event>
 8    1  0.1066842E+005  0.1043930E+01  0.7957747E-01            NaN
         13   -1    0    0    0    0  0.00000000000E+00  0.00000000000E+00  0.74505805969E-08  0.10566000000E+00  0.10566000000E+00 0. -1.
     999900   -1    0    0    0    0 -0.00000000000E+00 -0.00000000000E+00 -0.74505805969E-08  0.93827000000E+00  0.93827000000E+00 0.  1.
     999902    2    1    2    0    0  0.77842432015E-02 -0.19554686085E-01  0.82729100048E-02  0.10213153757E+01  0.10210649712E+01 0.  0.
     999903    2    3    3    0    0 -0.53110407605E-01  0.27986263628E-01  0.11469110737E+00  0.13154398200E+00  0.23362849620E-01 0.  0.
         14    1    1    2    0    0 -0.77842432015E-02  0.19554686085E-01 -0.82729100048E-02  0.22614624252E-01  0.00000000000E+00 0. -1.
     999901    1    3    3    0    0  0.60894650806E-01 -0.47540949714E-01 -0.10641819737E+00  0.88977139375E+00  0.88000000000E+00 0.  1.
        -11    1    4    4    0    0 -0.27394754016E-01  0.13236830372E-01  0.34262449101E-01  0.45824259572E-01  0.51100000000E-03 0. -1.
         11    1    4    4    0    0 -0.25715653589E-01  0.14749433256E-01  0.80428658273E-01  0.85719722430E-01  0.51100000000E-03 0.  1.
</event>
<event>
 8    1  0.1066842E+005  0.1043930E+01  0.7957747E-01            NaN
         13   -1    0    0    0    0  0.00000000000E+00  0.00000000000E+00  0.74505805969E-08  0.10566000000E+00  0.10566000000E+00 0.  1.
     999900   -1    0    0    0    0 -0.00000000000E+00 -0.00000000000E+00 -0.74505805969E-08  0.93827000000E+00  0.93827000000E+00 0. -1.
     999902    2    1    2    0    0  0.92192805291E-02 -0.91270414576E-02  0.19267019204E-01  0.10207025152E+01  0.10204381944E+01 0.  0.
     999903    2    3    3    0    0  0.90403099951E-01 -0.90267481799E-01 -0.25721250467E-01  0.13210894785E+00  0.21685308989E-01 0.  0.
         14    1    1    2    0    0 -0.92192805291E-02  0.91270414576E-02 -0.19267019204E-01  0.23227484760E-01  0.00000000000E+00 0. -1.
     999901    1    3    3    0    0 -0.81183819422E-01  0.81140440341E-01  0.44988269672E-01  0.88859356739E+00  0.88000000000E+00 0.  1.
        -11    1    4    4    0    0  0.31710133167E-01 -0.26039033209E-01  0.11355295233E-02  0.41050144265E-01  0.51100000000E-03 0.  1.
         11    1    4    4    0    0  0.58692966785E-01 -0.64228448590E-01 -0.26856779991E-01  0.91058803587E-01  0.51100000000E-03 0. -1.
</event>
<event>
 8    1  0.1066842E+005  0.1043930E+01  0.7957747E-01            NaN
         13   -1    0    0    0    0  0.00000000000E+00  0.00000000000E+00  0.74505805969E-08  0.10566000000E+00  0.10566000000E+00 0. -1.
     999900   -1    0    0    0    0 -0.00000000000E+00 -0.00000000000E+00 -0.74505805969E-08  0.93827000000E+00  0.93827000000E+00 0. -1.
     999902    2    1    2    0    0  0.33981775003E-02 -0.28887592230E-01 -0.14697950994E-01  0.10113405790E+01  0.10108153622E+01 0.  0.
     999903    2    3    3    0    0 -0.16653881961E-01 -0.65518366039E-01  0.10070455047E+00  0.12282404232E+00  0.19347630687E-01 0.  0.
         14    1    1    2    0    0 -0.33981775003E-02  0.28887592230E-01  0.14697950994E-01  0.32589420961E-01  0.00000000000E+00 0. -1.
     999901    1    3    3    0    0  0.20052059462E-01  0.36630773810E-01 -0.11540250147E+00  0.88851653672E+00  0.88000000000E+00 0.  1.
        -11    1    4    4    0    0 -0.13096285614E-03 -0.37122658704E-01  0.47440350207E-01  0.60240824108E-01  0.51100000000E-03 0. -1.
         11    1    4    4    0    0 -0.16522919105E-01 -0.28395707336E-01  0.53264200265E-01  0.62583218212E-01  0.51100000000E-03 0.  1.
</event>
<event>
 8    1  0.1066842E+005  0.1043930E+01  0.7957747E-01            NaN
         13   -1    0    0    0    0  0.00000000000E+00  0.00000000000E+00  0.74505805969E-08  0.10566000000E+00  0.10566000000E+00 0.  1.
     999900   -1    0    0    0    0 -0.00000000000E+00 -0.00000000000E+00 -0.74505805969E-08  0.93827000000E+00  0.93827000000E+00 0.  1.
     999902    2    1    2    0    0  0.15447946106E-01  0.81936436644E-02 -0.16084543106E-01  0.10201710572E+01  0.10198943566E+01 0.  0.
     999903    2    3    3    0    0 -0.11453860170E+00 -0.73619240378E-02  0.52342488055E-01  0.12785903954E+00  0.20854465472E-01 0.  0.
         14    1    1    2    0    0 -0.15447946106E-01 -0.81936436644E-02  0.16084543106E-01  0.23758942786E-01  0.00000000000E+00 0.  1.
     999901    1    3    3    0    0  0.12998654781E+00  0.15555567702E-01 -0.68427031161E-01  0.89231201768E+00  0.88000000000E+00 0.  1.
        -11    1    4    4    0    0 -0.10418787200E+00 -0.19778989916E-02  0.42334097496E-01  0.11247871660E+00  0.51100000000E-03 0.  1.
         11    1    4    4    0    0 -0.10350729704E-01 -0.53840250461E-02  0.10008390558E-01  0.15380322938E-01  0.51100000000E-03 0. -1.
</event>
<event>
 8    1  0.1066842E+005  0.1043930E+01  0.7957747E-01            NaN
         13   -1    0    0    0    0  0.00000000000E+00  0.00000000000E+00  0.74505805969E-08  0.10566000000E+00  0.10566000000E+00 0.  1.
     999900   -1    0    0    0    0 -0.00000000000E+00 -0.00000000000E+00 -0.74505805969E-08  0.93827000000E+00  0.93827000000E+00 0. -1.
     999902    2    1    2    0    0 -0.12635991838E-01 -0.20893196526E-01 -0.11027544034E-01  0.10171381976E+01  0.10167852833E+01 0.  0.
     999903    2    3    3    0    0  0.17109267273E-01  0.36856361922E-01  0.11690509463E+00  0.12551801386E+00  0.20901009805E-01 0.  0.
         14    1    1    2    0    0  0.12635991838E-01  0.20893196526E-01  0.11027544034E-01  0.26791802445E-01  0.00000000000E+00 0.  1.
     999901    1    3    3    0    0 -0.29745259111E-01 -0.57749558448E-01 -0.12793263867E+00  0.89162018370E+00  0.88000000000E+00 0. -1.
        -11    1    4    4    0    0  0.14807442250E-01  0.18142331872E-01  0.40186436991E-01  0.46514679304E-01  0.51100000000E-03 0.  1.
         11    1    4    4    0    0  0.23018250225E-02  0.18714030050E-01  0.76718657642E-01  0.79003334553E-01  0.51100000000E-03 0. -1.
</event>
<event>
 8    1  0.1066842E+005  0.1043930E+01  0.7957747E-01            NaN
         13   -1    0    0    0    0  0.00000000000E+00  0.00000000000E+00  0.74505805969E-08  0.10566000000E+00  0.10566000000E+00 0. -1.
     999900   -1    0    0    0    0 -0.00000000000E+00 -0.00000000000E+00 -0.74505805969E-08  0.93827000000E+00  0.93827000000E+00 0. -1.
     999902    2    1    2    0    0  0.10349931461E-01 -0.16070054959E-01  0.14553862206E-01  0.10199053740E+01  0.10196223758E+01 0.  0.
     999903    2    3    3    0    0 -0.17160692931E-01  0.55999939812E-01 -0.11154403945E+00  0.12757606296E+00  0.20077262367E-01 0.  0.
         14    1    1    2    0    0 -0.10349931461E-01  0.16070054959E-01 -0.14553862206E-01  0.24024625965E-01  0.00000000000E+00 0.  1.
     999901    1    3    3    0    0  0.27510624392E-01 -0.72069994771E-01  0.12609790165E+00  0.89232931107E+00  0.88000000000E+00 0. -1.
        -11    1    4    4    0    0 -0.12676412306E-01  0.32445028454E-01 -0.45452302089E-01  0.57267304690E-01  0.51100000000E-03 0.  1.
         11    1    4    4    0    0 -0.44842806244E-02  0.23554911358E-01 -0.66091737356E-01  0.70308758271E-01  0.51100000000E-03 0. -1.
</event>
<event>
 8    1  0.1066842E+005  0.1043930E+01  0.7957747E-01            NaN
         13   -1    0    0    0    0  0.00000000000E+00  0.00000000000E+00  0.74505805969E-08  0.10566000000E+00  0.10566000000E+00 0.  1.
     999900   -1    0    0    0    0 -0.00000000000E+00 -0.00000000000E+00 -0.74505805969E-08  0.93827000000E+00  0.93827000000E+00 0.  1.
     999902    2    1    2    0    0 -0.47364091483E-02  0.13685474428E-02 -0.21594563206E-01  0.10217797934E+01  0.10215396784E+01 0.  0.
     999903    2    3    3    0    0 -0.66623170655E-01 -0.11188264538E+00  0.87602466194E-02  0.13184877447E+00  0.18734572381E-01 0.  0.
         14    1    1    2    0    0  0.47364091483E-02 -0.13685474428E-02  0.21594563206E-01  0.22150206630E-01  0.00000000000E+00 0.  1.
     999901    1    3    3    0    0  0.61886761506E-01  0.11325119282E+00 -0.30354809825E-01  0.88993101890E+00  0.88000000000E+00 0.  1.
        -11    1    4    4    0    0 -0.35243240326E-01 -0.44373288925E-01  0.91339346039E-02  0.57400040427E-01  0.51100000000E-03 0.  1.
         11    1    4    4    0    0 -0.31379930328E-01 -0.67509356455E-01 -0.37368798450E-03  0.74448734040E-01  0.51100000000E-03 0. -1.
</event>
<event>
 8    1  0.1066842E+005  0.1043930E+01  0.7957747E-01            NaN
         13   -1    0    0    0    0  0.00000000000E+00  0.00000000000E+00  0.74505805969E-08  0.10566000000E+00  0.10566000000E+00 0. -1.
     999900   -1    0    0    0    0 -0.00000000000E+00 -0.00000000000E+00 -0.74505805969E-08  0.93827000000E+00  0.93827000000E+00 0.  1.
     999902    2    1    2    0    0 -0.16055607546E-01 -0.10462334845E-02  0.18561015441E-01  0.10193660339E+01  0.10190700283E+01 0.  0.
     999903    2    3    3    0    0 -0.47953354336E-02 -0.67678779926E-01  0.11126106976E+00  0.13192026648E+00  0.20506549456E-01 0.  0.
         14    1    1    2    0    0  0.16055607546E-01  0.10462334845E-02 -0.18561015441E-01  0.24563966137E-01  0.00000000000E+00 0.  1.
     999901    1    3    3    0    0 -0.11260272112E-01  0.66632546442E-01 -0.92700054316E-01  0.88744576738E+00  0.88000000000E+00 0.  1.
        -11    1    4    4    0    0 -0.63073080446E-02 -0.17790553096E-01  0.46264113028E-01  0.49969142373E-01  0.51100000000E-03 0.  1.
         11    1    4    4    0    0  0.15119726110E-02 -0.49888226830E-01  0.64996956730E-01  0.81951124109E-01  0.51100000000E-03 0. -1.
</event>
<event>
 8    1  0.1066842E+005  0.1043930E+01  0.7957747E-01            NaN
         13   -1    0    0    0    0  0.00000000000E+00  0.00000000000E+00  0.74505805969E-08  0.10566000000E+00  0.10566000000E+00 0. -1.
     999900   -1    0    0    0    0 -0.00000000000E+00 -0.00000000000E+00 -0.74505805969E-08  0.93827000000E+00  0.93827000000E+00 0.  1.
     999902    2    1    2    0    0  0.16027618972E-01 -0.17169065762E-01  0.44418814753E-02  0.10200261990E+01  0.10197460738E+01 0.  0.
     999903    2    3    3    0    0 -0.90008150333E-02 -0.84463190881E-02  0.12877812928E+00  0.13089065744E+00  0.19904839793E-01 0.  0.
         14    1    1    2    0    0 -0.16027618972E-01  0.17169065762E-01 -0.44418814753E-02  0.23903800955E-01  0.00000000000E+00 0. -1.
     999901    1    3    3    0    0  0.25028434006E-01 -0.87227466737E-02 -0.12433624781E+00  0.88913554160E+00  0.88000000000E+00 0.  1.
        -11    1    4    4    0    0 -0.74474523340E-02 -0.80376962255E-02  0.27621475607E-01  0.29719962022E-01  0.51100000000E-03 0.  1.
         11    1    4    4    0    0 -0.15533626993E-02 -0.40862286261E-03  0.10115665368E+00  0.10117069542E+00  0.51100000000E-03 0. -1.
</event>
<event>
 8    1  0.1066842E+005  0.1043930E+01  0.7957747E-01            NaN
         13   -1    0    0    0    0  0.00000000000E+00  0.00000000000E+00  0.74505805969E-08  0.10566000000E+00  0.10566000000E+00 0. -1.
     999900   -1    0    0    0    0 -0.00000000000E+00 -0.00000000000E+00 -0.74505805969E-08  0.93827000000E+00  0.93827000000E+00 0.  1.
     999902    2    1    2    0    0 -0.39952674162E-03 -0.17869327521E-01 -0.68006559808E-02  0.10248061560E+01  0.10246277060E+01 0.  0.
     999903    2    3    3    0    0 -0.40590880377E-01 -0.65644234987E-01 -0.11102542448E+00  0.13645904531E+00  0.18375010464E-01 0.  0.
         14    1    1    2    0    0  0.39952674162E-03  0.17869327521E-01  0.68006559808E-02  0.19123844003E-01  0.00000000000E+00 0. -1.
     999901    1    3    3    0    0  0.40191353636E-01  0.47774907466E-01  0.10422476850E+00  0.88834711068E+00  0.88000000000E+00 0. -1.
        -11    1    4    4    0    0 -0.17942357020E-01 -0.38287336453E-01 -0.73451521064E-01  0.84753969676E-01  0.51100000000E-03 0.  1.
         11    1    4    4    0    0 -0.22648523357E-01 -0.27356898534E-01 -0.37573903418E-01  0.51705075638E-01  0.51100000000E-03 0. -1.
</event>
<event>
 8    1  0.1066842E+005  0.1043930E+01  0.7957747E-01            NaN
         13   -1    0    0    0    0  0.00000000000E+00  0.00000000000E+00  0.74505805969E-08  0.10566000000E+00  0.10566000000E+00 0. -1.
     999900   -1    0    0    0    0 -0.00000000000E+00 -0.00000000000E+00 -0.74505805969E-08  0.93827000000E+00  0.93827000000E+00 0.  1.
     999902    2    1    2    0    0  0.14325064282E-01  0.16191029489E-01  0.10541027017E-01  0.10198785935E+01  0.10195949565E+01 0.  0.
     999903    2    3    3    0    0 -0.61987266080E-01 -0.88893190510E-01  0.65650292641E-01  0.12864164624E+00  0.22232672990E-01 0.  0.
         14    1    1    2    0    0 -0.14325064282E-01 -0.16191029489E-01 -0.10541027017E-01  0.24051406470E-01  0.00000000000E+00 0.  1.
     999901    1    3    3    0    0  0.76312330363E-01  0.10508422000E+00 -0.55109265624E-01  0.89123694729E+00  0.88000000000E+00 0.  1.
        -11    1    4    4    0    0 -0.52075568390E-01 -0.61141888070E-01  0.40764191445E-01  0.90067617517E-01  0.51100000000E-03 0. -1.
         11    1    4    4    0    0 -0.99116976903E-02 -0.27751302439E-01  0.24886101196E-01  0.38574028723E-01  0.51100000000E-03 0.  1.
</event>
<event>
 8    1  0.1066842E+005  0.1043930E+01  0.7957747E-01            NaN
         13   -1    0    0    0    0  0.00000000000E+00  0.00000000000E+00  0.74505805969E-08  0.10566000000E+00  0.10566000000E+00 0.  1.
     999900   -1    0    0    0    0 -0.00000000000E+00 -0.00000000000E+00 -0.74505805969E-08  0.93827000000E+00  0.93827000000E+00 0.  1.
     999902    2    1    2    0    0 -0.11985435987E-01 -0.11090662543E-01  0.16970719661E-01  0.10203788048E+01  0.10201069779E+01 0.  0.
     999903    2    3    3    0    0  0.12528775948E+00 -0.63335239329E-02  0.24523805396E-01  0.12969164887E+00  0.21940158499E-01 0.  0.
         14    1    1    2    0    0  0.11985435987E-01  0.11090662543E-01 -0.16970719661E-01  0.23551195240E-01  0.00000000000E+00 0. -1.
     999901    1    3    3    0    0 -0.13727319547E+00 -0.47571386098E-02 -0.75530857356E-02  0.89068715589E+00  0.88000000000E+00 0. -1.
        -11    1    4    4    0    0  0.10396924036E+00 -0.10904578613E-01  0.13992684962E-01  0.10547307301E+00  0.51100000000E-03 0.  1.
         11    1    4    4    0    0  0.21318519115E-01  0.45710546805E-02  0.10531120434E-01  0.24218575861E-01  0.51100000000E-03 0. -1.
</event>
<event>
 8    1  0.1066842E+005  0.1043930E+01  0.7957747E-01            NaN
         13   -1    0    0    0    0  0.00000000000E+00  0.00000000000E+00  0.74505805969E-08  0.10566000000E+00  0.10566000000E+00 0.  1.
     999900   -1    0    0    0    0 -0.00000000000E+00 -0.00000000000E+00 -0.74505805969E-08  0.93827000000E+00  0.93827000000E+00 0.  1.
     999902    2    1    2    0    0  0.25165841458E-01 -0.14369700785E-02  0.47124329742E-02  0.10182864534E+01  0.10179635110E+01 0.  0.
     999903    2    3    3    0    0  0.13243754286E-02  0.94371200338E-01  0.85523130158E-01  0.12908569437E+00  0.21005553451E-01 0.  0.
         14    1    1    2    0    0 -0.25165841458E-01  0.14369700785E-02 -0.47124329742E-02  0.25643546631E-01  0.00000000000E+00 0.  1.
     999901    1    3    3    0    0  0.23841466029E-01 -0.95808170417E-01 -0.80810697184E-01  0.88920075900E+00  0.88000000000E+00 0.  1.
        -11    1    4    4    0    0 -0.17539390435E-02  0.16727799313E-01  0.26968995197E-01  0.31788101468E-01  0.51100000000E-03 0.  1.
         11    1    4    4    0    0  0.30783144721E-02  0.77643401025E-01  0.58554134961E-01  0.97297592903E-01  0.51100000000E-03 0. -1.
</event>
<event>
 8    1  0.1066842E+005  0.1043930E+01  0.7957747E-01            NaN
         13   -1    0    0    0    0  0.00000000000E+00  0.00000000000E+00  0.74505805969E-08  0.10566000000E+00  0.10566000000E+00 0. -1.
     999900   -1    0    0    0    0 -0.00000000000E+00 -0.00000000000E+00 -0.74505805969E-08  0.93827000000E+00  0.93827000000E+00 0.  1.
     999902    2    1    2    0    0 -0.10243250845E-01  0.22386945170E-01 -0.80089717986E-02  0.10180409457E+01  0.10177117097E+01 0.  0.
     999903    2    3    3    0    0 -0.11559798526E+00 -0.32604629311E-01  0.41451506711E-01  0.12867598562E+00  0.20330416098E-01 0.  0.
         14    1    1    2    0    0  0.10243250845E-01 -0.22386945170E-01  0.80089717986E-02  0.25889054273E-01  0.00000000000E+00 0. -1.
     999901    1    3    3    0    0  0.10535473441E+00  0.54991574480E-01 -0.49460478509E-01  0.88936496010E+00  0.88000000000E+00 0.  1.
        -11    1    4    4    0    0 -0.63656061468E-01 -0.74627546570E-02  0.22766726696E-01  0.68017437722E-01  0.51100000000E-03 0. -1.
         11    1    4    4    0    0 -0.51941923791E-01 -0.25141874654E-01  0.18684780014E-01  0.60658547900E-01  0.51100000000E-03 0.  1.
</event>
<event>
 8    1  0.1066842E+005  0.1043930E+01  0.7957747E-01            NaN
         13   -1    0    0    0    0  0.00000000000E+00  0.00000000000E+00  0.74505805969E-08  0.10566000000E+00  0.10566000000E+00 0. -1.
     999900   -1    0    0    0    0 -0.00000000000E+00 -0.00000000000E+00 -0.74505805969E-08  0.93827000000E+00  0.93827000000E+00 0.  1.
     999902    2    1    2    0    0 -0.36065578906E-02 -0.22084141634E-01  0.83258667910E-02  0.10200545601E+01  0.10197751071E+01 0.  0.
     999903    2    3    3    0    0  0.48534376407E-02 -0.79876341175E-01 -0.10352076110E+00  0.13105446000E+00  0.74120016861E-02 0.  0.
         14    1    1    2    0    0  0.36065578906E-02  0.22084141634E-01 -0.83258667910E-02  0.23875439877E-01  0.00000000000E+00 0.  1.
     999901    1    3    3    0    0 -0.84599955313E-02  0.57792199541E-01  0.11184662790E+00  0.88900010013E+00  0.88000000000E+00 0. -1.
        -11    1    4    4    0    0  0.24013244530E-02 -0.70276334001E-01 -0.88183539350E-01  0.11278797459E+00  0.51100000000E-03 0.  1.
         11    1    4    4    0    0  0.24521131878E-02 -0.96000071740E-02 -0.15337221754E-01  0.18266485402E-01  0.51100000000E-03 0. -1.
</event>
<event>
 8    1  0.1066842E+005  0.1043930E+01  0.7957747E-01            NaN
         13   -1    0    0    0    0  0.00000000000E+00  0.00000000000E+00  0.74505805969E-08  0.10566000000E+00  0.10566000000E+00 0.  1.
     999900   -1    0    0    0    0 -0.00000000000E+00 -0.00000000000E+00 -0.74505805969E-08  0.93827000000E+00  0.93827000000E+00 0. -1.
     999902    2    1    2    0    0  0.20757278911E-01 -0.82059796427E-02  0.65497872977E-02  0.10206683912E+01  0.10204032842E+01 0.  0.
     999903    2    3    3    0    0  0.10429480867E+00  0.44217529856E-01  0.67207383936E-01  0.13308397987E+00  0.19024094731E-01 0.  0.
         14    1    1    2    0    0 -0.20757278911E-01  0.82059796427E-02 -0.65497872977E-02  0.23261608787E-01  0.00000000000E+00 0. -1.
     999901    1    3    3    0    0 -0.83537529761E-01 -0.52423509499E-01 -0.60657596638E-01  0.88758441134E+00  0.88000000000E+00 0. -1.
        -11    1    4    4    0    0  0.28446937864E-01  0.58663916312E-02  0.24301146862E-01  0.37874129488E-01  0.51100000000E-03 0.  1.
         11    1    4    4    0    0  0.75847870808E-01  0.38351138225E-01  0.42906237074E-01  0.95209850384E-01  0.51100000000E-03 0. -1.
</event>
<event>
 8    1  0.1066842E+005  0.1043930E+01  0.7957747E-01            NaN
         13   -1    0    0    0    0  0.00000000000E+00  0.00000000000E+00  0.74505805969E-08  0.10566000000E+00  0.10566000000E+00 0. -1.
     999900   -1    0    0    0    0 -0.00000000000E+00 -0.00000000000E+00 -0.74505805969E-08  0.93827000000E+00  0.93827000000E+00 0.  1.
     999902    2    1    2    0    0 -0.21475153723E-01 -0.81447001662E-03  0.10388113389E-01  0.10200603857E+01  0.10197810706E+01 0.  0.
     999903    2    3    3    0    0 -0.79226923415E-01  0.19121096480E-01 -0.10061068308E+00  0.13098590817E+00  0.19805980531E-01 0.  0.
         14    1    1    2    0    0  0.21475153723E-01  0.81447001662E-03 -0.10388113389E-01  0.23869614338E-01  0.00000000000E+00 0.  1.
     999901    1    3    3    0    0  0.57751769691E-01 -0.19935566497E-01  0.11099879647E+00  0.88907447749E+00  0.88000000000E+00 0.  1.
        -11    1    4    4    0    0 -0.52679342985E-01  0.18266659084E-01 -0.79235105493E-01  0.96887806637E-01  0.51100000000E-03 0.  1.
         11    1    4    4    0    0 -0.26547580430E-01  0.85443739667E-03 -0.21375577586E-01  0.34098101532E-01  0.51100000000E-03 0. -1.
</event>
<event>
 8    1  0.1066842E+005  0.1043930E+01  0.7957747E-01            NaN
         13   -1    0    0    0    0  0.00000000000E+00  0.00000000000E+00  0.74505805969E-08  0.10566000000E+00  0.10566000000E+00 0. -1.
     999900   -1    0    0    0    0 -0.00000000000E+00 -0.00000000000E+00 -0.74505805969E-08  0.93827000000E+00  0.93827000000E+00 0. -1.
     999902    2    1    2    0    0  0.69889339147E-02  0.11677143917E-01  0.19723537995E-01  0.10199671363E+01  0.10196856085E+01 0.  0.
     999903    2    3    3    0    0  0.10964645405E+00 -0.42373315503E-01 -0.50713849399E-01  0.12956192281E+00  0.19913677958E-01 0.  0.
         14    1    1    2    0    0 -0.69889339147E-02 -0.11677143917E-01 -0.19723537995E-01  0.23962863735E-01  0.00000000000E+00 0.  1.
     999901    1    3    3    0    0 -0.10265752013E+00  0.54050459420E-01  0.70437387394E-01  0.89040521345E+00  0.88000000000E+00 0. -1.
        -11    1    4    4    0    0  0.60282813546E-01 -0.18814225903E-01 -0.36908130391E-01  0.73146865382E-01  0.51100000000E-03 0. -1.
         11    1    4    4    0    0  0.49363640502E-01 -0.23559089600E-01 -0.13805719007E-01  0.56415057429E-01  0.51100000000E-03 0.  1.
</event>
<event>
 8    1  0.1066842E+005  0.1043930E+01  0.7957747E-01            NaN
         13   -1    0    0    0    0  0.00000000000E+00  0.00000000000E+00  0.74505805969E-08  0.10566000000E+00  0.10566000000E+00 0. -1.
     999900   -1    0    0    0    0 -0.00000000000E+00 -0.00000000000E+00 -0.74505805969E-08  0.93827000000E+00  0.93827000000E+00 0.  1.
     999902    2    1    2    0    0 -0.10233292486E-01 -0.71241852715E-02 -0.77234656338E-02  0.10292628185E+01  0.10291583082E+01 0.  0.
     999903    2    3    3    0    0 -0.68693501109E-01 -0.11045262403E+00 -0.48729865295E-01  0.14034443810E+00  0.20084379134E-01 0.  0.
         14    1    1    2    0    0  0.10233292486E-01  0.71241852715E-02  0.77234656338E-02  0.14667181470E-01  0.00000000000E+00 0.  1.
     999901    1    3    3    0    0  0.58460208624E-01  0.10332843876E+00  0.41006399662E-01  0.88891838043E+00  0.88000000000E+00 0. -1.
        -11    1    4    4    0    0 -0.52676285373E-01 -0.70455627194E-01 -0.26597857803E-01  0.91904807299E-01  0.51100000000E-03 0.  1.
         11    1    4    4    0    0 -0.16017215736E-01 -0.39996996835E-01 -0.22132007492E-01  0.48439630804E-01  0.51100000000E-03 0. -1.
</event>
<event>
 8    1  0.1066842E+005  0.1043930E+01  0.7957747E-01            NaN
         13   -1    0    0    0    0  0.00000000000E+00  0.00000000000E+00  0.74505805969E-08  0.10566000000E+00  0.10566000000E+00 0. -1.
     999900   -1    0    0    0    0 -0.00000000000E+00 -0.00000000000E+00 -0.74505805969E-08  0.93827000000E+00  0.93827000000E+00 0.  1.
     999902    2    1    2    0    0 -0.15695634517E-01  0.17547799071E-01 -0.69000336584E-02  0.10193965808E+01  0.10191013199E+01 0.  0.
     999903    2    3    3    0    0 -0.69161582181E-01 -0.76042932751E-01  0.75415002319E-01  0.12900700434E+00  0.19736578325E-01 0.  0.
         14    1    1    2    0    0  0.15695634517E-01 -0.17547799071E-01  0.69000336584E-02  0.24533419240E-01  0.00000000000E+00 0. -1.
     999901    1    3    3    0    0  0.53465947664E-01  0.93590731822E-01 -0.82315035977E-01  0.89038957642E+00  0.88000000000E+00 0.  1.
        -11    1    4    4    0    0 -0.57006517157E-01 -0.63438679352E-01  0.70914258449E-01  0.11092025157E+00  0.51100000000E-03 0. -1.
         11    1    4    4    0    0 -0.12155065024E-01 -0.12604253399E-01  0.45007438698E-02  0.18086752772E-01  0.51100000000E-03 0.  1.
</event>
<event>
 8    1  0.1066842E+005  0.1043930E+01  0.7957747E-01            NaN
         13   -1    0    0    0    0  0.00000000000E+00  0.00000000000E+00  0.74505805969E-08  0.10566000000E+00  0.10566000000E+00 0. -1.
     999900   -1    0    0    0    0 -0.00000000000E+00 -0.00000000000E+00 -0.74505805969E-08  0.93827000000E+00  0.93827000000E+00 0.  1.
     999902    2    1    2    0    0  0.23314706440E-01 -0.23551954306E-02 -0.43732763712E-02  0.10200920465E+01  0.10198134806E+01 0.  0.
     999903    2    3    3    0    0  0.29607248901E-01  0.10942925785E+00  0.61808541300E-01  0.13053294609E+00  0.19162530549E-01 0.  0.
         14    1    1    2    0    0 -0.23314706440E-01  0.23551954306E-02  0.43732763712E-02  0.23837953522E-01  0.00000000000E+00 0. -1.
     999901    1    3    3    0    0 -0.62925424607E-02 -0.11178445328E+00 -0.66181817671E-01  0.88955910038E+00  0.88000000000E+00 0.  1.
        -11    1    4    4    0    0  0.16762219728E-01  0.88315280009E-01  0.44122335765E-01  0.10013791653E+00  0.51100000000E-03 0. -1.
         11    1    4    4    0    0  0.12845029173E-01  0.21113977842E-01  0.17686205535E-01  0.30395029561E-01  0.51100000000E-03 0.  1.
</event>
<event>
 8    1  0.1066842E+005  0.1043930E+01  0.7957747E-01            NaN
         13   -1    0    0    0    0  0.00000000000E+00  0.00000000000E+00  0.74505805969E-08  0.10566000000E+00  0.10566000000E+00 0.  1.
     999900   -1    0    0    0    0 -0.00000000000E+00 -0.00000000000E+00 -0.74505805969E-08  0.93827000000E+00  0.93827000000E+00 0. -1.
     999902    2    1    2    0    0 -0.21998120745E-01 -0.59306245042E-02  0.63863158085E-02  0.10202683295E+01  0.10199939164E+01 0.  0.
     999903    2    3    3    0    0  0.61514530088E-01 -0.63549295194E-01  0.93368175142E-01  0.13017838012E+00  0.20155500216E-01 0.  0.
         14    1    1    2    0    0  0.21998120745E-01  0.59306245042E-02 -0.63863158085E-02  0.23661670544E-01  0.00000000000E+00 0.  1.
     999901    1    3    3    0    0 -0.83512650833E-01  0.57618670690E-01 -0.86981859334E-01  0.89008994934E+00  0.88000000000E+00 0.  1.
        -11    1    4    4    0    0  0.25978609390E-01 -0.20195430392E-01  0.47282625437E-01  0.57607736839E-01  0.51100000000E-03 0.  1.
         11    1    4    4    0    0  0.35535920698E-01 -0.43353864802E-01  0.46085549705E-01  0.72570643278E-01  0.51100000000E-03 0. -1.
</event>
<event>
 8    1  0.1066842E+005  0.1043930E+01  0.7957747E-01            NaN
         13   -1    0    0    0    0  0.00000000000E+00  0.00000000000E+00  0.74505805969E-08  0.10566000000E+00  0.10566000000E+00 0. -1.
     999900   -1    0    0    0    0 -0.00000000000E+00 -0.00000000000E+00 -0.74505805969E-08  0.93827000000E+00  0.93827000000E+00 0.  1.
     999902    2    1    2    0    0  0.23388547520E-01 -0.78987965284E-03 -0.21448312160E-02  0.10204300348E+01  0.10201594030E+01 0.  0.
     999903    2    3    3    0    0 -0.93515472138E-01 -0.41327110397E-01 -0.75659556523E-01  0.12873825409E+00  0.19902160439E-01 0.  0.
         14    1    1    2    0    0 -0.23388547520E-01  0.78987965284E-03  0.21448312160E-02  0.23499965232E-01  0.00000000000E+00 0.  1.
     999901    1    3    3    0    0  0.11690401966E+00  0.40537230744E-01  0.73514725307E-01  0.89169178068E+00  0.88000000000E+00 0. -1.
        -11    1    4    4    0    0 -0.45628613596E-01 -0.29874842059E-01 -0.45222152578E-01  0.70850411231E-01  0.51100000000E-03 0.  1.
         11    1    4    4    0    0 -0.47886858542E-01 -0.11452268338E-01 -0.30437403945E-01  0.57887842860E-01  0.51100000000E-03 0. -1.
</event>
<event>
 8    1  0.1066842E+005  0.1043930E+01  0.7957747E-01            NaN
         13   -1    0    0    0    0  0.00000000000E+00  0.00000000000E+00  0.74505805969E-08  0.10566000000E+00  0.10566000000E+00 0. -1.
     999900   -1    0    0    0    0 -0.00000000000E+00 -0.00000000000E+00 -0.74505805969E-08  0.93827000000E+00  0.93827000000E+00 0. -1.
     999902    2    1    2    0    0  0.19316045926E-02  0.22910254346E-01  0.57677795908E-02  0.10202260313E+01  0.10199506247E+01 0.  0.
     999903    2    3    3    0    0 -0.13045681163E-01  0.12738554000E+00 -0.31189927082E-01  0.13314921587E+00  0.18937701484E-01 0.  0.
         14    1    1    2    0    0 -0.19316045926E-02 -0.22910254346E-01 -0.57677795908E-02  0.23703968696E-01  0.00000000000E+00 0.  1.
     999901    1    3    3    0    0  0.14977285756E-01 -0.10447528565E+00  0.36957706673E-01  0.88707681544E+00  0.88000000000E+00 0.  1.
        -11    1    4    4    0    0 -0.14982063533E-01  0.59561661067E-01 -0.18247212026E-01  0.64072424369E-01  0.51100000000E-03 0. -1.
         11    1    4    4    0    0  0.19363823695E-02  0.67823878931E-01 -0.12942715057E-01  0.69076791500E-01  0.51100000000E-03 0.  1.
</event>
<event>
 8    1  0.1066842E+005  0.1043930E+01  0.7957747E-01            NaN
         13   -1    0    0    0    0  0.00000000000E+00  0.00000000000E+00  0.74505805969E-08  0.10566000000E+00  0.10566000000E+00 0. -1.
     999900   -1    0    0    0    0 -0.00000000000E+00 -0.00000000000E+00 -0.74505805969E-08  0.93827000000E+00  0.93827000000E+00 0. -1.
     999902    2    1    2    0    0 -0.23573007939E-01  0.54915920597E-02 -0.89730531654E-02  0.10181160509E+01  0.10177887468E+01 0.  0.
     999903    2    3    3    0    0  0.10220403362E+00  0.29915234815E-02 -0.72598868858E-01  0.12689533805E+00  0.19422084327E-01 0.  0.
         14    1    1    2    0    0  0.23573007939E-01 -0.54915920597E-02  0.89730531654E-02  0.25813949132E-01  0.00000000000E+00 0. -1.
     999901    1    3    3    0    0 -0.12577704156E+00  0.25000685782E-02  0.63625815692E-01  0.89122071281E+00  0.88000000000E+00 0.  1.
        -11    1    4    4    0    0  0.62790831769E-01 -0.20278181942E-02 -0.33716028803E-01  0.71300998031E-01  0.51100000000E-03 0.  1.
         11    1    4    4    0    0  0.39413201851E-01  0.50193416757E-02 -0.38882840055E-01  0.55594340024E-01  0.51100000000E-03 0. -1.
</event>
<event>
 8    1  0.1066842E+005  0.1043930E+01  0.7957747E-01            NaN
         13   -1    0    0    0    0  0.00000000000E+00  0.00000000000E+00  0.74505805969E-08  0.10566000000E+00  0.10566000000E+00 0.  1.
     999900   -1    0    0    0    0 -0.00000000000E+00 -0.00000000000E+00 -0.74505805969E-08  0.93827000000E+00  0.93827000000E+00 0.  1.
     999902    2    1    2    0    0 -0.70697062935E-02 -0.22171558788E-01 -0.33198138571E-02  0.10204229813E+01  0.10201521851E+01 0.  0.
     999903    2    3    3    0    0  0.18947150927E-02  0.92210498215E-01  0.87863827677E-01  0.12830299364E+00  0.15337536875E-01 0.  0.
         14    1    1    2    0    0  0.70697062935E-02  0.22171558788E-01  0.33198138571E-02  0.23507018744E-01  0.00000000000E+00 0.  1.
     999901    1    3    3    0    0 -0.89644213862E-02 -0.11438205700E+00 -0.91183641534E-01  0.89211998761E+00  0.88000000000E+00 0.  1.
        -11    1    4    4    0    0 -0.80361593388E-03  0.91903988871E-02  0.34206857868E-02  0.98524840789E-02  0.51100000000E-03 0.  1.
         11    1    4    4    0    0  0.26983310266E-02  0.83020099328E-01  0.84443141890E-01  0.11845050956E+00  0.51100000000E-03 0. -1.
</event>
<event>
 8    1  0.1066842E+005  0.1043930E+01  0.7957747E-01            NaN
         13   -1    0    0    0    0  0.00000000000E+00  0.00000000000E+00  0.74505805969E-08  0.10566000000E+00  0.10566000000E+00 0.  1.
     999900   -1    0    0    0    0 -0.00000000000E+00 -0.00000000000E+00 -0.74505805969E-08  0.93827000000E+00  0.93827000000E+00 0. -1.
     999902    2    1    2    0    0  0.22700154570E-02 -0.92566245179E-02  0.22213381905E-01  0.10197582726E+01  0.10194717565E+01 0.  0.
     999903    2    3    3    0    0  0.38120862531E-01  0.31600773529E-01  0.12009950982E+00  0.13266396861E+00  0.26907754681E-01 0.  0.
         14    1    1    2    0    0 -0.22700154570E-02  0.92566245179E-02 -0.22213381905E-01  0.24171727354E-01  0.00000000000E+00 0. -1.
     999901    1    3    3    0    0 -0.35850847074E-01 -0.40857398047E-01 -0.97886127912E-01  0.88709430403E+00  0.88000000000E+00 0.  1.
        -11    1    4    4    0    0  0.19392856551E-01  0.62547288944E-02  0.74455233864E-01  0.77194866990E-01  0.51100000000E-03 0.  1.
         11    1    4    4    0    0  0.18728005980E-01  0.25346044634E-01  0.45644275953E-01  0.55469101623E-01  0.51100000000E-03 0. -1.
</event>
<event>
 8    1  0.1066842E+005  0.1043930E+01  0.7957747E-01            NaN
         13   -1    0    0    0    0  0.00000000000E+00  0.00000000000E+00  0.74505805969E-08  0.10566000000E+00  0.10566000000E+00 0.  1.
     999900   -1    0    0    0    0 -0.00000000000E+00 -0.00000000000E+00 -0.74505805969E-08  0.93827000000E+00  0.93827000000E+00 0.  1.
     999902    2    1    2    0    0 -0.64128074923E-02  0.14544938978E-01  0.16883845749E-01  0.10207407008E+01  0.10204772583E+01 0.  0.
     999903    2    3    3    0    0 -0.11095570621E+00 -0.45389402750E-02  0.66465298287E-01  0.13296159959E+00  0.30485740446E-01 0.  0.
         14    1    1    2    0    0  0.64128074923E-02 -0.14544938978E-01 -0.16883845749E-01  0.23189299193E-01  0.00000000000E+00 0.  1.
     999901    1    3    3    0    0  0.10454289872E+00  0.19083879253E-01 -0.49581452538E-01  0.88777910122E+00  0.88000000000E+00 0. -1.
        -11    1    4    4    0    0  0.15280410196E-03 -0.38159211284E-02  0.93415610604E-03  0.39646401832E-02  0.51100000000E-03 0.  1.
         11    1    4    4    0    0 -0.11110851031E+00 -0.72301914664E-03  0.65531142181E-01  0.12899695941E+00  0.51100000000E-03 0. -1.
</event>
<event>
 8    1  0.1066842E+005  0.1043930E+01  0.7957747E-01            NaN
         13   -1    0    0    0    0  0.00000000000E+00  0.00000000000E+00  0.74505805969E-08  0.10566000000E+00  0.10566000000E+00 0. -1.
     999900   -1    0    0    0    0 -0.00000000000E+00 -0.00000000000E+00 -0.74505805969E-08  0.93827000000E+00  0.93827000000E+00 0.  1.
     999902    2    1    2    0    0  0.20241356156E-01  0.87296972040E-02  0.83061652470E-02  0.10203734193E+01  0.10201014667E+01 0.  0.
     999903    2    3    3    0    0 -0.28465057495E-01  0.43847442885E-01 -0.11662178631E+00  0.12952406961E+00  0.21047228369E-01 0.  0.
         14    1    1    2    0    0 -0.20241356156E-01 -0.87296972040E-02 -0.83061652470E-02  0.23556580682E-01  0.00000000000E+00 0.  1.
     999901    1    3    3    0    0  0.48706413651E-01 -0.35117745681E-01  0.12492795155E+00  0.89084934971E+00  0.88000000000E+00 0. -1.
        -11    1    4    4    0    0 -0.21777449724E-02  0.22001679474E-01 -0.43019282219E-01  0.48370820093E-01  0.51100000000E-03 0. -1.
         11    1    4    4    0    0 -0.26287312522E-01  0.21845763411E-01 -0.73602504087E-01  0.81153249519E-01  0.51100000000E-03 0.  1.
</event>
<event>
 8    1  0.1066842E+005  0.1043930E+01  0.7957747E-01            NaN
         13   -1    0    0    0    0  0.00000000000E+00  0.00000000000E+00  0.74505805969E-08  0.10566000000E+00  0.10566000000E+00 0.  1.
     999900   -1    0    0    0    0 -0.00000000000E+00 -0.00000000000E+00 -0.74505805969E-08  0.93827000000E+00  0.93827000000E+00 0.  1.
     999902    2    1    2    0    0  0.12073480767E-01 -0.48672152343E-02 -0.23618261033E-01  0.10169618526E+01  0.10166042143E+01 0.  0.
     999903    2    3    3    0    0 -0.15274586875E-01  0.24333688883E-01  0.11948832309E+00  0.12450451239E+00  0.19961784280E-01 0.  0.
         14    1    1    2    0    0 -0.12073480767E-01  0.48672152343E-02  0.23618261033E-01  0.26968147438E-01  0.00000000000E+00 0.  1.
     999901    1    3    3    0    0  0.27348067642E-01 -0.29200904118E-01 -0.14310658413E+00  0.89245734017E+00  0.88000000000E+00 0.  1.
        -11    1    4    4    0    0 -0.55629658694E-02  0.24348464266E-01  0.78537753550E-01  0.82415011709E-01  0.51100000000E-03 0.  1.
         11    1    4    4    0    0 -0.97116210057E-02 -0.14775382108E-04  0.40950569542E-01  0.42089500682E-01  0.51100000000E-03 0. -1.
</event>
<event>
 8    1  0.1066842E+005  0.1043930E+01  0.7957747E-01            NaN
         13   -1    0    0    0    0  0.00000000000E+00  0.00000000000E+00  0.74505805969E-08  0.10566000000E+00  0.10566000000E+00 0. -1.
     999900   -1    0    0    0    0 -0.00000000000E+00 -0.00000000000E+00 -0.74505805969E-08  0.93827000000E+00  0.93827000000E+00 0.  1.
     999902    2    1    2    0    0  0.60266868997E-02 -0.91470711546E-02 -0.21442937168E-01  0.10198511832E+01  0.10195668916E+01 0.  0.
     999903    2    3    3    0    0  0.60877705257E-01 -0.56548085258E-01 -0.10210381659E+00  0.13319360111E+00  0.20287066590E-01 0.  0.
         14    1    1    2    0    0 -0.60266868997E-02  0.91470711546E-02  0.21442937168E-01  0.24078816834E-01  0.00000000000E+00 0. -1.
     999901    1    3    3    0    0 -0.54851018357E-01  0.47401014103E-01  0.80660879419E-01  0.88665758206E+00  0.88000000000E+00 0. -1.
        -11    1    4    4    0    0  0.92615151665E-02 -0.10267632672E-01 -0.70110504840E-02  0.15511798534E-01  0.51100000000E-03 0. -1.
         11    1    4    4    0    0  0.51616190091E-01 -0.46280452586E-01 -0.95092766103E-01  0.11768180257E+00  0.51100000000E-03 0.  1.
</event>
<event>
 8    1  0.1066842E+005  0.1043930E+01  0.7957747E-01            NaN
         13   -1    0    0    0    0  0.00000000000E+00  0.00000000000E+00  0.74505805969E-08  0.10566000000E+00  0.10566000000E+00 0. -1.
     999900   -1    0    0    0    0 -0.00000000000E+00 -0.00000000000E+00 -0.74505805969E-08  0.93827000000E+00  0.93827000000E+00 0.  1.
     999902    2    1    2    0    0 -0.11031332218E-01  0.15154440661E-01  0.11318950270E-01  0.10220332880E+01  0.10217986963E+01 0.  0.
     999903    2    3    3    0    0 -0.45782083373E-01  0.76953049804E-01 -0.95866146579E-01  0.13269908320E+00  0.20023925442E-01 0.  0.
         14    1    1    2    0    0  0.11031332218E-01 -0.15154440661E-01 -0.11318950270E-01  0.21896712024E-01  0.00000000000E+00 0.  1.
     999901    1    3    3    0    0  0.34750751155E-01 -0.61798609143E-01  0.10718509685E+00  0.88933420478E+00  0.88000000000E+00 0. -1.
        -11    1    4    4    0    0 -0.17223600049E-01  0.43609526440E-01 -0.39916621823E-01  0.61579550288E-01  0.51100000000E-03 0.  1.
         11    1    4    4    0    0 -0.28558483324E-01  0.33343523363E-01 -0.55949524757E-01  0.71119532912E-01  0.51100000000E-03 0. -1.
</event>
<event>
 8    1  0.1066842E+005  0.1043930E+01  0.7957747E-01            NaN
         13   -1    0    0    0    0  0.00000000000E+00  0.00000000000E+00  0.74505805969E-08  0.10566000000E+00  0.10566000000E+00 0. -1.
     999900   -1    0    0    0    0 -0.00000000000E+00 -0.00000000000E+00 -0.74505805969E-08  0.93827000000E+00  0.93827000000E+00 0.  1.
     999902    2    1    2    0    0 -0.99076365458E-02 -0.18729491232E-01  0.11742269614E-01  0.10197053019E+01  0.10194175134E+01 0.  0.
     999903    2    3    3    0    0 -0.12817409816E+00  0.72814076133E-02  0.20896151815E-01  0.13136566167E+00  0.18402977139E-01 0.  0.
         14    1    1    2    0    0  0.99076365458E-02  0.18729491232E-01 -0.11742269614E-01  0.24224698129E-01  0.00000000000E+00 0.  1.
     999901    1    3    3    0    0  0.11826646162E+00 -0.26010898846E-01 -0.91538822010E-02  0.88833964021E+00  0.88000000000E+00 0. -1.
        -11    1    4    4    0    0 -0.71345228552E-01  0.12817308186E-01  0.14294164123E-01  0.73885108616E-01  0.51100000000E-03 0. -1.
         11    1    4    4    0    0 -0.56828869610E-01 -0.55359005731E-02  0.66019876920E-02  0.57480553049E-01  0.51100000000E-03 0.  1.
</event>
<event>
 8    1  0.1066842E+005  0.1043930E+01  0.7957747E-01            NaN
         13   -1    0    0    0    0  0.00000000000E+00  0.00000000000E+00  0.74505805969E-08  0.10566000000E+00  0.10566000000E+00 0. -1.
     999900   -1    0    0    0    0 -0.00000000000E+00 -0.00000000000E+00 -0.74505805969E-08  0.93827000000E+00  0.93827000000E+00 0.  1.
     999902    2    1    2    0    0 -0.52580728370E-02 -0.22745508775E-01  0.15955322078E-02  0.10205301876E+01  0.10202618843E+01 0.  0.
     999903    2    3    3    0    0  0.12011370227E+00 -0.32567829056E-01  0.35874369263E-01  0.13092937897E+00  0.19172035453E-01 0.  0.
         14    1    1    2    0    0  0.52580728370E-02  0.22745508775E-01 -0.15955322078E-02  0.23399812444E-01  0.00000000000E+00 0.  1.
     999901    1    3    3    0    0 -0.12537177511E+00  0.98223202811E-02 -0.34278837055E-01  0.88960080859E+00  0.88000000000E+00 0. -1.
        -11    1    4    4    0    0  0.40770534225E-01 -0.39950192773E-02  0.57131786775E-02  0.41365422416E-01  0.51100000000E-03 0.  1.
         11    1    4    4    0    0  0.79343168050E-01 -0.28572809779E-01  0.30161190585E-01  0.89563956553E-01  0.51100000000E-03 0. -1.
</event>
<event>
 8    1  0.1066842E+005  0.1043930E+01  0.7957747E-01            NaN
         13   -1    0    0    0    0  0.00000000000E+00  0.00000000000E+00  0.74505805969E-08  0.10566000000E+00  0.10566000000E+00 0. -1.
     999900   -1    0    0    0    0 -0.00000000000E+00 -0.00000000000E+00 -0.74505805969E-08  0.93827000000E+00  0.93827000000E+00 0.  1.
     999902    2    1    2    0    0 -0.15991585149E-02 -0.12102796780E-01  0.19931876370E-01  0.10205566243E+01  0.10202889339E+01 0.  0.
     999903    2    3    3    0    0  0.46649229712E-01 -0.11188638347E+00  0.50734538263E-01  0.13306945527E+00  0.20946911832E-01 0.  0.
         14    1    1    2    0    0  0.15991585149E-02  0.12102796780E-01 -0.19931876370E-01  0.23373375740E-01  0.00000000000E+00 0.  1.
     999901    1    3    3    0    0 -0.48248388227E-01  0.99783586689E-01 -0.30802661893E-01  0.88748716899E+00  0.88000000000E+00 0.  1.
        -11    1    4    4    0    0  0.20326837353E-01 -0.57903297985E-01  0.36288372327E-01  0.71295717413E-01  0.51100000000E-03 0.  1.
         11    1    4    4    0    0  0.26322392359E-01 -0.53983085483E-01  0.14446165936E-01  0.61773737859E-01  0.51100000000E-03 0. -1.
</event>
<event>
 8    1  0.1066842E+005  0.1043930E+01  0.7957747E-01            NaN
         13   -1    0    0    0    0  0.00000000000E+00  0.00000000000E+00  0.74505805969E-08  0.10566000000E+00  0.10566000000E+00 0. -1.
     999900   -1    0    0    0    0 -0.00000000000E+00 -0.00000000000E+00 -0.74505805969E-08  0.93827000000E+00  0.93827000000E+00 0.  1.
     999902    2    1    2    0    0  0.20824540477E-03  0.10672796351E-01 -0.20536230738E-01  0.10207850498E+01  0.10205226255E+01 0.  0.
     999903    2    3    3    0    0  0.73348470221E-01 -0.86435820587E-01 -0.63249437651E-01  0.13140099661E+00  0.20361271657E-01 0.  0.
         14    1    1    2    0    0 -0.20824540477E-03 -0.10672796351E-01  0.20536230738E-01  0.23144950227E-01  0.00000000000E+00 0. -1.
     999901    1    3    3    0    0 -0.73140224816E-01  0.97108616938E-01  0.42713206914E-01  0.88938405316E+00  0.88000000000E+00 0. -1.
        -11    1    4    4    0    0  0.98315187340E-02 -0.24486926489E-01 -0.12750537865E-01  0.29310504369E-01  0.51100000000E-03 0.  1.
         11    1    4    4    0    0  0.63516951487E-01 -0.61948894098E-01 -0.50498899786E-01  0.10209049224E+00  0.51100000000E-03 0. -1.
</event>
<event>
 8    1  0.1066842E+005  0.1043930E+01  0.7957747E-01            NaN
         13   -1    0    0    0    0  0.00000000000E+00  0.00000000000E+00  0.74505805969E-08  0.10566000000E+00  0.10566000000E+00 0. -1.
     999900   -1    0    0    0    0 -0.00000000000E+00 -0.00000000000E+00 -0.74505805969E-08  0.93827000000E+00  0.93827000000E+00 0. -1.
     999902    2    1    2    0    0 -0.23693177241E-02 -0.21056622917E-01  0.98050162134E-02  0.10205819085E+01  0.10203148036E+01 0.  0.
     999903    2    3    3    0    0 -0.41522640752E-01 -0.12133945753E+00  0.31435155928E-01  0.13375752193E+00  0.21342726994E-01 0.  0.
         14    1    1    2    0    0  0.23693177241E-02  0.21056622917E-01 -0.98050162134E-02  0.23348091530E-01  0.00000000000E+00 0.  1.
     999901    1    3    3    0    0  0.39153323028E-01  0.10028283461E+00 -0.21630139715E-01  0.88682438654E+00  0.88000000000E+00 0. -1.
        -11    1    4    4    0    0 -0.27886257690E-01 -0.49568683857E-01  0.16060259397E-01  0.59100683924E-01  0.51100000000E-03 0. -1.
         11    1    4    4    0    0 -0.13636383062E-01 -0.71770773672E-01  0.15374896531E-01  0.74656838004E-01  0.51100000000E-03 0.  1.
</event>
<event>
 8    1  0.1066842E+005  0.1043930E+01  0.7957747E-01            NaN
         13   -1    0    0    0    0  0.00000000000E+00  0.00000000000E+00  0.74505805969E-08  0.10566000000E+00  0.10566000000E+00 0. -1.
     999900   -1    0    0    0    0 -0.00000000000E+00 -0.00000000000E+00 -0.74505805969E-08  0.93827000000E+00  0.93827000000E+00 0.  1.
     999902    2    1    2    0    0  0.17584783501E-01  0.28505937408E-02  0.16154088397E-01  0.10198820257E+01  0.10195984706E+01 0.  0.
     999903    2    3    3    0    0 -0.76246805530E-01 -0.26532890037E-01  0.10022292954E+00  0.13042414235E+00  0.21171955405E-01 0.  0.
         14    1    1    2    0    0 -0.17584783501E-01 -0.28505937408E-02 -0.16154088397E-01  0.24047974289E-01  0.00000000000E+00 0.  1.
     999901    1    3    3    0    0  0.93831589031E-01  0.29383483777E-01 -0.84068841142E-01  0.88945788336E+00  0.88000000000E+00 0.  1.
        -11    1    4    4    0    0 -0.55440045789E-01 -0.24135596839E-01  0.85887955577E-01  0.10503869642E+00  0.51100000000E-03 0.  1.
         11    1    4    4    0    0 -0.20806759740E-01 -0.23972931976E-02  0.14334973963E-01  0.25385445930E-01  0.51100000000E-03 0. -1.
</event>
<event>
 8    1  0.1066842E+005  0.1043930E+01  0.7957747E-01            NaN
         13   -1    0    0    0    0  0.00000000000E+00  0.00000000000E+00  0.74505805969E-08  0.10566000000E+00  0.10566000000E+00 0.  1.
     999900   -1    0    0    0    0 -0.00000000000E+00 -0.00000000000E+00 -0.74505805969E-08  0.93827000000E+00  0.93827000000E+00 0.  1.
     999902    2    1    2    0    0  0.19915423864E-01  0.12636747912E-01 -0.14138366773E-02  0.10203014063E+01  0.10200277689E+01 0.  0.
     999903    2    3    3    0    0 -0.52322085876E-01 -0.11141773033E+00 -0.29988302282E-01  0.12821157257E+00  0.19682422756E-01 0.  0.
         14    1    1    2    0    0 -0.19915423864E-01 -0.12636747912E-01  0.14138366773E-02  0.23628593687E-01  0.00000000000E+00 0. -1.
     999901    1    3    3    0    0  0.72237509740E-01  0.12405447824E+00  0.28574465604E-01  0.89208983374E+00  0.88000000000E+00 0.  1.
        -11    1    4    4    0    0 -0.31700854409E-01 -0.87420514050E-01 -0.21407439718E-01  0.95424472979E-01  0.51100000000E-03 0. -1.
         11    1    4    4    0    0 -0.20621231467E-01 -0.23997216275E-01 -0.85808625637E-02  0.32787099590E-01  0.51100000000E-03 0.  1.
</event>
<event>
 8    1  0.1066842E+005  0.1043930E+01  0.7957747E-01            NaN
         13   -1    0    0    0    0  0.00000000000E+00  0.00000000000E+00  0.74505805969E-08  0.10566000000E+00  0.10566000000E+00 0. -1.
     999900   -1    0    0    0    0 -0.00000000000E+00 -0.00000000000E+00 -0.74505805969E-08  0.93827000000E+00  0.93827000000E+00 0. -1.
     999902    2    1    2    0    0  0.46711816344E-02  0.21374566181E-01 -0.70632410634E-02  0.10209391020E+01  0.10206801990E+01 0.  0.
     999903    2    3    3    0    0  0.95378056517E-01  0.31480686455E-01  0.82654344782E-01  0.13168148125E+00  0.20500353868E-01 0.  0.
         14    1    1    2    0    0 -0.46711816344E-02 -0.21374566181E-01  0.70632410634E-02  0.22990898017E-01  0.00000000000E+00 0. -1.
     999901    1    3    3    0    0 -0.90706874883E-01 -0.10106120274E-01 -0.89717585845E-01  0.88925762073E+00  0.88000000000E+00 0. -1.
        -11    1    4    4    0    0  0.55172397807E-01  0.80650478318E-02  0.49321700502E-01  0.74444138370E-01  0.51100000000E-03 0.  1.
         11    1    4    4    0    0  0.40205658710E-01  0.23415638624E-01  0.33332644280E-01  0.57237342882E-01  0.51100000000E-03 0. -1.
</event>
<event>
 8    1  0.1066842E+005  0.1043930E+01  0.7957747E-01            NaN
         13   -1    0    0    0    0  0.00000000000E+00  0.00000000000E+00  0.74505805969E-08  0.10566000000E+00  0.10566000000E+00 0. -1.
     999900   -1    0    0    0    0 -0.00000000000E+00 -0.00000000000E+00 -0.74505805969E-08  0.93827000000E+00  0.93827000000E+00 0.  1.
     999902    2    1    2    0    0  0.13119409159E-01  0.36771471970E-02  0.18858791889E-01  0.10206642668E+01  0.10203990647E+01 0.  0.
     999903    2    3    3    0    0  0.65235475021E-01  0.62085482570E-01  0.96133905464E-01  0.13381644385E+00  0.23555010438E-01 0.  0.
         14    1    1    2    0    0 -0.13119409159E-01 -0.36771471970E-02 -0.18858791889E-01  0.23265733165E-01  0.00000000000E+00 0.  1.
     999901    1    3    3    0    0 -0.52116065862E-01 -0.58408335373E-01 -0.77275113576E-01  0.88684782299E+00  0.88000000000E+00 0.  1.
        -11    1    4    4    0    0  0.26616891671E-01  0.39914534887E-01  0.42412242949E-01  0.64036618356E-01  0.51100000000E-03 0.  1.
         11    1    4    4    0    0  0.38618583350E-01  0.22170947683E-01  0.53721662515E-01  0.69779825491E-01  0.51100000000E-03 0. -1.
</event>
<event>
 8    1  0.1066842E+005  0.1043930E+01  0.7957747E-01            NaN
         13   -1    0    0    0    0  0.00000000000E+00  0.00000000000E+00  0.74505805969E-08  0.10566000000E+00  0.10566000000E+00 0.  1.
     999900   -1    0    0    0    0 -0.00000000000E+00 -0.00000000000E+00 -0.74505805969E-08  0.93827000000E+00  0.93827000000E+00 0. -1.
     999902    2    1    2    0    0  0.18751883992E-01  0.14325090094E-01  0.36861420917E-02  0.10200463444E+01  0.10197666967E+01 0.  0.
     999903    2    3    3    0    0  0.70250685264E-01  0.10766121553E+00 -0.27622196923E-01  0.13306045338E+00  0.20396136460E-01 0.  0.
         14    1    1    2    0    0 -0.18751883992E-01 -0.14325090094E-01 -0.36861420917E-02  0.23883655561E-01  0.00000000000E+00 0.  1.
     999901    1    3    3    0    0 -0.51498801272E-01 -0.93336125432E-01  0.31308339015E-01  0.88698589106E+00  0.88000000000E+00 0. -1.
        -11    1    4    4    0    0  0.12769150947E-01  0.36481098481E-01 -0.73133449898E-02  0.39340410499E-01  0.51100000000E-03 0. -1.
         11    1    4    4    0    0  0.57481534316E-01  0.71180117045E-01 -0.20308851933E-01  0.93720042882E-01  0.51100000000E-03 0.  1.
</event>
<event>
 8    1  0.1066842E+005  0.1043930E+01  0.7957747E-01            NaN
         13   -1    0    0    0    0  0.00000000000E+00  0.00000000000E+00  0.74505805969E-08  0.10566000000E+00  0.10566000000E+00 0.  1.
     999900   -1    0    0    0    0 -0.00000000000E+00 -0.00000000000E+00 -0.74505805969E-08  0.93827000000E+00  0.93827000000E+00 0.  1.
     999902    2    1    2    0    0  0.21637341137E-01  0.51650223838E-02  0.10262848404E-01  0.10194314685E+01  0.10191370570E+01 0.  0.
     999903    2    3    3    0    0  0.90762606732E-01 -0.15884156347E-01  0.93365369465E-01  0.13256766878E+00  0.19155609795E-01 0.  0.
         14    1    1    2    0    0 -0.21637341137E-01 -0.51650223838E-02 -0.10262848404E-01  0.24498531488E-01  0.00000000000E+00 0. -1.
     999901    1    3    3    0    0 -0.69125265595E-01  0.21049178731E-01 -0.83102521061E-01  0.88686379973E+00  0.88000000000E+00 0.  1.
        -11    1    4    4    0    0  0.49378830385E-01 -0.17442287105E-01  0.46635921922E-01  0.70126119272E-01  0.51100000000E-03 0. -1.
         11    1    4    4    0    0  0.41383776348E-01  0.15581307582E-02  0.46729447543E-01  0.62441549508E-01  0.51100000000E-03 0.  1.
</event>
<event>
 8    1  0.1066842E+005  0.1043930E+01  0.7957747E-01            NaN
         13   -1    0    0    0    0  0.00000000000E+00  0.00000000000E+00  0.74505805969E-08  0.10566000000E+00  0.10566000000E+00 0.  1.
     999900   -1    0    0    0    0 -0.00000000000E+00 -0.00000000000E+00 -0.74505805969E-08  0.93827000000E+00  0.93827000000E+00 0. -1.
     999902    2    1    2    0    0 -0.76142171596E-03  0.21962478981E-01  0.11245110919E-01  0.10192443206E+01  0.10189453383E+01 0.  0.
     999903    2    3    3    0    0 -0.49423794106E-01  0.10195020435E+00 -0.61961866404E-01  0.13125483634E+00  0.23494756512E-01 0.  0.
         14    1    1    2    0    0  0.76142171596E-03 -0.21962478981E-01 -0.11245110919E-01  0.24685679363E-01  0.00000000000E+00 0.  1.
     999901    1    3    3    0    0  0.48662372390E-01 -0.79987725368E-01  0.73206977323E-01  0.88798948430E+00  0.88000000000E+00 0.  1.
        -11    1    4    4    0    0 -0.34821203269E-01  0.78011831531E-01 -0.34911618150E-01  0.92290000860E-01  0.51100000000E-03 0.  1.
         11    1    4    4    0    0 -0.14602590837E-01  0.23938372818E-01 -0.27050248253E-01  0.38964835479E-01  0.51100000000E-03 0. -1.
</event>
<event>
 8    1  0.1066842E+005  0.1043930E+01  0.7957747E-01            NaN
         13   -1    0    0    0    0  0.00000000000E+00  0.00000000000E+00  0.74505805969E-08  0.10566000000E+00  0.10566000000E+00 0. -1.
     999900   -1    0    0    0    0 -0.00000000000E+00 -0.00000000000E+00 -0.74505805969E-08  0.93827000000E+00  0.93827000000E+00 0. -1.
     999902    2    1    2    0    0 -0.24626785250E-01  0.40615748480E-03 -0.39303432353E-02  0.10189882456E+01  0.10186829504E+01 0.  0.
     999903    2    3    3    0    0  0.36552192218E-01  0.12045643557E+00 -0.17176593947E-01  0.12863415887E+00  0.20146856402E-01 0.  0.
         14    1    1    2    0    0  0.24626785250E-01 -0.40615748480E-03  0.39303432353E-02  0.24941754421E-01  0.00000000000E+00 0. -1.
     999901    1    3    3    0    0 -0.61178977468E-01 -0.12005027809E+00  0.13246250712E-01  0.89035408670E+00  0.88000000000E+00 0.  1.
        -11    1    4    4    0    0  0.25785448452E-01  0.10091950040E+00 -0.20242073429E-01  0.10611143940E+00  0.51100000000E-03 0.  1.
         11    1    4    4    0    0  0.10766743766E-01  0.19536935170E-01  0.30654794819E-02  0.22522719477E-01  0.51100000000E-03 0. -1.
</event>
<event>
 8    1  0.1066842E+005  0.1043930E+01  0.7957747E-01            NaN
         13   -1    0    0    0    0  0.00000000000E+00  0.00000000000E+00  0.74505805969E-08  0.10566000000E+00  0.10566000000E+00 0.  1.
     999900   -1    0    0    0    0 -0.00000000000E+00 -0.00000000000E+00 -0.74505805969E-08  0.93827000000E+00  0.93827000000E+00 0. -1.
     999902    2    1    2    0    0  0.21224087208E-02 -0.14194421541E-01  0.18953029387E-01  0.10201559901E+01  0.10198789343E+01 0.  0.
     999903    2    3    3    0    0  0.12174965732E+00 -0.45095280204E-01 -0.22089011248E-02  0.13127277567E+00  0.19263930859E-01 0.  0.
         14    1    1    2    0    0 -0.21224087208E-02  0.14194421541E-01 -0.18953029387E-01  0.23774009856E-01  0.00000000000E+00 0. -1.
     999901    1    3    3    0    0 -0.11962724860E+00  0.30900858663E-01  0.21161930512E-01  0.88888321448E+00  0.88000000000E+00 0. -1.
        -11    1    4    4    0    0  0.10252930240E+00 -0.41615567200E-01  0.41283839818E-02  0.11073128717E+00  0.51100000000E-03 0. -1.
         11    1    4    4    0    0  0.19220354929E-01 -0.34797130043E-02 -0.63372851066E-02  0.20541488498E-01  0.51100000000E-03 0.  1.
</event>
<event>
 8    1  0.1066842E+005  0.1043930E+01  0.7957747E-01            NaN
         13   -1    0    0    0    0  0.00000000000E+00  0.00000000000E+00  0.74505805969E-08  0.10566000000E+00  0.10566000000E+00 0.  1.
     999900   -1    0    0    0    0 -0.00000000000E+00 -0.00000000000E+00 -0.74505805969E-08  0.93827000000E+00  0.93827000000E+00 0. -1.
     999902    2    1    2    0    0 -0.96671294261E-02  0.17953923986E-01  0.12531006863E-01  0.10199962809E+01  0.10197154457E+01 0.  0.
     999903    2    3    3    0    0 -0.48454486885E-02 -0.12223553146E+00 -0.32063153492E-01  0.12777154957E+00  0.18235118409E-01 0.  0.
         14    1    1    2    0    0  0.96671294261E-02 -0.17953923986E-01 -0.12531006863E-01  0.23933719118E-01  0.00000000000E+00 0. -1.
     999901    1    3    3    0    0 -0.48216807376E-02  0.14018945545E+00  0.44594160355E-01  0.89222473131E+00  0.88000000000E+00 0.  1.
        -11    1    4    4    0    0  0.66149378968E-02 -0.47316047858E-01 -0.97617287096E-02  0.48765953868E-01  0.51100000000E-03 0. -1.
         11    1    4    4    0    0 -0.11460386585E-01 -0.74919483604E-01 -0.22301424782E-01  0.79005595703E-01  0.51100000000E-03 0.  1.
</event>
<event>
 8    1  0.1066842E+005  0.1043930E+01  0.7957747E-01            NaN
         13   -1    0    0    0    0  0.00000000000E+00  0.00000000000E+00  0.74505805969E-08  0.10566000000E+00  0.10566000000E+00 0. -1.
     999900   -1    0    0    0    0 -0.00000000000E+00 -0.00000000000E+00 -0.74505805969E-08  0.93827000000E+00  0.93827000000E+00 0. -1.
     999902    2    1    2    0    0 -0.20978919466E-01 -0.10449024742E-03  0.10370256571E-01  0.10205276881E+01  0.10202593268E+01 0.  0.
     999903    2    3    3    0    0  0.59456939247E-01 -0.14813709186E-02 -0.11221834697E+00  0.12839552925E+00  0.18844958179E-01 0.  0.
         14    1    1    2    0    0  0.20978919466E-01  0.10449024742E-03 -0.10370256571E-01  0.23402311884E-01  0.00000000000E+00 0. -1.
     999901    1    3    3    0    0 -0.80435858713E-01  0.13768806712E-02  0.12258860355E+00  0.89213215887E+00  0.88000000000E+00 0.  1.
        -11    1    4    4    0    0  0.40935184062E-01  0.64869252320E-02 -0.84467533546E-01  0.94089291832E-01  0.51100000000E-03 0.  1.
         11    1    4    4    0    0  0.18521755185E-01 -0.79682961506E-02 -0.27750813429E-01  0.34306237416E-01  0.51100000000E-03 0. -1.
</event>
<event>
 8    1  0.1066842E+005  0.1043930E+01  0.7957747E-01            NaN
         13   -1    0    0    0    0  0.00000000000E+00  0.00000000000E+00  0.74505805969E-08  0.10566000000E+00  0.10566000000E+00 0. -1.
     999900   -1    0    0    0    0 -0.00000000000E+00 -0.00000000000E+00 -0.74505805969E-08  0.93827000000E+00  0.93827000000E+00 0.  1.
     999902    2    1    2    0    0  0.12419868557E-01  0.75756825148E-02  0.18880528057E-01  0.10200947647E+01  0.10198162632E+01 0.  0.
     999903    2    3    3    0    0 -0.12257363932E+00  0.35034963341E-01  0.17150109784E-01  0.12937581152E+00  0.13864653874E-01 0.  0.
         14    1    1    2    0    0 -0.12419868557E-01 -0.75756825148E-02 -0.18880528057E-01  0.23835235268E-01  0.00000000000E+00 0.  1.
     999901    1    3    3    0    0  0.13499350788E+00 -0.27459280827E-01  0.17304182738E-02  0.89071895322E+00  0.88000000000E+00 0. -1.
        -11    1    4    4    0    0 -0.83122330860E-01  0.18323364889E-01  0.15332259644E-01  0.86489345559E-01  0.51100000000E-03 0.  1.
         11    1    4    4    0    0 -0.39451308460E-01  0.16711598452E-01  0.18178501395E-02  0.42886465956E-01  0.51100000000E-03 0. -1.
</event>
<event>
 8    1  0.1066842E+005  0.1043930E+01  0.7957747E-01            NaN
         13   -1    0    0    0    0  0.00000000000E+00  0.00000000000E+00  0.74505805969E-08  0.10566000000E+00  0.10566000000E+00 0. -1.
     999900   -1    0    0    0    0 -0.00000000000E+00 -0.00000000000E+00 -0.74505805969E-08  0.93827000000E+00  0.93827000000E+00 0.  1.
     999902    2    1    2    0    0 -0.13604051840E-01  0.87456622920E-02  0.17773595765E-01  0.10198996537E+01  0.10196165192E+01 0.  0.
     999903    2    3    3    0    0  0.13715082680E-01 -0.12305983224E+00  0.30647938013E-01  0.12957119064E+00  0.22750198573E-01 0.  0.
         14    1    1    2    0    0  0.13604051840E-01 -0.87456622920E-02 -0.17773595765E-01  0.24030346269E-01  0.00000000000E+00 0. -1.
     999901    1    3    3    0    0 -0.27319134520E-01  0.13180549453E+00 -0.12874342248E-01  0.89032846309E+00  0.88000000000E+00 0.  1.
        -11    1    4    4    0    0  0.10871981856E-02 -0.54448475658E-01  0.30557562922E-02  0.54547385537E-01  0.51100000000E-03 0. -1.
         11    1    4    4    0    0  0.12627884494E-01 -0.68611356585E-01  0.27592181720E-01  0.75023805104E-01  0.51100000000E-03 0.  1.
</event>
<event>
 8    1  0.1066842E+005  0.1043930E+01  0.7957747E-01            NaN
         13   -1    0    0    0    0  0.00000000000E+00  0.00000000000E+00  0.74505805969E-08  0.10566000000E+00  0.10566000000E+00 0.  1.
     999900   -1    0    0    0    0 -0.00000000000E+00 -0.00000000000E+00 -0.74505805969E-08  0.93827000000E+00  0.93827000000E+00 0. -1.
     999902    2    1    2    0    0  0.10387648223E-01 -0.88987070081E-02  0.17782778807E-01  0.10214952626E+01  0.10212488698E+01 0.  0.
     999903    2    3    3    0    0  0.16895906828E-01 -0.12965288608E+00 -0.12244301065E-01  0.13271770056E+00  0.19202150812E-01 0.  0.
         14    1    1    2    0    0 -0.10387648223E-01  0.88987070081E-02 -0.17782778807E-01  0.22434737442E-01  0.00000000000E+00 0. -1.
     999901    1    3    3    0    0 -0.65082586054E-02  0.12075417907E+00  0.30027079872E-01  0.88877756200E+00  0.88000000000E+00 0.  1.
        -11    1    4    4    0    0  0.63228561858E-02 -0.60931562281E-01  0.37306898824E-02  0.61374367291E-01  0.51100000000E-03 0. -1.
         11    1    4    4    0    0  0.10573050642E-01 -0.68721323799E-01 -0.15974990948E-01  0.71343333265E-01  0.51100000000E-03 0.  1.
</event>
<event>
 7    1  0.1066842E+005  0.1043930E+01  0.7957747E-01            NaN
         13   -1    0    0    0    0  0.00000000000E+00  0.00000000000E+00  0.74505805969E-08  0.10566000000E+00  0.10566000000E+00 0.  1.
     999900   -1    0    0    0    0 -0.00000000000E+00 -0.00000000000E+00 -0.74505805969E-08  0.93827000000E+00  0.93827000000E+00 0. -1.
     999903    2    1    2    0    0 -0.99217753248E-01  0.16161108997E-01  0.38127439992E-01  0.10929191877E+00  0.19638681839E-01 0.  0.
         14    1    1    2    0    0 -0.23315636619E-01 -0.34537486661E-01 -0.18883411715E-01  0.45749755560E-01  0.00000000000E+00 0. -1.
     999901    1    1    2    0    0  0.12253338987E+00  0.18376377665E-01 -0.19244028277E-01  0.88888832567E+00  0.88000000000E+00 0. -1.
        -11    1    3    3    0    0 -0.76498233305E-01  0.42329655436E-02  0.26027652192E-01  0.80917226199E-01  0.51100000000E-03 0.  1.
         11    1    3    3    0    0 -0.22719519943E-01  0.11928143453E-01  0.12099787800E-01  0.28374692571E-01  0.51100000000E-03 0. -1.
</event>
<event>
 8    1  0.1066842E+005  0.1043930E+01  0.7957747E-01            NaN
         13   -1    0    0    0    0  0.00000000000E+00  0.00000000000E+00  0.74505805969E-08  0.10566000000E+00  0.10566000000E+00 0. -1.
     999900   -1    0    0    0    0 -0.00000000000E+00 -0.00000000000E+00 -0.74505805969E-08  0.93827000000E+00  0.93827000000E+00 0.  1.
     999902    2    1    2    0    0  0.20638383150E-01 -0.57405019845E-02  0.53248789665E-02  0.10218562473E+01  0.10216178050E+01 0.  0.
     999903    2    3    3    0    0  0.12256304906E+00  0.13665915063E-01 -0.48118293630E-01  0.13415054199E+00  0.21737973837E-01 0.  0.
         14    1    1    2    0    0 -0.20638383150E-01  0.57405019845E-02 -0.53248789665E-02  0.22073752696E-01  0.00000000000E+00 0.  1.
     999901    1    3    3    0    0 -0.10192466591E+00 -0.19406417047E-01  0.53443172597E-01  0.88770570531E+00  0.88000000000E+00 0. -1.
        -11    1    4    4    0    0  0.91092935862E-01  0.19033773001E-01 -0.39355375302E-01  0.10104115085E+00  0.51100000000E-03 0. -1.
         11    1    4    4    0    0  0.31470113195E-01 -0.53678579383E-02 -0.87629183281E-02  0.33109391145E-01  0.51100000000E-03 0.  1.
</event>
<event>
 8    1  0.1066842E+005  0.1043930E+01  0.7957747E-01            NaN
         13   -1    0    0    0    0  0.00000000000E+00  0.00000000000E+00  0.74505805969E-08  0.10566000000E+00  0.10566000000E+00 0. -1.
     999900   -1    0    0    0    0 -0.00000000000E+00 -0.00000000000E+00 -0.74505805969E-08  0.93827000000E+00  0.93827000000E+00 0. -1.
     999902    2    1    2    0    0  0.11372288585E-01 -0.71795534032E-02 -0.15608119615E-01  0.10233268854E+01  0.10231194583E+01 0.  0.
     999903    2    3    3    0    0  0.10025292873E+00  0.84080839529E-01 -0.23231189601E-01  0.13412143177E+00  0.18128237497E-01 0.  0.
         14    1    1    2    0    0 -0.11372288585E-01  0.71795534032E-02  0.15608119615E-01  0.20603114634E-01  0.00000000000E+00 0. -1.
     999901    1    3    3    0    0 -0.88880640144E-01 -0.91260392932E-01  0.76230699865E-02  0.88920545360E+00  0.88000000000E+00 0. -1.
        -11    1    4    4    0    0  0.58349776196E-01  0.37656606220E-01 -0.95430756993E-02  0.70100269535E-01  0.51100000000E-03 0.  1.
         11    1    4    4    0    0  0.41903152534E-01  0.46424233308E-01 -0.13688113902E-01  0.64021162234E-01  0.51100000000E-03 0. -1.
</event>
<event>
 8    1  0.1066842E+005  0.1043930E+01  0.7957747E-01            NaN
         13   -1    0    0    0    0  0.00000000000E+00  0.00000000000E+00  0.74505805969E-08  0.10566000000E+00  0.10566000000E+00 0. -1.
     999900   -1    0    0    0    0 -0.00000000000E+00 -0.00000000000E+00 -0.74505805969E-08  0.93827000000E+00  0.93827000000E+00 0. -1.
     999902    2    1    2    0    0 -0.10122319501E-02  0.24049812762E-01 -0.36490491123E-02  0.10195838778E+01  0.10192931620E+01 0.  0.
     999903    2    3    3    0    0 -0.19247111162E-01 -0.41008521189E-01  0.11841284619E+00  0.12859330325E+00  0.21505473664E-01 0.  0.
         14    1    1    2    0    0  0.10122319501E-02 -0.24049812762E-01  0.36490491123E-02  0.24346122213E-01  0.00000000000E+00 0. -1.
     999901    1    3    3    0    0  0.18234879212E-01  0.65058333951E-01 -0.12206189531E+00  0.89099057454E+00  0.88000000000E+00 0. -1.
        -11    1    4    4    0    0 -0.12724119791E-02 -0.41303079647E-02  0.38674341603E-01  0.38918431309E-01  0.51100000000E-03 0. -1.
         11    1    4    4    0    0 -0.17974699183E-01 -0.36878213224E-01  0.79738504592E-01  0.89674871937E-01  0.51100000000E-03 0.  1.
</event>
<event>
 8    1  0.1066842E+005  0.1043930E+01  0.7957747E-01            NaN
         13   -1    0    0    0    0  0.00000000000E+00  0.00000000000E+00  0.74505805969E-08  0.10566000000E+00  0.10566000000E+00 0.  1.
     999900   -1    0    0    0    0 -0.00000000000E+00 -0.00000000000E+00 -0.74505805969E-08  0.93827000000E+00  0.93827000000E+00 0.  1.
     999902    2    1    2    0    0  0.23617866525E-01  0.38097605600E-02 -0.26483589640E-02  0.10198606897E+01  0.10195766252E+01 0.  0.
     999903    2    3    3    0    0  0.85001335037E-01  0.28381385537E-01 -0.95606041392E-01  0.13249784072E+00  0.19606953941E-01 0.  0.
         14    1    1    2    0    0 -0.23617866525E-01 -0.38097605600E-02  0.26483589640E-02  0.24069310333E-01  0.00000000000E+00 0. -1.
     999901    1    3    3    0    0 -0.61383468512E-01 -0.24571624977E-01  0.92957682428E-01  0.88736284894E+00  0.88000000000E+00 0. -1.
        -11    1    4    4    0    0  0.44963900058E-01  0.14134621664E-01 -0.36092661253E-01  0.59367340814E-01  0.51100000000E-03 0.  1.
         11    1    4    4    0    0  0.40037434980E-01  0.14246763873E-01 -0.59513380139E-01  0.73130499911E-01  0.51100000000E-03 0. -1.
</event>
<event>
 7    1  0.1066842E+005  0.1043930E+01  0.7957747E-01            NaN
         13   -1    0    0    0    0  0.00000000000E+00  0.00000000000E+00  0.74505805969E-08  0.10566000000E+00  0.10566000000E+00 0. -1.
     999900   -1    0    0    0    0 -0.00000000000E+00 -0.00000000000E+00 -0.74505805969E-08  0.93827000000E+00  0.93827000000E+00 0. -1.
     999903    2    1    2    0    0  0.23730416149E-02  0.42290561579E-01  0.91088647743E-01  0.10236940725E+00  0.19703575001E-01 0.  0.
         14    1    1    2    0    0 -0.45431316811E-01 -0.23778678762E-01 -0.27086387799E-01  0.57992262543E-01  0.00000000000E+00 0. -1.
     999901    1    1    2    0    0  0.43058275196E-01 -0.18511882816E-01 -0.64002259944E-01  0.88356833021E+00  0.88000000000E+00 0. -1.
        -11    1    3    3    0    0 -0.14794454336E-02  0.14659057051E-01  0.13782503531E-01  0.20181556852E-01  0.51100000000E-03 0. -1.
         11    1    3    3    0    0  0.38524870486E-02  0.27631504528E-01  0.77306144212E-01  0.82187850397E-01  0.51100000000E-03 0.  1.
</event>
<event>
 8    1  0.1066842E+005  0.1043930E+01  0.7957747E-01            NaN
         13   -1    0    0    0    0  0.00000000000E+00  0.00000000000E+00  0.74505805969E-08  0.10566000000E+00  0.10566000000E+00 0.  1.
     999900   -1    0    0    0    0 -0.00000000000E+00 -0.00000000000E+00 -0.74505805969E-08  0.93827000000E+00  0.93827000000E+00 0. -1.
     999902    2    1    2    0    0 -0.20225912570E-01  0.75604828612E-03  0.12458257526E-01  0.10201630623E+01  0.10198861732E+01 0.  0.
     999903    2    3    3    0    0  0.81182767998E-01 -0.44012232791E-01  0.89258230530E-01  0.12988998319E+00  0.19407667582E-01 0.  0.
         14    1    1    2    0    0  0.20225912570E-01 -0.75604828612E-03 -0.12458257526E-01  0.23766937727E-01  0.00000000000E+00 0. -1.
     999901    1    3    3    0    0 -0.10140868057E+00  0.44768281077E-01 -0.76799973004E-01  0.89027307908E+00  0.88000000000E+00 0. -1.
        -11    1    4    4    0    0  0.18224904996E-02 -0.58527657934E-02  0.41211849051E-02  0.74041626856E-02  0.51100000000E-03 0.  1.
         11    1    4    4    0    0  0.79360277498E-01 -0.38159466998E-01  0.85137045625E-01  0.12248582051E+00  0.51100000000E-03 0. -1.
</event>
<event>
 8    1  0.1066842E+005  0.1043930E+01  0.7957747E-01            NaN
         13   -1    0    0    0    0  0.00000000000E+00  0.00000000000E+00  0.74505805969E-08  0.10566000000E+00  0.10566000000E+00 0.  1.
     999900   -1    0    0    0    0 -0.00000000000E+00 -0.00000000000E+00 -0.74505805969E-08  0.93827000000E+00  0.93827000000E+00 0. -1.
     999902    2    1    2    0    0 -0.11994475874E-01 -0.25224440426E-02 -0.21056438224E-01  0.10195660150E+01  0.10192748673E+01 0.  0.
     999903    2    3    3    0    0  0.11707051832E+00  0.37553842674E-01 -0.34737622585E-01  0.12914417322E+00  0.18860479660E-01 0.  0.
         14    1    1    2    0    0  0.11994475874E-01  0.25224440426E-02  0.21056438224E-01  0.24363985021E-01  0.00000000000E+00 0.  1.
     999901    1    3    3    0    0 -0.12906499420E+00 -0.40076286717E-01  0.13681184361E-01  0.89042184176E+00  0.88000000000E+00 0.  1.
        -11    1    4    4    0    0  0.84025927135E-01  0.25883497487E-01 -0.15885776571E-01  0.89347248930E-01  0.51100000000E-03 0. -1.
         11    1    4    4    0    0  0.33044591187E-01  0.11670345187E-01 -0.18851846014E-01  0.39796924286E-01  0.51100000000E-03 0.  1.
</event>
<event>
 8    1  0.1066842E+005  0.1043930E+01  0.7957747E-01            NaN
         13   -1    0    0    0    0  0.00000000000E+00  0.00000000000E+00  0.74505805969E-08  0.10566000000E+00  0.10566000000E+00 0. -1.
     999900   -1    0    0    0    0 -0.00000000000E+00 -0.00000000000E+00 -0.74505805969E-08  0.93827000000E+00  0.93827000000E+00 0. -1.
     999902    2    1    2    0    0  0.19358262431E-01 -0.69653744441E-02  0.12080044329E-01  0.10200723757E+01  0.10197933445E+01 0.  0.
     999903    2    3    3    0    0 -0.94645467165E-01 -0.81767971264E-01  0.24013117311E-01  0.12949128616E+00  0.23400807842E-01 0.  0.
         14    1    1    2    0    0 -0.19358262431E-01  0.69653744441E-02 -0.12080044329E-01  0.23857624284E-01  0.00000000000E+00 0. -1.
     999901    1    3    3    0    0  0.11400372960E+00  0.74802596820E-01 -0.11933072982E-01  0.89058108956E+00  0.88000000000E+00 0. -1.
        -11    1    4    4    0    0 -0.63458804226E-01 -0.53226704330E-01  0.45617823031E-02  0.82952835192E-01  0.51100000000E-03 0.  1.
         11    1    4    4    0    0 -0.31186662938E-01 -0.28541266934E-01  0.19451335008E-01  0.46538450963E-01  0.51100000000E-03 0. -1.
</event>
<event>
 8    1  0.1066842E+005  0.1043930E+01  0.7957747E-01            NaN
         13   -1    0    0    0    0  0.00000000000E+00  0.00000000000E+00  0.74505805969E-08  0.10566000000E+00  0.10566000000E+00 0.  1.
     999900   -1    0    0    0    0 -0.00000000000E+00 -0.00000000000E+00 -0.74505805969E-08  0.93827000000E+00  0.93827000000E+00 0. -1.
     999902    2    1    2    0    0  0.44177395161E-04 -0.22246896281E-01  0.75879048464E-02  0.10204246252E+01  0.10201538673E+01 0.  0.
     999903    2    3    3    0    0 -0.12776470749E-01  0.63382586976E-01  0.11112261684E+00  0.13013466454E+00  0.20154513233E-01 0.  0.
         14    1    1    2    0    0 -0.44177395161E-04  0.22246896281E-01 -0.75879048464E-02  0.23505374827E-01  0.00000000000E+00 0. -1.
     999901    1    3    3    0    0  0.12820648144E-01 -0.85629483257E-01 -0.10353471200E+00  0.89028996064E+00  0.88000000000E+00 0. -1.
        -11    1    4    4    0    0 -0.25679290736E-02  0.51161304285E-01  0.77115161658E-01  0.92580141469E-01  0.51100000000E-03 0.  1.
         11    1    4    4    0    0 -0.10208541675E-01  0.12221282691E-01  0.34007455184E-01  0.37554523068E-01  0.51100000000E-03 0. -1.
</event>
<event>
 8    1  0.1066842E+005  0.1043930E+01  0.7957747E-01            NaN
         13   -1    0    0    0    0  0.00000000000E+00  0.00000000000E+00  0.74505805969E-08  0.10566000000E+00  0.10566000000E+00 0. -1.
     999900   -1    0    0    0    0 -0.00000000000E+00 -0.00000000000E+00 -0.74505805969E-08  0.93827000000E+00  0.93827000000E+00 0.  1.
     999902    2    1    2    0    0  0.55887736778E-02  0.53504654087E-02  0.20347970189E-01  0.10221607152E+01  0.10219288752E+01 0.  0.
     999903    2    3    3    0    0  0.10566929700E+00 -0.73921982455E-01  0.24017166385E-01  0.13293987919E+00  0.21580717768E-01 0.  0.
         14    1    1    2    0    0 -0.55887736778E-02 -0.53504654087E-02 -0.20347970189E-01  0.21769284832E-01  0.00000000000E+00 0.  1.
     999901    1    3    3    0    0 -0.10008052332E+00  0.79272447864E-01 -0.36691961958E-02  0.88922083598E+00  0.88000000000E+00 0. -1.
        -11    1    4    4    0    0  0.19597872453E-01 -0.24431327591E-01  0.84099568966E-02  0.32433853742E-01  0.51100000000E-03 0. -1.
         11    1    4    4    0    0  0.86071424545E-01 -0.49490654864E-01  0.15607209488E-01  0.10050602545E+00  0.51100000000E-03 0.  1.
</event>
<event>
 8    1  0.1066842E+005  0.1043930E+01  0.7957747E-01            NaN
         13   -1    0    0    0    0  0.00000000000E+00  0.00000000000E+00  0.74505805969E-08  0.10566000000E+00  0.10566000000E+00 0. -1.
     999900   -1    0    0    0    0 -0.00000000000E+00 -0.00000000000E+00 -0.74505805969E-08  0.93827000000E+00  0.93827000000E+00 0.  1.
     999902    2    1    2    0    0  0.37472669851E-02  0.18838177032E-01  0.12399303687E-01  0.10210682053E+01  0.10208122346E+01 0.  0.
     999903    2    3    3    0    0 -0.91775426303E-01  0.26457358456E-01  0.89401664918E-01  0.13252332717E+00  0.21143648348E-01 0.  0.
         14    1    1    2    0    0 -0.37472669851E-02 -0.18838177032E-01 -0.12399303687E-01  0.22861794673E-01  0.00000000000E+00 0.  1.
     999901    1    3    3    0    0  0.95522693288E-01 -0.76191814237E-02 -0.77002361231E-01  0.88854487815E+00  0.88000000000E+00 0.  1.
        -11    1    4    4    0    0 -0.78762780820E-02 -0.15213571476E-03  0.13250769571E-02  0.80047393238E-02  0.51100000000E-03 0.  1.
         11    1    4    4    0    0 -0.83899148221E-01  0.26609494171E-01  0.88076587961E-01  0.12451858785E+00  0.51100000000E-03 0. -1.
</event>
<event>
 8    1  0.1066842E+005  0.1043930E+01  0.7957747E-01            NaN
         13   -1    0    0    0    0  0.00000000000E+00  0.00000000000E+00  0.74505805969E-08  0.10566000000E+00  0.10566000000E+00 0. -1.
     999900   -1    0    0    0    0 -0.00000000000E+00 -0.00000000000E+00 -0.74505805969E-08  0.93827000000E+00  0.93827000000E+00 0.  1.
     999902    2    1    2    0    0 -0.64622183259E-02 -0.32440866214E-02 -0.13550837577E-01  0.10285706523E+01  0.10284559675E+01 0.  0.
     999903    2    3    3    0    0  0.67360621304E-01  0.10550859591E+00 -0.54146843551E-01  0.13788271965E+00  0.20254545154E-01 0.  0.
         14    1    1    2    0    0  0.64622183259E-02  0.32440866214E-02  0.13550837577E-01  0.15359347732E-01  0.00000000000E+00 0. -1.
     999901    1    3    3    0    0 -0.73822839630E-01 -0.10875268253E+00  0.40596005974E-01  0.89068793262E+00  0.88000000000E+00 0. -1.
        -11    1    4    4    0    0  0.19980535529E-01  0.16523075460E-01 -0.93958516467E-02  0.27582185770E-01  0.51100000000E-03 0. -1.
         11    1    4    4    0    0  0.47380085775E-01  0.88985520446E-01 -0.44750991904E-01  0.11030053388E+00  0.51100000000E-03 0.  1.
</event>
<event>
 8    1  0.1066842E+005  0.1043930E+01  0.7957747E-01            NaN
         13   -1    0    0    0    0  0.00000000000E+00  0.00000000000E+00  0.74505805969E-08  0.10566000000E+00  0.10566000000E+00 0.  1.
     999900   -1    0    0    0    0 -0.00000000000E+00 -0.00000000000E+00 -0.74505805969E-08  0.93827000000E+00  0.93827000000E+00 0. -1.
     999902    2    1    2    0    0  0.76381744205E-02 -0.16237338546E-01 -0.17617472607E-01  0.10187830675E+01  0.10184726656E+01 0.  0.
     999903    2    3    3    0    0  0.10799732755E+00 -0.10766164108E-01 -0.71719387738E-01  0.13141115532E+00  0.18598067535E-01 0.  0.
         14    1    1    2    0    0 -0.76381744205E-02  0.16237338546E-01  0.17617472607E-01  0.25146932468E-01  0.00000000000E+00 0.  1.
     999901    1    3    3    0    0 -0.10035915313E+00 -0.54711744376E-02  0.54101915132E-01  0.88737191221E+00  0.88000000000E+00 0.  1.
        -11    1    4    4    0    0  0.55200097040E-01 -0.11480495596E-01 -0.28514774371E-01  0.63183905948E-01  0.51100000000E-03 0.  1.
         11    1    4    4    0    0  0.52797230512E-01  0.71433148800E-03 -0.43204613368E-01  0.68227249369E-01  0.51100000000E-03 0. -1.
</event>
<event>
 8    1  0.1066842E+005  0.1043930E+01  0.7957747E-01            NaN
         13   -1    0    0    0    0  0.00000000000E+00  0.00000000000E+00  0.74505805969E-08  0.10566000000E+00  0.10566000000E+00 0. -1.
     999900   -1    0    0    0    0 -0.00000000000E+00 -0.00000000000E+00 -0.74505805969E-08  0.93827000000E+00  0.93827000000E+00 0. -1.
     999902    2    1    2    0    0 -0.23610517774E-01  0.25883442298E-02 -0.24481394143E-02  0.10200521973E+01  0.10197726883E+01 0.  0.
     999903    2    3    3    0    0 -0.10181596527E+00  0.81031935979E-01 -0.17947048337E-01  0.13297288558E+00  0.20664615222E-01 0.  0.
         14    1    1    2    0    0  0.23610517774E-01 -0.25883442298E-02  0.24481394143E-02  0.23877802705E-01  0.00000000000E+00 0. -1.
     999901    1    3    3    0    0  0.78205447494E-01 -0.78443591749E-01  0.15498908923E-01  0.88707931172E+00  0.88000000000E+00 0.  1.
        -11    1    4    4    0    0 -0.35940570789E-01  0.41606138669E-01 -0.74573506722E-02  0.55485751357E-01  0.51100000000E-03 0.  1.
         11    1    4    4    0    0 -0.65875394479E-01  0.39425797309E-01 -0.10489697665E-01  0.77487134218E-01  0.51100000000E-03 0. -1.
</event>
<event>
 8    1  0.1066842E+005  0.1043930E+01  0.7957747E-01            NaN
         13   -1    0    0    0    0  0.00000000000E+00  0.00000000000E+00  0.74505805969E-08  0.10566000000E+00  0.10566000000E+00 0.  1.
     999900   -1    0    0    0    0 -0.00000000000E+00 -0.00000000000E+00 -0.74505805969E-08  0.93827000000E+00  0.93827000000E+00 0.  1.
     999902    2    1    2    0    0 -0.66157175826E-02  0.20775577147E-01  0.11314893546E-01  0.10193654088E+01  0.10190693880E+01 0.  0.
     999903    2    3    3    0    0 -0.40224926804E-01 -0.12501106243E-01  0.12257384468E+00  0.13109998067E+00  0.19711294679E-01 0.  0.
         14    1    1    2    0    0  0.66157175826E-02 -0.20775577147E-01 -0.11314893546E-01  0.24564591201E-01  0.00000000000E+00 0. -1.
     999901    1    3    3    0    0  0.33609209222E-01  0.33276683391E-01 -0.11125895114E+00  0.88826542813E+00  0.88000000000E+00 0.  1.
        -11    1    4    4    0    0 -0.91495625020E-02  0.12887619838E-02  0.10568347160E-01  0.14047294548E-01  0.51100000000E-03 0.  1.
         11    1    4    4    0    0 -0.31075364302E-01 -0.13789868227E-01  0.11200549752E+00  0.11705268612E+00  0.51100000000E-03 0. -1.
</event>
<event>
 8    1  0.1066842E+005  0.1043930E+01  0.7957747E-01            NaN
         13   -1    0    0    0    0  0.00000000000E+00  0.00000000000E+00  0.74505805969E-08  0.10566000000E+00  0.10566000000E+00 0. -1.
     999900   -1    0    0    0    0 -0.00000000000E+00 -0.00000000000E+00 -0.74505805969E-08  0.93827000000E+00  0.93827000000E+00 0. -1.
     999902    2    1    2    0    0 -0.92790395058E-02 -0.22830389996E-01 -0.24645576161E-02  0.10191630598E+01  0.10188620815E+01 0.  0.
     999903    2    3    3    0    0 -0.10593294853E+00 -0.75731940985E-01 -0.11915995966E-01  0.13224148386E+00  0.19715542665E-01 0.  0.
         14    1    1    2    0    0  0.92790395058E-02  0.22830389996E-01  0.24645576161E-02  0.24766940178E-01  0.00000000000E+00 0. -1.
     999901    1    3    3    0    0  0.96653909026E-01  0.52901550989E-01  0.94514383503E-02  0.88692157597E+00  0.88000000000E+00 0.  1.
        -11    1    4    4    0    0 -0.96398510237E-01 -0.68252547002E-01 -0.48734313510E-02  0.11821630345E+00  0.51100000000E-03 0.  1.
         11    1    4    4    0    0 -0.95344382950E-02 -0.74793939829E-02 -0.70425646154E-02  0.14025180402E-01  0.51100000000E-03 0. -1.
</event>
<event>
 8    1  0.1066842E+005  0.1043930E+01  0.7957747E-01            NaN
         13   -1    0    0    0    0  0.00000000000E+00  0.00000000000E+00  0.74505805969E-08  0.10566000000E+00  0.10566000000E+00 0. -1.
     999900   -1    0    0    0    0 -0.00000000000E+00 -0.00000000000E+00 -0.74505805969E-08  0.93827000000E+00  0.93827000000E+00 0.  1.
     999902    2    1    2    0    0 -0.47825191834E-02 -0.93067839444E-02 -0.22313744137E-01  0.10192846780E+01  0.10189866844E+01 0.  0.
     999903    2    3    3    0    0 -0.87130625484E-01 -0.52701691371E-01 -0.82182663831E-01  0.13235254076E+00  0.19849197451E-01 0.  0.
         14    1    1    2    0    0  0.47825191834E-02  0.93067839444E-02  0.22313744137E-01  0.24645321961E-01  0.00000000000E+00 0. -1.
     999901    1    3    3    0    0  0.82348106300E-01  0.43394907427E-01  0.59868919694E-01  0.88693213728E+00  0.88000000000E+00 0. -1.
        -11    1    4    4    0    0 -0.39723497839E-01 -0.34390734651E-01 -0.36126709272E-01  0.63765814934E-01  0.51100000000E-03 0. -1.
         11    1    4    4    0    0 -0.47407127645E-01 -0.18310956720E-01 -0.46055954559E-01  0.68586725821E-01  0.51100000000E-03 0.  1.
</event>
<event>
 8    1  0.1066842E+005  0.1043930E+01  0.7957747E-01            NaN
         13   -1    0    0    0    0  0.00000000000E+00  0.00000000000E+00  0.74505805969E-08  0.10566000000E+00  0.10566000000E+00 0.  1.
     999900   -1    0    0    0    0 -0.00000000000E+00 -0.00000000000E+00 -0.74505805969E-08  0.93827000000E+00  0.93827000000E+00 0. -1.
     999902    2    1    2    0    0 -0.40350593878E-02 -0.13713936654E-01  0.18854437407E-01  0.10202689862E+01  0.10199945886E+01 0.  0.
     999903    2    3    3    0    0 -0.35207634163E-01 -0.18925540850E-02 -0.12186276362E+00  0.12846586604E+00  0.20243179548E-01 0.  0.
         14    1    1    2    0    0  0.40350593878E-02  0.13713936654E-01 -0.18854437407E-01  0.23661013772E-01  0.00000000000E+00 0. -1.
     999901    1    3    3    0    0  0.31172574775E-01 -0.11821382569E-01  0.14071720102E+00  0.89180312018E+00  0.88000000000E+00 0.  1.
        -11    1    4    4    0    0 -0.30377047483E-01 -0.23467099235E-02 -0.69629645221E-01  0.76005398991E-01  0.51100000000E-03 0.  1.
         11    1    4    4    0    0 -0.48305866802E-02  0.45415583843E-03 -0.52233118395E-01  0.52460467053E-01  0.51100000000E-03 0. -1.
</event>
<event>
 8    1  0.1066842E+005  0.1043930E+01  0.7957747E-01            NaN
         13   -1    0    0    0    0  0.00000000000E+00  0.00000000000E+00  0.74505805969E-08  0.10566000000E+00  0.10566000000E+00 0.  1.
     999900   -1    0    0    0    0 -0.00000000000E+00 -0.00000000000E+00 -0.74505805969E-08  0.93827000000E+00  0.93827000000E+00 0. -1.
     999902    2    1    2    0    0  0.11525230040E-01 -0.17551522323E-01 -0.10818173414E-01  0.10203096753E+01  0.10200362316E+01 0.  0.
     999903    2    3    3    0    0 -0.87423201625E-01 -0.59984619778E-01  0.71943488305E-01  0.12989356327E+00  0.21342480602E-01 0.  0.
         14    1    1    2    0    0 -0.11525230040E-01  0.17551522323E-01  0.10818173414E-01  0.23620324709E-01  0.00000000000E+00 0.  1.
     999901    1    3    3    0    0  0.98948431666E-01  0.42433097455E-01 -0.82761661719E-01  0.89041611202E+00  0.88000000000E+00 0.  1.
        -11    1    4    4    0    0 -0.68870671646E-01 -0.50290866117E-01  0.66813134653E-01  0.10833557454E+00  0.51100000000E-03 0.  1.
         11    1    4    4    0    0 -0.18552529980E-01 -0.96937536612E-02  0.51303536528E-02  0.21557988735E-01  0.51100000000E-03 0. -1.
</event>
<event>
 8    1  0.1066842E+005  0.1043930E+01  0.7957747E-01            NaN
         13   -1    0    0    0    0  0.00000000000E+00  0.00000000000E+00  0.74505805969E-08  0.10566000000E+00  0.10566000000E+00 0.  1.
     999900   -1    0    0    0    0 -0.00000000000E+00 -0.00000000000E+00 -0.74505805969E-08  0.93827000000E+00  0.93827000000E+00 0. -1.
     999902    2    1    2    0    0 -0.15546983151E-01 -0.79710456076E-02 -0.13578185745E-01  0.10218027909E+01  0.10215631797E+01 0.  0.
     999903    2    3    3    0    0  0.10707239266E+00  0.35963188367E-02 -0.73086024214E-01  0.13123527632E+00  0.20092287981E-01 0.  0.
         14    1    1    2    0    0  0.15546983151E-01  0.79710456076E-02  0.13578185745E-01  0.22127209072E-01  0.00000000000E+00 0.  1.
     999901    1    3    3    0    0 -0.12261937581E+00 -0.11567364444E-01  0.59507838469E-01  0.89056751461E+00  0.88000000000E+00 0.  1.
        -11    1    4    4    0    0  0.89263452291E-01 -0.17140078751E-03 -0.68326202213E-01  0.11241318572E+00  0.51100000000E-03 0. -1.
         11    1    4    4    0    0  0.17808940364E-01  0.37677196242E-02 -0.47598220015E-02  0.18822090599E-01  0.51100000000E-03 0.  1.
</event>
<event>
 8    1  0.1066842E+005  0.1043930E+01  0.7957747E-01            NaN
         13   -1    0    0    0    0  0.00000000000E+00  0.00000000000E+00  0.74505805969E-08  0.10566000000E+00  0.10566000000E+00 0.  1.
     999900   -1    0    0    0    0 -0.00000000000E+00 -0.00000000000E+00 -0.74505805969E-08  0.93827000000E+00  0.93827000000E+00 0.  1.
     999902    2    1    2    0    0  0.15801317129E-01  0.12141122436E-01  0.35346584468E-03  0.10239997864E+01  0.10238058161E+01 0.  0.
     999903    2    3    3    0    0  0.11940181438E+00  0.30234300441E-02 -0.62324576314E-01  0.13566160060E+00  0.15930557346E-01 0.  0.
         14    1    1    2    0    0 -0.15801317129E-01 -0.12141122436E-01 -0.35346584468E-03  0.19930213624E-01  0.00000000000E+00 0. -1.
     999901    1    3    3    0    0 -0.10360049725E+00  0.91176923916E-02  0.62678042159E-01  0.88833818578E+00  0.88000000000E+00 0.  1.
        -11    1    4    4    0    0  0.26147080497E-01  0.60752680180E-03 -0.65289878943E-02  0.26961596972E-01  0.51100000000E-03 0. -1.
         11    1    4    4    0    0  0.93254733882E-01  0.24159032423E-02 -0.55795588420E-01  0.10870000362E+00  0.51100000000E-03 0.  1.
</event>
<event>
 8    1  0.1066842E+005  0.1043930E+01  0.7957747E-01            NaN
         13   -1    0    0    0    0  0.00000000000E+00  0.00000000000E+00  0.74505805969E-08  0.10566000000E+00  0.10566000000E+00 0.  1.
     999900   -1    0    0    0    0 -0.00000000000E+00 -0.00000000000E+00 -0.74505805969E-08  0.93827000000E+00  0.93827000000E+00 0.  1.
     999902    2    1    2    0    0 -0.70665724843E-02 -0.28275521468E-01 -0.29204236003E-02  0.10146388676E+01  0.10142159836E+01 0.  0.
     999903    2    3    3    0    0 -0.26363817945E-01  0.39450149390E-01 -0.11380777748E+00  0.12488881542E+00  0.19840383500E-01 0.  0.
         14    1    1    2    0    0  0.70665724843E-02  0.28275521468E-01  0.29204236003E-02  0.29291132360E-01  0.00000000000E+00 0.  1.
     999901    1    3    3    0    0  0.19297245460E-01 -0.67725670858E-01  0.11088735388E+00  0.88975005222E+00  0.88000000000E+00 0. -1.
        -11    1    4    4    0    0 -0.10449668467E-02  0.59443110287E-02 -0.35653162624E-01  0.36164014094E-01  0.51100000000E-03 0.  1.
         11    1    4    4    0    0 -0.25318851098E-01  0.33505838361E-01 -0.78154614860E-01  0.88724801325E-01  0.51100000000E-03 0. -1.
</event>
<event>
 8    1  0.1066842E+005  0.1043930E+01  0.7957747E-01            NaN
         13   -1    0    0    0    0  0.00000000000E+00  0.00000000000E+00  0.74505805969E-08  0.10566000000E+00  0.10566000000E+00 0.  1.
     999900   -1    0    0    0    0 -0.00000000000E+00 -0.00000000000E+00 -0.74505805969E-08  0.93827000000E+00  0.93827000000E+00 0. -1.
     999902    2    1    2    0    0 -0.20400500378E-01 -0.12033553974E-01 -0.27962594265E-02  0.10200803479E+01  0.10198015054E+01 0.  0.
     999903    2    3    3    0    0  0.10265391308E+00 -0.31990512312E-01 -0.67439305670E-01  0.12894658004E+00  0.22758334859E-01 0.  0.
         14    1    1    2    0    0  0.20400500378E-01  0.12033553974E-01  0.27962594265E-02  0.23849652066E-01  0.00000000000E+00 0.  1.
     999901    1    3    3    0    0 -0.12305441346E+00  0.19956958339E-01  0.64643046244E-01  0.89113376790E+00  0.88000000000E+00 0.  1.
        -11    1    4    4    0    0  0.67106060770E-01 -0.93535951237E-02 -0.41940252027E-01  0.79686629963E-01  0.51100000000E-03 0. -1.
         11    1    4    4    0    0  0.35547852309E-01 -0.22636917189E-01 -0.25499053643E-01  0.49259950074E-01  0.51100000000E-03 0.  1.
</event>
<event>
 8    1  0.1066842E+005  0.1043930E+01  0.7957747E-01            NaN
         13   -1    0    0    0    0  0.00000000000E+00  0.00000000000E+00  0.74505805969E-08  0.10566000000E+00  0.10566000000E+00 0.  1.
     999900   -1    0    0    0    0 -0.00000000000E+00 -0.00000000000E+00 -0.74505805969E-08  0.93827000000E+00  0.93827000000E+00 0.  1.
     999902    2    1    2    0    0  0.17779404746E-01 -0.82295981266E-02 -0.13003709473E-01  0.10204155368E+01  0.10201445671E+01 0.  0.
     999903    2    3    3    0    0 -0.15303003730E-02  0.89613374772E-03 -0.13081436981E+00  0.13230771939E+00  0.19743059224E-01 0.  0.
         14    1    1    2    0    0 -0.17779404746E-01  0.82295981266E-02  0.13003709473E-01  0.23514463178E-01  0.00000000000E+00 0.  1.
     999901    1    3    3    0    0  0.19309705119E-01 -0.91257318743E-02  0.11781066033E+00  0.88810781743E+00  0.88000000000E+00 0. -1.
        -11    1    4    4    0    0 -0.95825376073E-02  0.40649584541E-03 -0.40112836542E-01  0.41246709473E-01  0.51100000000E-03 0.  1.
         11    1    4    4    0    0  0.80522372343E-02  0.48963790230E-03 -0.90701533265E-01  0.91061009918E-01  0.51100000000E-03 0. -1.
</event>
<event>
 8    1  0.1066842E+005  0.1043930E+01  0.7957747E-01            NaN
         13   -1    0    0    0    0  0.00000000000E+00  0.00000000000E+00  0.74505805969E-08  0.10566000000E+00  0.10566000000E+00 0.  1.
     999900   -1    0    0    0    0 -0.00000000000E+00 -0.00000000000E+00 -0.74505805969E-08  0.93827000000E+00  0.93827000000E+00 0.  1.
     999902    2    1    2    0    0 -0.13133750124E-01  0.18696432999E-01  0.75506674189E-02  0.10198662393E+01  0.10195823074E+01 0.  0.
     999903    2    3    3    0    0 -0.82703440610E-01 -0.74069789487E-01  0.65400536866E-01  0.13037642980E+00  0.19864300145E-01 0.  0.
         14    1    1    2    0    0  0.13133750124E-01 -0.18696432999E-01 -0.75506674189E-02  0.24063760671E-01  0.00000000000E+00 0. -1.
     999901    1    3    3    0    0  0.69569690487E-01  0.92766222486E-01 -0.57849869448E-01  0.88948980953E+00  0.88000000000E+00 0.  1.
        -11    1    4    4    0    0 -0.34750301158E-01 -0.39449658965E-01  0.39734833670E-01  0.65901268203E-01  0.51100000000E-03 0.  1.
         11    1    4    4    0    0 -0.47953139452E-01 -0.34620130523E-01  0.25665703196E-01  0.64475161592E-01  0.51100000000E-03 0. -1.
</event>
<event>
 8    1  0.1066842E+005  0.1043930E+01  0.7957747E-01            NaN
         13   -1    0    0    0    0  0.00000000000E+00  0.00000000000E+00  0.74505805969E-08  0.10566000000E+00  0.10566000000E+00 0. -1.
     999900   -1    0    0    0    0 -0.00000000000E+00 -0.00000000000E+00 -0.74505805969E-08  0.93827000000E+00  0.93827000000E+00 0.  1.
     999902    2    1    2    0    0  0.14312538660E-02  0.98647865451E-02  0.21788942252E-01  0.10199691881E+01  0.10196877092E+01 0.  0.
     999903    2    3    3    0    0  0.88759099775E-01 -0.59749425471E-01  0.74028077075E-01  0.13137410689E+00  0.18188681349E-01 0.  0.
         14    1    1    2    0    0 -0.14312538660E-02 -0.98647865451E-02 -0.21788942252E-01  0.23960811874E-01  0.00000000000E+00 0.  1.
     999901    1    3    3    0    0 -0.87327845909E-01  0.69614212016E-01 -0.52239134823E-01  0.88859508123E+00  0.88000000000E+00 0.  1.
        -11    1    4    4    0    0  0.41984849296E-01 -0.31485998633E-01  0.46784634265E-01  0.70307601329E-01  0.51100000000E-03 0.  1.
         11    1    4    4    0    0  0.46774250480E-01 -0.28263426837E-01  0.27243442810E-01  0.61066505563E-01  0.51100000000E-03 0. -1.
</event>
<event>
 8    1  0.1066842E+005  0.1043930E+01  0.7957747E-01            NaN
         13   -1    0    0    0    0  0.00000000000E+00  0.00000000000E+00  0.74505805969E-08  0.10566000000E+00  0.10566000000E+00 0.  1.
     999900   -1    0    0    0    0 -0.00000000000E+00 -0.00000000000E+00 -0.74505805969E-08  0.93827000000E+00  0.93827000000E+00 0. -1.
     999902    2    1    2    0    0  0.23400720428E-01 -0.33193430102E-02 -0.23120266883E-02  0.10201822165E+01  0.10199057788E+01 0.  0.
     999903    2    3    3    0    0 -0.10377188423E-01  0.10310311375E+00  0.75423036674E-01  0.12972759860E+00  0.20066820236E-01 0.  0.
         14    1    1    2    0    0 -0.23400720428E-01  0.33193430102E-02  0.23120266883E-02  0.23747783517E-01  0.00000000000E+00 0. -1.
     999901    1    3    3    0    0  0.33777908851E-01 -0.10642245676E+00 -0.77735063362E-01  0.89045461788E+00  0.88000000000E+00 0. -1.
        -11    1    4    4    0    0 -0.12970873688E-01  0.40799708694E-01  0.25387112372E-01  0.49775761062E-01  0.51100000000E-03 0. -1.
         11    1    4    4    0    0  0.25936852648E-02  0.62303405053E-01  0.50035924302E-01  0.79951837541E-01  0.51100000000E-03 0.  1.
</event>
<event>
 8    1  0.1066842E+005  0.1043930E+01  0.7957747E-01            NaN
         13   -1    0    0    0    0  0.00000000000E+00  0.00000000000E+00  0.74505805969E-08  0.10566000000E+00  0.10566000000E+00 0. -1.
     999900   -1    0    0    0    0 -0.00000000000E+00 -0.00000000000E+00 -0.74505805969E-08  0.93827000000E+00  0.93827000000E+00 0.  1.
     999902    2    1    2    0    0  0.81859045031E-02 -0.57015181726E-02  0.21893965753E-01  0.10198704473E+01  0.10195866158E+01 0.  0.
     999903    2    3    3    0    0 -0.35945891101E-01 -0.92300934400E-01  0.85027945487E-01  0.13227089020E+00  0.21313547420E-01 0.  0.
         14    1    1    2    0    0 -0.81859045031E-02  0.57015181726E-02 -0.21893965753E-01  0.24059552747E-01  0.00000000000E+00 0.  1.
     999901    1    3    3    0    0  0.44131795604E-01  0.86599416227E-01 -0.63133979734E-01  0.88759955705E+00  0.88000000000E+00 0. -1.
        -11    1    4    4    0    0 -0.24677906334E-01 -0.44698322261E-01  0.32686021814E-01  0.60626530637E-01  0.51100000000E-03 0. -1.
         11    1    4    4    0    0 -0.11267984767E-01 -0.47602612139E-01  0.52341923673E-01  0.71644359568E-01  0.51100000000E-03 0.  1.
</event>
<event>
 8    1  0.1066842E+005  0.1043930E+01  0.7957747E-01            NaN
         13   -1    0    0    0    0  0.00000000000E+00  0.00000000000E+00  0.74505805969E-08  0.10566000000E+00  0.10566000000E+00 0. -1.
     999900   -1    0    0    0    0 -0.00000000000E+00 -0.00000000000E+00 -0.74505805969E-08  0.93827000000E+00  0.93827000000E+00 0. -1.
     999902    2    1    2    0    0 -0.85409937250E-03 -0.42454261773E-02 -0.24176643955E-01  0.10193685822E+01  0.10190726388E+01 0.  0.
     999903    2    3    3    0    0 -0.52571741577E-01 -0.11744394698E+00 -0.82744489828E-02  0.13046954443E+00  0.19924026276E-01 0.  0.
         14    1    1    2    0    0  0.85409937250E-03  0.42454261773E-02  0.24176643955E-01  0.24561417754E-01  0.00000000000E+00 0. -1.
     999901    1    3    3    0    0  0.51717642205E-01  0.11319852080E+00 -0.15902194972E-01  0.88889903782E+00  0.88000000000E+00 0. -1.
        -11    1    4    4    0    0 -0.26370851861E-01 -0.79455878325E-01 -0.98214699141E-02  0.84293420980E-01  0.51100000000E-03 0. -1.
         11    1    4    4    0    0 -0.26200889717E-01 -0.37988068655E-01  0.15470209312E-02  0.46176123449E-01  0.51100000000E-03 0.  1.
</event>
<event>
 8    1  0.1066842E+005  0.1043930E+01  0.7957747E-01            NaN
         13   -1    0    0    0    0  0.00000000000E+00  0.00000000000E+00  0.74505805969E-08  0.10566000000E+00  0.10566000000E+00 0. -1.
     999900   -1    0    0    0    0 -0.00000000000E+00 -0.00000000000E+00 -0.74505805969E-08  0.93827000000E+00  0.93827000000E+00 0. -1.
     999902    2    1    2    0    0  0.57629229246E-02 -0.23697885335E-01  0.13651578648E-02  0.10195032789E+01  0.10192106116E+01 0.  0.
     999903    2    3    3    0    0 -0.95658275669E-01  0.35499717121E-01  0.74903146808E-01  0.12866184993E+00  0.23079311239E-01 0.  0.
         14    1    1    2    0    0 -0.57629229246E-02  0.23697885335E-01 -0.13651578648E-02  0.24426721147E-01  0.00000000000E+00 0.  1.
     999901    1    3    3    0    0  0.10142119859E+00 -0.59197602456E-01 -0.73537988943E-01  0.89084142892E+00  0.88000000000E+00 0.  1.
        -11    1    4    4    0    0 -0.42882349401E-01  0.81948596135E-02  0.21067527936E-01  0.48478381456E-01  0.51100000000E-03 0. -1.
         11    1    4    4    0    0 -0.52775926267E-01  0.27304857508E-01  0.53835618872E-01  0.80183468479E-01  0.51100000000E-03 0.  1.
</event>
<event>
 7    1  0.1066842E+005  0.1043930E+01  0.7957747E-01            NaN
         13   -1    0    0    0    0  0.00000000000E+00  0.00000000000E+00  0.74505805969E-08  0.10566000000E+00  0.10566000000E+00 0.  1.
     999900   -1    0    0    0    0 -0.00000000000E+00 -0.00000000000E+00 -0.74505805969E-08  0.93827000000E+00  0.93827000000E+00 0.  1.
     999903    2    1    2    0    0 -0.67972823123E-01  0.65405681078E-01  0.63516118330E-01  0.11555541090E+00  0.20507264558E-01 0.  0.
         14    1    1    2    0    0  0.32084178775E-02 -0.10716868416E-01  0.36954643930E-01  0.38610761737E-01  0.00000000000E+00 0.  1.
     999901    1    1    2    0    0  0.64764405246E-01 -0.54688812661E-01 -0.10047076226E+00  0.88976382736E+00  0.88000000000E+00 0.  1.
        -11    1    3    3    0    0 -0.11850210200E-01  0.23499195867E-01  0.14373493788E-01  0.29991634381E-01  0.51100000000E-03 0. -1.
         11    1    3    3    0    0 -0.56122612923E-01  0.41906485211E-01  0.49142624542E-01  0.85563776518E-01  0.51100000000E-03 0.  1.
</event>
<event>
 8    1  0.1066842E+005  0.1043930E+01  0.7957747E-01            NaN
         13   -1    0    0    0    0  0.00000000000E+00  0.00000000000E+00  0.74505805969E-08  0.10566000000E+00  0.10566000000E+00 0. -1.
     999900   -1    0    0    0    0 -0.00000000000E+00 -0.00000000000E+00 -0.74505805969E-08  0.93827000000E+00  0.93827000000E+00 0.  1.
     999902    2    1    2    0    0 -0.69041375208E-02  0.14230894880E-01  0.18590301978E-01  0.10195212964E+01  0.10192290660E+01 0.  0.
     999903    2    3    3    0    0 -0.12748749596E+00  0.59956866995E-03  0.23136505124E-01  0.13118193143E+00  0.20493417362E-01 0.  0.
         14    1    1    2    0    0  0.69041375208E-02 -0.14230894880E-01 -0.18590301978E-01  0.24408703604E-01  0.00000000000E+00 0.  1.
     999901    1    3    3    0    0  0.12058335844E+00  0.13631326210E-01 -0.45462031465E-02  0.88833936497E+00  0.88000000000E+00 0. -1.
        -11    1    4    4    0    0 -0.28692562917E-01 -0.11594056356E-02  0.13992740958E-01  0.31947852959E-01  0.51100000000E-03 0.  1.
         11    1    4    4    0    0 -0.98794933043E-01  0.17589743056E-02  0.91437641670E-02  0.99234078470E-01  0.51100000000E-03 0. -1.
</event>
<event>
 8    1  0.1066842E+005  0.1043930E+01  0.7957747E-01            NaN
         13   -1    0    0    0    0  0.00000000000E+00  0.00000000000E+00  0.74505805969E-08  0.10566000000E+00  0.10566000000E+00 0.  1.
     999900   -1    0    0    0    0 -0.00000000000E+00 -0.00000000000E+00 -0.74505805969E-08  0.93827000000E+00  0.93827000000E+00 0. -1.
     999902    2    1    2    0    0 -0.16092562112E-01 -0.84473598197E-02  0.15479542477E-01  0.10200564858E+01  0.10197770784E+01 0.  0.
     999903    2    3    3    0    0 -0.69740664253E-02 -0.11250930906E+00  0.66830059697E-01  0.13239162123E+00  0.18822918615E-01 0.  0.
         14    1    1    2    0    0  0.16092562112E-01  0.84473598197E-02 -0.15479542477E-01  0.23873514164E-01  0.00000000000E+00 0. -1.
     999901    1    3    3    0    0 -0.91184956869E-02  0.10406194924E+00 -0.51350517220E-01  0.88766486461E+00  0.88000000000E+00 0.  1.
        -11    1    4    4    0    0 -0.92098789866E-02 -0.54437907028E-01  0.41112357319E-01  0.68838903521E-01  0.51100000000E-03 0.  1.
         11    1    4    4    0    0  0.22358125613E-02 -0.58071402027E-01  0.25717702378E-01  0.63552717706E-01  0.51100000000E-03 0. -1.
</event>
<event>
 8    1  0.1066842E+005  0.1043930E+01  0.7957747E-01            NaN
         13   -1    0    0    0    0  0.00000000000E+00  0.00000000000E+00  0.74505805969E-08  0.10566000000E+00  0.10566000000E+00 0. -1.
     999900   -1    0    0    0    0 -0.00000000000E+00 -0.00000000000E+00 -0.74505805969E-08  0.93827000000E+00  0.93827000000E+00 0.  1.
     999902    2    1    2    0    0  0.15478309170E-01  0.15485762546E-01 -0.97030955649E-02  0.10199813683E+01  0.10197001788E+01 0.  0.
     999903    2    3    3    0    0 -0.37255172557E-01  0.89837297383E-01  0.84413262977E-01  0.13028093571E+00  0.19718908653E-01 0.  0.
         14    1    1    2    0    0 -0.15478309170E-01 -0.15485762546E-01  0.97030955649E-02  0.23948631692E-01  0.00000000000E+00 0.  1.
     999901    1    3    3    0    0  0.52733481727E-01 -0.74351534837E-01 -0.94116358542E-01  0.88970043260E+00  0.88000000000E+00 0.  1.
        -11    1    4    4    0    0 -0.37450275248E-01  0.79643521837E-01  0.80729035431E-01  0.11942802003E+00  0.51100000000E-03 0. -1.
         11    1    4    4    0    0  0.19510269026E-03  0.10193775546E-01  0.36842275454E-02  0.10852915671E-01  0.51100000000E-03 0.  1.
</event>
<event>
 8    1  0.1066842E+005  0.1043930E+01  0.7957747E-01            NaN
         13   -1    0    0    0    0  0.00000000000E+00  0.00000000000E+00  0.74505805969E-08  0.10566000000E+00  0.10566000000E+00 0. -1.
     999900   -1    0    0    0    0 -0.00000000000E+00 -0.00000000000E+00 -0.74505805969E-08  0.93827000000E+00  0.93827000000E+00 0. -1.
     999902    2    1    2    0    0  0.12504418994E-02  0.21998351518E-02  0.23484977110E-01  0.10203090976E+01  0.10200356404E+01 0.  0.
     999903    2    3    3    0    0  0.23070548425E-01 -0.36049492108E-02 -0.12400263193E+00  0.12774962767E+00  0.19951661122E-01 0.  0.
         14    1    1    2    0    0 -0.12504418994E-02 -0.21998351518E-02 -0.23484977110E-01  0.23620902385E-01  0.00000000000E+00 0.  1.
     999901    1    3    3    0    0 -0.21820106526E-01  0.58047843625E-02  0.14748760904E+00  0.89255946995E+00  0.88000000000E+00 0.  1.
        -11    1    4    4    0    0  0.24513596006E-01 -0.72550318644E-02 -0.11643298041E+00  0.11920760011E+00  0.51100000000E-03 0.  1.
         11    1    4    4    0    0 -0.14430475806E-02  0.36500826536E-02 -0.75696515173E-02  0.85420275574E-02  0.51100000000E-03 0. -1.
</event>
<event>
 8    1  0.1066842E+005  0.1043930E+01  0.7957747E-01            NaN
         13   -1    0    0    0    0  0.00000000000E+00  0.00000000000E+00  0.74505805969E-08  0.10566000000E+00  0.10566000000E+00 0.  1.
     999900   -1    0    0    0    0 -0.00000000000E+00 -0.00000000000E+00 -0.74505805969E-08  0.93827000000E+00  0.93827000000E+00 0.  1.
     999902    2    1    2    0    0  0.90734054806E-03  0.22953660256E-01 -0.46583135378E-02  0.10204908517E+01  0.10202216351E+01 0.  0.
     999903    2    3    3    0    0 -0.64997638720E-01 -0.77137955552E-01 -0.78395823097E-01  0.12931240824E+00  0.20020904577E-01 0.  0.
         14    1    1    2    0    0 -0.90734054806E-03 -0.22953660256E-01  0.46583135378E-02  0.23439148257E-01  0.00000000000E+00 0.  1.
     999901    1    3    3    0    0  0.65904979268E-01  0.10009161581E+00  0.73737509559E-01  0.89117844350E+00  0.88000000000E+00 0. -1.
        -11    1    4    4    0    0 -0.10655410915E-01 -0.24576404465E-01 -0.25944934492E-01  0.37295283683E-01  0.51100000000E-03 0.  1.
         11    1    4    4    0    0 -0.54342227805E-01 -0.52561551087E-01 -0.52450888605E-01  0.92017124558E-01  0.51100000000E-03 0. -1.
</event>
<event>
 8    1  0.1066842E+005  0.1043930E+01  0.7957747E-01            NaN
         13   -1    0    0    0    0  0.00000000000E+00  0.00000000000E+00  0.74505805969E-08  0.10566000000E+00  0.10566000000E+00 0.  1.
     999900   -1    0    0    0    0 -0.00000000000E+00 -0.00000000000E+00 -0.74505805969E-08  0.93827000000E+00  0.93827000000E+00 0. -1.
     999902    2    1    2    0    0  0.15574598881E-01  0.22190617944E-01 -0.14704691471E-01  0.10130881517E+01  0.10126185775E+01 0.  0.
     999903    2    3    3    0    0 -0.41682635101E-01  0.10374862877E+00  0.52119656387E-01  0.12494650003E+00  0.19848154755E-01 0.  0.
         14    1    1    2    0    0 -0.15574598881E-01 -0.22190617944E-01  0.14704691471E-01  0.30841848295E-01  0.00000000000E+00 0.  1.
     999901    1    3    3    0    0  0.57257233982E-01 -0.81558010827E-01 -0.66824347858E-01  0.88814165167E+00  0.88000000000E+00 0. -1.
        -11    1    4    4    0    0 -0.21688277907E-01  0.53537640649E-01  0.37797575426E-01  0.69033167346E-01  0.51100000000E-03 0. -1.
         11    1    4    4    0    0 -0.19994357195E-01  0.50210988121E-01  0.14322080961E-01  0.55913332684E-01  0.51100000000E-03 0.  1.
</event>
<event>
 8    1  0.1066842E+005  0.1043930E+01  0.7957747E-01            NaN
         13   -1    0    0    0    0  0.00000000000E+00  0.00000000000E+00  0.74505805969E-08  0.10566000000E+00  0.10566000000E+00 0.  1.
     999900   -1    0    0    0    0 -0.00000000000E+00 -0.00000000000E+00 -0.74505805969E-08  0.93827000000E+00  0.93827000000E+00 0.  1.
     999902    2    1    2    0    0  0.11151725645E-01  0.10979961362E-01  0.12137808482E-01  0.10241247752E+01  0.10239332538E+01 0.  0.
     999903    2    3    3    0    0  0.10274394817E+00  0.13426764507E-01 -0.83301067203E-01  0.13423506229E+00  0.18530711286E-01 0.  0.
         14    1    1    2    0    0 -0.11151725645E-01 -0.10979961362E-01 -0.12137808482E-01  0.19805224844E-01  0.00000000000E+00 0. -1.
     999901    1    3    3    0    0 -0.91592222522E-01 -0.24468031450E-02  0.95438875685E-01  0.88988971287E+00  0.88000000000E+00 0. -1.
        -11    1    4    4    0    0  0.12207238511E-01  0.71382766526E-02 -0.76642884617E-02  0.16092672378E-01  0.51100000000E-03 0. -1.
         11    1    4    4    0    0  0.90536709656E-01  0.62884878547E-02 -0.75636778741E-01  0.11814238991E+00  0.51100000000E-03 0.  1.
</event>
<event>
 8    1  0.1066842E+005  0.1043930E+01  0.7957747E-01            NaN
         13   -1    0    0    0    0  0.00000000000E+00  0.00000000000E+00  0.74505805969E-08  0.10566000000E+00  0.10566000000E+00 0.  1.
     999900   -1    0    0    0    0 -0.00000000000E+00 -0.00000000000E+00 -0.74505805969E-08  0.93827000000E+00  0.93827000000E+00 0.  1.
     999902    2    1    2    0    0 -0.87940131022E-02 -0.63767537246E-03 -0.23795377600E-01  0.10185536076E+01  0.10182374430E+01 0.  0.
     999903    2    3    3    0    0  0.32485493010E-01  0.75193620223E-01 -0.10016561008E+00  0.13103639907E+00  0.20688176853E-01 0.  0.
         14    1    1    2    0    0  0.87940131022E-02  0.63767537246E-03  0.23795377600E-01  0.25376392404E-01  0.00000000000E+00 0.  1.
     999901    1    3    3    0    0 -0.41279506112E-01 -0.75831295595E-01  0.76370232478E-01  0.88751720852E+00  0.88000000000E+00 0. -1.
        -11    1    4    4    0    0  0.16082706158E-01  0.56009196843E-01 -0.78516311160E-01  0.97779117441E-01  0.51100000000E-03 0. -1.
         11    1    4    4    0    0  0.16402786852E-01  0.19184423380E-01 -0.21649298917E-01  0.33257281632E-01  0.51100000000E-03 0.  1.
</event>
<event>
 8    1  0.1066842E+005  0.1043930E+01  0.7957747E-01            NaN
         13   -1    0    0    0    0  0.00000000000E+00  0.00000000000E+00  0.74505805969E-08  0.10566000000E+00  0.10566000000E+00 0.  1.
     999900   -1    0    0    0    0 -0.00000000000E+00 -0.00000000000E+00 -0.74505805969E-08  0.93827000000E+00  0.93827000000E+00 0. -1.
     999902    2    1    2    0    0 -0.61133663614E-02 -0.38116719089E-02  0.25982803930E-01  0.10169669106E+01  0.10166094083E+01 0.  0.
     999903    2    3    3    0    0 -0.83215201907E-01  0.94195244502E-01 -0.72940760404E-02  0.12755283409E+00  0.20469685513E-01 0.  0.
         14    1    1    2    0    0  0.61133663614E-02  0.38116719089E-02 -0.25982803930E-01  0.26963089420E-01  0.00000000000E+00 0. -1.
     999901    1    3    3    0    0  0.77101835546E-01 -0.98006916411E-01  0.33276879971E-01  0.88941407648E+00  0.88000000000E+00 0. -1.
        -11    1    4    4    0    0 -0.54896870434E-01  0.55128928234E-01  0.43199423152E-02  0.77921679489E-01  0.51100000000E-03 0.  1.
         11    1    4    4    0    0 -0.28318331474E-01  0.39066316268E-01 -0.11614018356E-01  0.49631154606E-01  0.51100000000E-03 0. -1.
</event>
<event>
 7    1  0.1066842E+005  0.1043930E+01  0.7957747E-01            NaN
         13   -1    0    0    0    0  0.00000000000E+00  0.00000000000E+00  0.74505805969E-08  0.10566000000E+00  0.10566000000E+00 0. -1.
     999900   -1    0    0    0    0 -0.00000000000E+00 -0.00000000000E+00 -0.74505805969E-08  0.93827000000E+00  0.93827000000E+00 0. -1.
     999902    2    1    2    0    0 -0.13095373746E-01  0.14315776996E-01 -0.14735635570E-01  0.10195667235E+01  0.10192755930E+01 0.  0.
         14    1    1    2    0    0  0.13095373746E-01 -0.14315776996E-01  0.14735635570E-01  0.24363276467E-01  0.00000000000E+00 0. -1.
     999901    1    3    3    0    0 -0.20948414779E-01  0.16570792836E-01 -0.13258813991E+00  0.89033310738E+00  0.88000000000E+00 0. -1.
        -11    1    3    3    0    0 -0.18589330662E-01 -0.91662817736E-02  0.79352788188E-01  0.82016523032E-01  0.51100000000E-03 0.  1.
         11    1    3    3    0    0  0.26442371695E-01  0.69112659343E-02  0.38499716153E-01  0.47217093118E-01  0.51100000000E-03 0. -1.
</event>
<event>
 8    1  0.1066842E+005  0.1043930E+01  0.7957747E-01            NaN
         13   -1    0    0    0    0  0.00000000000E+00  0.00000000000E+00  0.74505805969E-08  0.10566000000E+00  0.10566000000E+00 0. -1.
     999900   -1    0    0    0    0 -0.00000000000E+00 -0.00000000000E+00 -0.74505805969E-08  0.93827000000E+00  0.93827000000E+00 0. -1.
     999902    2    1    2    0    0  0.19847069600E-01 -0.90518761500E-02  0.86804729868E-02  0.10204524949E+01  0.10201823862E+01 0.  0.
     999903    2    3    3    0    0 -0.53224325942E-01  0.10985900596E+00  0.36690111151E-01  0.12901334020E+00  0.19910992754E-01 0.  0.
         14    1    1    2    0    0 -0.19847069600E-01  0.90518761500E-02 -0.86804729868E-02  0.23477505081E-01  0.00000000000E+00 0. -1.
     999901    1    3    3    0    0  0.73071395542E-01 -0.11891088211E+00 -0.28009638164E-01  0.89143915472E+00  0.88000000000E+00 0.  1.
        -11    1    4    4    0    0 -0.26877640646E-01  0.64811694144E-01  0.11642419282E-01  0.71125032950E-01  0.51100000000E-03 0.  1.
         11    1    4    4    0    0 -0.26346685296E-01  0.45047311813E-01  0.25047691870E-01  0.57888307253E-01  0.51100000000E-03 0. -1.
</event>
<event>
 8    1  0.1066842E+005  0.1043930E+01  0.7957747E-01            NaN
         13   -1    0    0    0    0  0.00000000000E+00  0.00000000000E+00  0.74505805969E-08  0.10566000000E+00  0.10566000000E+00 0. -1.
     999900   -1    0    0    0    0 -0.00000000000E+00 -0.00000000000E+00 -0.74505805969E-08  0.93827000000E+00  0.93827000000E+00 0.  1.
     999902    2    1    2    0    0 -0.38538460486E-02  0.53776795835E-02 -0.22524589438E-01  0.10204538696E+01  0.10201837929E+01 0.  0.
     999903    2    3    3    0    0  0.69630653717E-01 -0.15161065371E-01 -0.11033051771E+00  0.13279870417E+00  0.19605786206E-01 0.  0.
         14    1    1    2    0    0  0.38538460486E-02 -0.53776795835E-02  0.22524589438E-01  0.23476130354E-01  0.00000000000E+00 0. -1.
     999901    1    3    3    0    0 -0.73484499766E-01  0.20538744954E-01  0.87805928268E-01  0.88765516547E+00  0.88000000000E+00 0. -1.
        -11    1    4    4    0    0  0.46012688106E-01 -0.18022095016E-01 -0.82630425285E-01  0.96280899868E-01  0.51100000000E-03 0.  1.
         11    1    4    4    0    0  0.23617965611E-01  0.28610296454E-02 -0.27700092421E-01  0.36517804306E-01  0.51100000000E-03 0. -1.
</event>
<event>
 8    1  0.1066842E+005  0.1043930E+01  0.7957747E-01            NaN
         13   -1    0    0    0    0  0.00000000000E+00  0.00000000000E+00  0.74505805969E-08  0.10566000000E+00  0.10566000000E+00 0. -1.
     999900   -1    0    0    0    0 -0.00000000000E+00 -0.00000000000E+00 -0.74505805969E-08  0.93827000000E+00  0.93827000000E+00 0. -1.
     999902    2    1    2    0    0  0.18345657446E-01 -0.65015083602E-02  0.13728561509E-01  0.10201118103E+01  0.10198337116E+01 0.  0.
     999903    2    3    3    0    0  0.10103273028E+00  0.81022621769E-01 -0.11880347129E-01  0.13154361285E+00  0.19756052445E-01 0.  0.
         14    1    1    2    0    0 -0.18345657446E-01  0.65015083602E-02 -0.13728561509E-01  0.23818189671E-01  0.00000000000E+00 0.  1.
     999901    1    3    3    0    0 -0.82687072832E-01 -0.87524130130E-01  0.25608908638E-01  0.88856819748E+00  0.88000000000E+00 0.  1.
        -11    1    4    4    0    0  0.26622989485E-01  0.32315778044E-01 -0.43607695074E-03  0.41875343149E-01  0.51100000000E-03 0. -1.
         11    1    4    4    0    0  0.74409740792E-01  0.48706843725E-01 -0.11444270178E-01  0.89668269702E-01  0.51100000000E-03 0.  1.
</event>
<event>
 8    1  0.1066842E+005  0.1043930E+01  0.7957747E-01            NaN
         13   -1    0    0    0    0  0.00000000000E+00  0.00000000000E+00  0.74505805969E-08  0.10566000000E+00  0.10566000000E+00 0.  1.
     999900   -1    0    0    0    0 -0.00000000000E+00 -0.00000000000E+00 -0.74505805969E-08  0.93827000000E+00  0.93827000000E+00 0. -1.
     999902    2    1    2    0    0 -0.16671241492E-01 -0.10357726254E-01 -0.11961729287E-01  0.10209453148E+01  0.10206865533E+01 0.  0.
     999903    2    3    3    0    0  0.61762137017E-03  0.12488611672E+00 -0.30087152796E-01  0.13026112115E+00  0.21582384399E-01 0.  0.
         14    1    1    2    0    0  0.16671241492E-01  0.10357726254E-01  0.11961729287E-01  0.22984685197E-01  0.00000000000E+00 0. -1.
     999901    1    3    3    0    0 -0.17288862863E-01 -0.13524384297E+00  0.18125423509E-01  0.89068419365E+00  0.88000000000E+00 0.  1.
        -11    1    4    4    0    0 -0.72742962321E-02  0.64406436438E-01 -0.23350592995E-01  0.68895687489E-01  0.51100000000E-03 0.  1.
         11    1    4    4    0    0  0.78919176023E-02  0.60479680278E-01 -0.67365598005E-02  0.61365433665E-01  0.51100000000E-03 0. -1.
</event>
<event>
 8    1  0.1066842E+005  0.1043930E+01  0.7957747E-01            NaN
         13   -1    0    0    0    0  0.00000000000E+00  0.00000000000E+00  0.74505805969E-08  0.10566000000E+00  0.10566000000E+00 0.  1.
     999900   -1    0    0    0    0 -0.00000000000E+00 -0.00000000000E+00 -0.74505805969E-08  0.93827000000E+00  0.93827000000E+00 0.  1.
     999902    2    1    2    0    0 -0.22303201487E-01 -0.14537039956E-02 -0.31209380964E-02  0.10213626274E+01  0.10211132799E+01 0.  0.
     999903    2    3    3    0    0  0.82030242964E-01 -0.72873989792E-02  0.97838714659E-01  0.12944763642E+00  0.20055162553E-01 0.  0.
         14    1    1    2    0    0  0.22303201487E-01  0.14537039956E-02  0.31209380964E-02  0.22567372609E-01  0.00000000000E+00 0.  1.
     999901    1    3    3    0    0 -0.10433344445E+00  0.58336949836E-02 -0.10095965276E+00  0.89191499097E+00  0.88000000000E+00 0.  1.
        -11    1    4    4    0    0  0.62257159185E-01 -0.14010337218E-01  0.75650295924E-01  0.98972075926E-01  0.51100000000E-03 0. -1.
         11    1    4    4    0    0  0.19773083779E-01  0.67229382388E-02  0.22188418734E-01  0.30475560497E-01  0.51100000000E-03 0.  1.
</event>
<event>
 8    1  0.1066842E+005  0.1043930E+01  0.7957747E-01            NaN
         13   -1    0    0    0    0  0.00000000000E+00  0.00000000000E+00  0.74505805969E-08  0.10566000000E+00  0.10566000000E+00 0.  1.
     999900   -1    0    0    0    0 -0.00000000000E+00 -0.00000000000E+00 -0.74505805969E-08  0.93827000000E+00  0.93827000000E+00 0. -1.
     999902    2    1    2    0    0 -0.13633482387E-01  0.76418649616E-02 -0.18177609255E-01  0.10199571942E+01  0.10196754300E+01 0.  0.
     999903    2    3    3    0    0 -0.10532831086E+00 -0.66532409525E-01 -0.38135868481E-01  0.13186480218E+00  0.20331428963E-01 0.  0.
         14    1    1    2    0    0  0.13633482387E-01 -0.76418649616E-02  0.18177609255E-01  0.23972805850E-01  0.00000000000E+00 0.  1.
     999901    1    3    3    0    0  0.91694828472E-01  0.74174274486E-01  0.19958259226E-01  0.88809239197E+00  0.88000000000E+00 0.  1.
        -11    1    4    4    0    0 -0.60329497991E-01 -0.32565748441E-01 -0.11536095051E-01  0.69523513356E-01  0.51100000000E-03 0.  1.
         11    1    4    4    0    0 -0.44998812867E-01 -0.33966661083E-01 -0.26599773431E-01  0.62341288824E-01  0.51100000000E-03 0. -1.
</event>
<event>
 8    1  0.1066842E+005  0.1043930E+01  0.7957747E-01            NaN
         13   -1    0    0    0    0  0.00000000000E+00  0.00000000000E+00  0.74505805969E-08  0.10566000000E+00  0.10566000000E+00 0. -1.
     999900   -1    0    0    0    0 -0.00000000000E+00 -0.00000000000E+00 -0.74505805969E-08  0.93827000000E+00  0.93827000000E+00 0.  1.
     999902    2    1    2    0    0 -0.58338414612E-02  0.20164202630E-01 -0.12685174009E-02  0.10229005466E+01  0.10226843552E+01 0.  0.
     999903    2    3    3    0    0  0.82660558021E-01  0.10354213945E+00  0.10093108010E-01  0.13446809243E+00  0.20641089063E-01 0.  0.
         14    1    1    2    0    0  0.58338414612E-02 -0.20164202630E-01  0.12685174009E-02  0.21029453400E-01  0.00000000000E+00 0. -1.
     999901    1    3    3    0    0 -0.88494399482E-01 -0.83377936824E-01 -0.11361625410E-01  0.88843245417E+00  0.88000000000E+00 0. -1.
        -11    1    4    4    0    0  0.62552607869E-01  0.63015655832E-01  0.84706592230E-02  0.89195374431E-01  0.51100000000E-03 0.  1.
         11    1    4    4    0    0  0.20107950152E-01  0.40526483622E-01  0.16224487866E-02  0.45272718001E-01  0.51100000000E-03 0. -1.
</event>
<event>
 8    1  0.1066842E+005  0.1043930E+01  0.7957747E-01            NaN
         13   -1    0    0    0    0  0.00000000000E+00  0.00000000000E+00  0.74505805969E-08  0.10566000000E+00  0.10566000000E+00 0. -1.
     999900   -1    0    0    0    0 -0.00000000000E+00 -0.00000000000E+00 -0.74505805969E-08  0.93827000000E+00  0.93827000000E+00 0.  1.
     999902    2    1    2    0    0  0.20527139511E-01  0.11172241797E-01 -0.76073325761E-02  0.10193524909E+01  0.10190561549E+01 0.  0.
     999903    2    3    3    0    0  0.41701558540E-01 -0.29111072942E-01  0.11726955670E+00  0.12937196365E+00  0.19962001343E-01 0.  0.
         14    1    1    2    0    0 -0.20527139511E-01 -0.11172241797E-01  0.76073325761E-02  0.24577509072E-01  0.00000000000E+00 0.  1.
     999901    1    3    3    0    0 -0.21174419030E-01  0.40283314738E-01 -0.12487688927E+00  0.88998052728E+00  0.88000000000E+00 0.  1.
        -11    1    4    4    0    0  0.11880697404E-01 -0.84488115786E-02  0.58608837984E-01  0.60396940309E-01  0.51100000000E-03 0.  1.
         11    1    4    4    0    0  0.29820861137E-01 -0.20662261363E-01  0.58660718711E-01  0.68975023336E-01  0.51100000000E-03 0. -1.
</event>
<event>
 8    1  0.1066842E+005  0.1043930E+01  0.7957747E-01            NaN
         13   -1    0    0    0    0  0.00000000000E+00  0.00000000000E+00  0.74505805969E-08  0.10566000000E+00  0.10566000000E+00 0.  1.
     999900   -1    0    0    0    0 -0.00000000000E+00 -0.00000000000E+00 -0.74505805969E-08  0.93827000000E+00  0.93827000000E+00 0. -1.
     999902    2    1    2    0    0  0.75941905775E-02 -0.70143265958E-02 -0.22450528173E-01  0.10192136345E+01  0.10189138992E+01 0.  0.
     999903    2    3    3    0    0 -0.35292163995E-01 -0.36898303890E-02 -0.12565920225E+00  0.13213848431E+00  0.20277875604E-01 0.  0.
         14    1    1    2    0    0 -0.75941905775E-02  0.70143265958E-02  0.22450528173E-01  0.24716365497E-01  0.00000000000E+00 0.  1.
     999901    1    3    3    0    0  0.42886354573E-01 -0.33244962068E-02  0.10320867407E+00  0.88707515019E+00  0.88000000000E+00 0.  1.
        -11    1    4    4    0    0 -0.12205758839E-01  0.83393322891E-02 -0.42711849255E-01  0.45200533179E-01  0.51100000000E-03 0. -1.
         11    1    4    4    0    0 -0.23086405157E-01 -0.12029162678E-01 -0.82947352992E-01  0.86937951132E-01  0.51100000000E-03 0.  1.
</event>
<event>
 8    1  0.1066842E+005  0.1043930E+01  0.7957747E-01            NaN
         13   -1    0    0    0    0  0.00000000000E+00  0.00000000000E+00  0.74505805969E-08  0.10566000000E+00  0.10566000000E+00 0. -1.
     999900   -1    0    0    0    0 -0.00000000000E+00 -0.00000000000E+00 -0.74505805969E-08  0.93827000000E+00  0.93827000000E+00 0.  1.
     999902    2    1    2    0    0 -0.19810581192E-01 -0.23103730306E-01  0.13074530213E-01  0.10108062197E+01  0.10102633463E+01 0.  0.
     999903    2    3    3    0    0  0.78528864062E-01  0.45189784153E-01  0.76259488498E-01  0.12045404805E+00  0.22017470840E-01 0.  0.
         14    1    1    2    0    0  0.19810581192E-01  0.23103730306E-01 -0.13074530213E-01  0.33123780302E-01  0.00000000000E+00 0. -1.
     999901    1    3    3    0    0 -0.98339445254E-01 -0.68293514459E-01 -0.63184958285E-01  0.89035217165E+00  0.88000000000E+00 0.  1.
        -11    1    4    4    0    0  0.94611749122E-02 -0.80878860718E-03  0.36430334123E-02  0.10183358148E-01  0.51100000000E-03 0.  1.
         11    1    4    4    0    0  0.69067689150E-01  0.45998572760E-01  0.72616455086E-01  0.11027068990E+00  0.51100000000E-03 0. -1.
</event>
<event>
 8    1  0.1066842E+005  0.1043930E+01  0.7957747E-01            NaN
         13   -1    0    0    0    0  0.00000000000E+00  0.00000000000E+00  0.74505805969E-08  0.10566000000E+00  0.10566000000E+00 0.  1.
     999900   -1    0    0    0    0 -0.00000000000E+00 -0.00000000000E+00 -0.74505805969E-08  0.93827000000E+00  0.93827000000E+00 0. -1.
     999902    2    1    2    0    0  0.16599721688E-01 -0.14552593160E-01 -0.30595982918E-02  0.10216434599E+01  0.10214003472E+01 0.  0.
     999903    2    3    3    0    0  0.57975679202E-01  0.98554135418E-01 -0.61676601162E-01  0.13150804608E+00  0.20402599513E-01 0.  0.
         14    1    1    2    0    0 -0.16599721688E-01  0.14552593160E-01  0.30595982918E-02  0.22286540097E-01  0.00000000000E+00 0. -1.
     999901    1    3    3    0    0 -0.41375957514E-01 -0.11310672858E+00  0.58617002870E-01  0.89013541382E+00  0.88000000000E+00 0.  1.
        -11    1    4    4    0    0  0.31053330941E-01  0.71526635725E-01 -0.40328759481E-01  0.87789742812E-01  0.51100000000E-03 0. -1.
         11    1    4    4    0    0  0.26922348260E-01  0.27027499693E-01 -0.21347841680E-01  0.43718303271E-01  0.51100000000E-03 0.  1.
</event>
<event>
 8    1  0.1066842E+005  0.1043930E+01  0.7957747E-01            NaN
         13   -1    0    0    0    0  0.00000000000E+00  0.00000000000E+00  0.74505805969E-08  0.10566000000E+00  0.10566000000E+00 0. -1.
     999900   -1    0    0    0    0 -0.00000000000E+00 -0.00000000000E+00 -0.74505805969E-08  0.93827000000E+00  0.93827000000E+00 0. -1.
     999902    2    1    2    0    0 -0.87130680375E-02  0.17478095317E-01  0.15816277863E-01  0.10187992217E+01  0.10184892234E+01 0.  0.
     999903    2    3    3    0    0 -0.49329898608E-02  0.94753747723E-01 -0.85846975165E-01  0.12957414761E+00  0.20424237734E-01 0.  0.
         14    1    1    2    0    0  0.87130680375E-02 -0.17478095317E-01 -0.15816277863E-01  0.25130778260E-01  0.00000000000E+00 0.  1.
     999901    1    3    3    0    0 -0.37800781767E-02 -0.77275652407E-01  0.10166325303E+00  0.88922507413E+00  0.88000000000E+00 0.  1.
        -11    1    4    4    0    0  0.12163249989E-03  0.42168563134E-01 -0.51486168655E-01  0.66552905234E-01  0.51100000000E-03 0. -1.
         11    1    4    4    0    0 -0.50546223607E-02  0.52585184590E-01 -0.34360806510E-01  0.63021242376E-01  0.51100000000E-03 0.  1.
</event>
<event>
 8    1  0.1066842E+005  0.1043930E+01  0.7957747E-01            NaN
         13   -1    0    0    0    0  0.00000000000E+00  0.00000000000E+00  0.74505805969E-08  0.10566000000E+00  0.10566000000E+00 0.  1.
     999900   -1    0    0    0    0 -0.00000000000E+00 -0.00000000000E+00 -0.74505805969E-08  0.93827000000E+00  0.93827000000E+00 0.  1.
     999902    2    1    2    0    0 -0.80905106138E-02 -0.22684480315E-01 -0.45335228021E-02  0.10194229635E+01  0.10191283450E+01 0.  0.
     999903    2    3    3    0    0 -0.52897890789E-01  0.42069026876E-01  0.10785588934E+00  0.12878718049E+00  0.19627916856E-01 0.  0.
         14    1    1    2    0    0  0.80905106138E-02  0.22684480315E-01  0.45335228021E-02  0.24507036502E-01  0.00000000000E+00 0.  1.
     999901    1    3    3    0    0  0.44807380175E-01 -0.64753507190E-01 -0.11238941215E+00  0.89063578301E+00  0.88000000000E+00 0. -1.
        -11    1    4    4    0    0 -0.32869473944E-01  0.34521531182E-01  0.85108637314E-01  0.97549370572E-01  0.51100000000E-03 0. -1.
         11    1    4    4    0    0 -0.20028416844E-01  0.75474956932E-02  0.22747252030E-01  0.31237809918E-01  0.51100000000E-03 0.  1.
</event>
<event>
 8    1  0.1066842E+005  0.1043930E+01  0.7957747E-01            NaN
         13   -1    0    0    0    0  0.00000000000E+00  0.00000000000E+00  0.74505805969E-08  0.10566000000E+00  0.10566000000E+00 0. -1.
     999900   -1    0    0    0    0 -0.00000000000E+00 -0.00000000000E+00 -0.74505805969E-08  0.93827000000E+00  0.93827000000E+00 0. -1.
     999902    2    1    2    0    0 -0.13102693709E-01  0.20107855751E-01  0.40122986475E-02  0.10195967925E+01  0.10193063889E+01 0.  0.
     999903    2    3    3    0    0  0.27932773339E-02  0.20045855839E-01 -0.12661819043E+00  0.12981198123E+00  0.20232290732E-01 0.  0.
         14    1    1    2    0    0  0.13102693709E-01 -0.20107855751E-01 -0.40122986475E-02  0.24333207470E-01  0.00000000000E+00 0. -1.
     999901    1    3    3    0    0 -0.15895971043E-01  0.61999911947E-04  0.13063048908E+00  0.88978481130E+00  0.88000000000E+00 0.  1.
        -11    1    4    4    0    0 -0.56484007064E-02  0.19295845172E-01 -0.90957798373E-01  0.93154797393E-01  0.51100000000E-03 0. -1.
         11    1    4    4    0    0  0.84416780402E-02  0.75001066682E-03 -0.35660392060E-01  0.36657183839E-01  0.51100000000E-03 0.  1.
</event>
<event>
 8    1  0.1066842E+005  0.1043930E+01  0.7957747E-01            NaN
         13   -1    0    0    0    0  0.00000000000E+00  0.00000000000E+00  0.74505805969E-08  0.10566000000E+00  0.10566000000E+00 0.  1.
     999900   -1    0    0    0    0 -0.00000000000E+00 -0.00000000000E+00 -0.74505805969E-08  0.93827000000E+00  0.93827000000E+00 0.  1.
     999902    2    1    2    0    0 -0.11623607567E-02  0.21953620756E-01  0.11834320183E-01  0.10189627478E+01  0.10186568204E+01 0.  0.
     999903    2    3    3    0    0  0.48365805994E-01 -0.11211387798E+00 -0.26924186890E-01  0.12658986871E+00  0.19781561989E-01 0.  0.
         14    1    1    2    0    0  0.11623607567E-02 -0.21953620756E-01 -0.11834320183E-01  0.24967252172E-01  0.00000000000E+00 0. -1.
     999901    1    3    3    0    0 -0.49528166751E-01  0.13406749874E+00  0.38758507073E-01  0.89237287912E+00  0.88000000000E+00 0. -1.
        -11    1    4    4    0    0  0.27072345433E-01 -0.54279597860E-01 -0.38506028038E-02  0.60780547003E-01  0.51100000000E-03 0.  1.
         11    1    4    4    0    0  0.21293460561E-01 -0.57834280119E-01 -0.23073584086E-01  0.65809321704E-01  0.51100000000E-03 0. -1.
</event>
<event>
 8    1  0.1066842E+005  0.1043930E+01  0.7957747E-01            NaN
         13   -1    0    0    0    0  0.00000000000E+00  0.00000000000E+00  0.74505805969E-08  0.10566000000E+00  0.10566000000E+00 0.  1.
     999900   -1    0    0    0    0 -0.00000000000E+00 -0.00000000000E+00 -0.74505805969E-08  0.93827000000E+00  0.93827000000E+00 0. -1.
     999902    2    1    2    0    0 -0.55472745121E-02  0.10622731185E-01 -0.21552428262E-01  0.10192698736E+01  0.10189715174E+01 0.  0.
     999903    2    3    3    0    0  0.61666914319E-01 -0.26890979489E-01  0.10555293201E+00  0.12681214443E+00  0.20346140134E-01 0.  0.
         14    1    1    2    0    0  0.55472745121E-02 -0.10622731185E-01  0.21552428262E-01  0.24660126446E-01  0.00000000000E+00 0.  1.
     999901    1    3    3    0    0 -0.67214188832E-01  0.37513710674E-01 -0.12710536027E+00  0.89245772913E+00  0.88000000000E+00 0. -1.
        -11    1    4    4    0    0  0.14090635105E-01  0.24576637337E-02  0.23846097907E-01  0.27811573402E-01  0.51100000000E-03 0.  1.
         11    1    4    4    0    0  0.47576279214E-01 -0.29348643223E-01  0.81706834105E-01  0.99000571025E-01  0.51100000000E-03 0. -1.
</event>
<event>
 8    1  0.1066842E+005  0.1043930E+01  0.7957747E-01            NaN
         13   -1    0    0    0    0  0.00000000000E+00  0.00000000000E+00  0.74505805969E-08  0.10566000000E+00  0.10566000000E+00 0.  1.
     999900   -1    0    0    0    0 -0.00000000000E+00 -0.00000000000E+00 -0.74505805969E-08  0.93827000000E+00  0.93827000000E+00 0. -1.
     999902    2    1    2    0    0 -0.12407589908E-01 -0.17274969923E-01  0.75179035881E-02  0.10213713709E+01  0.10211222187E+01 0.  0.
     999903    2    3    3    0    0 -0.35646468178E-01  0.22134729975E-01  0.12410388976E+00  0.13250385428E+00  0.19871562130E-01 0.  0.
         14    1    1    2    0    0  0.12407589908E-01  0.17274969923E-01 -0.75179035881E-02  0.22558629114E-01  0.00000000000E+00 0. -1.
     999901    1    3    3    0    0  0.23238878270E-01 -0.39409699898E-01 -0.11658598617E+00  0.88886751661E+00  0.88000000000E+00 0. -1.
        -11    1    4    4    0    0 -0.12387517884E-01  0.13431978745E-01  0.29591777602E-01  0.34782223548E-01  0.51100000000E-03 0. -1.
         11    1    4    4    0    0 -0.23258950294E-01  0.87027512301E-02  0.94512112154E-01  0.97721630730E-01  0.51100000000E-03 0.  1.
</event>
<event>
 8    1  0.1066842E+005  0.1043930E+01  0.7957747E-01            NaN
         13   -1    0    0    0    0  0.00000000000E+00  0.00000000000E+00  0.74505805969E-08  0.10566000000E+00  0.10566000000E+00 0.  1.
     999900   -1    0    0    0    0 -0.00000000000E+00 -0.00000000000E+00 -0.74505805969E-08  0.93827000000E+00  0.93827000000E+00 0. -1.
     999902    2    1    2    0    0 -0.47763727273E-02  0.19741663679E-01 -0.91460971631E-02  0.10216544952E+01  0.10214116259E+01 0.  0.
     999903    2    3    3    0    0 -0.10489304410E+00 -0.47926907705E-01 -0.61166857423E-01  0.13187444207E+00  0.18706812677E-01 0.  0.
         14    1    1    2    0    0  0.47763727273E-02 -0.19741663679E-01  0.91460971631E-02  0.22275504810E-01  0.00000000000E+00 0.  1.
     999901    1    3    3    0    0  0.10011667137E+00  0.67668571384E-01  0.52020760260E-01  0.88978005312E+00  0.88000000000E+00 0. -1.
        -11    1    4    4    0    0 -0.31910654610E-01 -0.19300091311E-01 -0.28517864504E-01  0.46950113090E-01  0.51100000000E-03 0.  1.
         11    1    4    4    0    0 -0.72982389489E-01 -0.28626816395E-01 -0.32648992919E-01  0.84924328976E-01  0.51100000000E-03 0. -1.
</event>
<event>
 8    1  0.1066842E+005  0.1043930E+01  0.7957747E-01            NaN
         13   -1    0    0    0    0  0.00000000000E+00  0.00000000000E+00  0.74505805969E-08  0.10566000000E+00  0.10566000000E+00 0. -1.
     999900   -1    0    0    0    0 -0.00000000000E+00 -0.00000000000E+00 -0.74505805969E-08  0.93827000000E+00  0.93827000000E+00 0.  1.
     999902    2    1    2    0    0  0.39650989549E-02  0.25504178277E-01  0.10402721967E-01  0.10161019253E+01  0.10157207888E+01 0.  0.
     999903    2    3    3    0    0  0.55654605447E-01 -0.30485782675E-02  0.11375302920E+00  0.12808821422E+00  0.18976565380E-01 0.  0.
         14    1    1    2    0    0 -0.39650989549E-02 -0.25504178277E-01 -0.10402721967E-01  0.27828074738E-01  0.00000000000E+00 0.  1.
     999901    1    3    3    0    0 -0.51689506492E-01  0.28552756545E-01 -0.10335030723E+00  0.88801371104E+00  0.88000000000E+00 0.  1.
        -11    1    4    4    0    0  0.10954112463E-01 -0.26610741974E-02  0.42495306556E-01  0.43968012191E-01  0.51100000000E-03 0.  1.
         11    1    4    4    0    0  0.44700492985E-01 -0.38750407013E-03  0.71257722645E-01  0.84120202032E-01  0.51100000000E-03 0. -1.
</event>
<event>
 8    1  0.1066842E+005  0.1043930E+01  0.7957747E-01            NaN
         13   -1    0    0    0    0  0.00000000000E+00  0.00000000000E+00  0.74505805969E-08  0.10566000000E+00  0.10566000000E+00 0. -1.
     999900   -1    0    0    0    0 -0.00000000000E+00 -0.00000000000E+00 -0.74505805969E-08  0.93827000000E+00  0.93827000000E+00 0. -1.
     999902    2    1    2    0    0 -0.17489148397E-01 -0.15849656302E-01  0.11868874493E-02  0.10202975939E+01  0.10200238671E+01 0.  0.
     999903    2    3    3    0    0  0.24582295917E-01 -0.11455157878E+00  0.57299854814E-01  0.13200668376E+00  0.20399453924E-01 0.  0.
         14    1    1    2    0    0  0.17489148397E-01  0.15849656302E-01 -0.11868874493E-02  0.23632406106E-01  0.00000000000E+00 0.  1.
     999901    1    3    3    0    0 -0.42071444314E-01  0.98701922481E-01 -0.56112967365E-01  0.88829091014E+00  0.88000000000E+00 0. -1.
        -11    1    4    4    0    0  0.17604137478E-01 -0.51039461684E-01  0.17632843440E-01  0.56798860852E-01  0.51100000000E-03 0.  1.
         11    1    4    4    0    0  0.69781584384E-02 -0.63512117098E-01  0.39667011374E-01  0.75207822903E-01  0.51100000000E-03 0. -1.
</event>
<event>
 8    1  0.1066842E+005  0.1043930E+01  0.7957747E-01            NaN
         13   -1    0    0    0    0  0.00000000000E+00  0.00000000000E+00  0.74505805969E-08  0.10566000000E+00  0.10566000000E+00 0. -1.
     999900   -1    0    0    0    0 -0.00000000000E+00 -0.00000000000E+00 -0.74505805969E-08  0.93827000000E+00  0.93827000000E+00 0. -1.
     999902    2    1    2    0    0 -0.12118515746E-01  0.90813889676E-02  0.24483290824E-01  0.10151417806E+01  0.10147334985E+01 0.  0.
     999903    2    3    3    0    0 -0.11129617004E+00 -0.96824922693E-02 -0.54156037773E-01  0.12588791671E+00  0.20839938239E-01 0.  0.
         14    1    1    2    0    0  0.12118515746E-01 -0.90813889676E-02 -0.24483290824E-01  0.28788219449E-01  0.00000000000E+00 0.  1.
     999901    1    3    3    0    0  0.99177654290E-01  0.18763881237E-01  0.78639328597E-01  0.88925386384E+00  0.88000000000E+00 0.  1.
        -11    1    4    4    0    0 -0.70122925231E-01 -0.16045897931E-01 -0.32652508417E-01  0.79000904490E-01  0.51100000000E-03 0.  1.
         11    1    4    4    0    0 -0.41173244805E-01  0.63634056618E-02 -0.21503529356E-01  0.46887012222E-01  0.51100000000E-03 0. -1.
</event>
<event>
 8    1  0.1066842E+005  0.1043930E+01  0.7957747E-01            NaN
         13   -1    0    0    0    0  0.00000000000E+00  0.00000000000E+00  0.74505805969E-08  0.10566000000E+00  0.10566000000E+00 0. -1.
     999900   -1    0    0    0    0 -0.00000000000E+00 -0.00000000000E+00 -0.74505805969E-08  0.93827000000E+00  0.93827000000E+00 0. -1.
     999902    2    1    2    0    0 -0.47701525353E-02  0.89785322151E-02  0.21835982827E-01  0.10198431044E+01  0.10195586197E+01 0.  0.
     999903    2    3    3    0    0 -0.85463591923E-01  0.97560889028E-01 -0.68595505525E-02  0.13125900662E+00  0.18966306274E-01 0.  0.
         14    1    1    2    0    0  0.47701525353E-02 -0.89785322151E-02 -0.21835982827E-01  0.24086895648E-01  0.00000000000E+00 0.  1.
     999901    1    3    3    0    0  0.80693439388E-01 -0.88582356813E-01  0.28695533380E-01  0.88858409773E+00  0.88000000000E+00 0. -1.
        -11    1    4    4    0    0 -0.56410863691E-01  0.77093344498E-01 -0.43422214425E-02  0.95627848017E-01  0.51100000000E-03 0. -1.
         11    1    4    4    0    0 -0.29052728232E-01  0.20467544530E-01 -0.25173291100E-02  0.35631158607E-01  0.51100000000E-03 0.  1.
</event>
<event>
 8    1  0.1066842E+005  0.1043930E+01  0.7957747E-01            NaN
         13   -1    0    0    0    0  0.00000000000E+00  0.00000000000E+00  0.74505805969E-08  0.10566000000E+00  0.10566000000E+00 0. -1.
     999900   -1    0    0    0    0 -0.00000000000E+00 -0.00000000000E+00 -0.74505805969E-08  0.93827000000E+00  0.93827000000E+00 0. -1.
     999902    2    1    2    0    0 -0.27431479743E-02 -0.23569070545E-01  0.35369379968E-02  0.10199396712E+01  0.10196574900E+01 0.  0.
     999903    2    3    3    0    0 -0.94142525909E-01  0.71542597828E-01  0.47094404604E-01  0.12904274747E+00  0.21283543931E-01 0.  0.
         14    1    1    2    0    0  0.27431479743E-02  0.23569070545E-01 -0.35369379968E-02  0.23990328834E-01  0.00000000000E+00 0. -1.
     999901    1    3    3    0    0  0.91399377934E-01 -0.95111668373E-01 -0.43557466607E-01  0.89089692369E+00  0.88000000000E+00 0. -1.
        -11    1    4    4    0    0 -0.55469252891E-01  0.44925541301E-01  0.39186695936E-01  0.81430955643E-01  0.51100000000E-03 0. -1.
         11    1    4    4    0    0 -0.38673273017E-01  0.26617056527E-01  0.79077086680E-02  0.47611791831E-01  0.51100000000E-03 0.  1.
</event>
<event>
 8    1  0.1066842E+005  0.1043930E+01  0.7957747E-01            NaN
         13   -1    0    0    0    0  0.00000000000E+00  0.00000000000E+00  0.74505805969E-08  0.10566000000E+00  0.10566000000E+00 0. -1.
     999900   -1    0    0    0    0 -0.00000000000E+00 -0.00000000000E+00 -0.74505805969E-08  0.93827000000E+00  0.93827000000E+00 0.  1.
     999902    2    1    2    0    0 -0.50995176508E-02  0.21502173253E-01  0.76010390995E-02  0.10205606968E+01  0.10202931008E+01 0.  0.
     999903    2    3    3    0    0  0.46813984496E-01  0.11841884710E+00 -0.31736314398E-01  0.13284718407E+00  0.20654495181E-01 0.  0.
         14    1    1    2    0    0  0.50995176508E-02 -0.21502173253E-01 -0.76010390995E-02  0.23369303161E-01  0.00000000000E+00 0.  1.
     999901    1    3    3    0    0 -0.51913502147E-01 -0.96916673845E-01  0.39337353497E-01  0.88771351277E+00  0.88000000000E+00 0. -1.
        -11    1    4    4    0    0  0.35802078308E-01  0.93005226747E-01 -0.15845327162E-01  0.10091133002E+00  0.51100000000E-03 0. -1.
         11    1    4    4    0    0  0.11011906188E-01  0.25413620350E-01 -0.15890987236E-01  0.31935854044E-01  0.51100000000E-03 0.  1.
</event>
<event>
 8    1  0.1066842E+005  0.1043930E+01  0.7957747E-01            NaN
         13   -1    0    0    0    0  0.00000000000E+00  0.00000000000E+00  0.74505805969E-08  0.10566000000E+00  0.10566000000E+00 0. -1.
     999900   -1    0    0    0    0 -0.00000000000E+00 -0.00000000000E+00 -0.74505805969E-08  0.93827000000E+00  0.93827000000E+00 0.  1.
     999902    2    1    2    0    0  0.57117926198E-02 -0.11129413610E-01  0.20886993332E-01  0.10195834415E+01  0.10192927152E+01 0.  0.
     999903    2    3    3    0    0 -0.54828809773E-01  0.83576246091E-01  0.81259313946E-01  0.13038203367E+00  0.20129861143E-01 0.  0.
         14    1    1    2    0    0 -0.57117926198E-02  0.11129413610E-01 -0.20886993332E-01  0.24346558539E-01  0.00000000000E+00 0.  1.
     999901    1    3    3    0    0  0.60540602393E-01 -0.94705659700E-01 -0.60372320614E-01  0.88920140779E+00  0.88000000000E+00 0. -1.
        -11    1    4    4    0    0 -0.33589925576E-01  0.67205904669E-01  0.60591504774E-01  0.96522061180E-01  0.51100000000E-03 0. -1.
         11    1    4    4    0    0 -0.21238884197E-01  0.16370341422E-01  0.20667809172E-01  0.33859972493E-01  0.51100000000E-03 0.  1.
</event>
<event>
 8    1  0.1066842E+005  0.1043930E+01  0.7957747E-01            NaN
         13   -1    0    0    0    0  0.00000000000E+00  0.00000000000E+00  0.74505805969E-08  0.10566000000E+00  0.10566000000E+00 0.  1.
     999900   -1    0    0    0    0 -0.00000000000E+00 -0.00000000000E+00 -0.74505805969E-08  0.93827000000E+00  0.93827000000E+00 0. -1.
     999902    2    1    2    0    0 -0.50766461274E-02  0.20972925258E-01 -0.86779613129E-02  0.10206718199E+01  0.10204067919E+01 0.  0.
     999903    2    3    3    0    0 -0.66117757978E-01 -0.33207363935E-01 -0.10676286634E+00  0.13146871054E+00  0.20283621011E-01 0.  0.
         14    1    1    2    0    0  0.50766461274E-02 -0.20972925258E-01  0.86779613129E-02  0.23258180116E-01  0.00000000000E+00 0.  1.
     999901    1    3    3    0    0  0.61041111851E-01  0.54180289193E-01  0.98084905031E-01  0.88920310934E+00  0.88000000000E+00 0.  1.
        -11    1    4    4    0    0 -0.26210331143E-02  0.20547366063E-02 -0.94908198340E-02  0.10071173677E-01  0.51100000000E-03 0.  1.
         11    1    4    4    0    0 -0.63496724864E-01 -0.35262100541E-01 -0.97272046510E-01  0.12139753686E+00  0.51100000000E-03 0. -1.
</event>
<event>
 8    1  0.1066842E+005  0.1043930E+01  0.7957747E-01            NaN
         13   -1    0    0    0    0  0.00000000000E+00  0.00000000000E+00  0.74505805969E-08  0.10566000000E+00  0.10566000000E+00 0. -1.
     999900   -1    0    0    0    0 -0.00000000000E+00 -0.00000000000E+00 -0.74505805969E-08  0.93827000000E+00  0.93827000000E+00 0.  1.
     999902    2    1    2    0    0 -0.10279792899E-02 -0.11064240173E-01 -0.98051563117E-02  0.10291105789E+01  0.10290038719E+01 0.  0.
     999903    2    3    3    0    0  0.21656244826E-01 -0.13640682037E+00 -0.11298936896E-01  0.13993817275E+00  0.19473382725E-01 0.  0.
         14    1    1    2    0    0  0.10279792899E-02  0.11064240173E-01  0.98051563117E-02  0.14819421120E-01  0.00000000000E+00 0. -1.
     999901    1    3    3    0    0 -0.22684224116E-01  0.12534258020E+00  0.14937805843E-02  0.88917240613E+00  0.88000000000E+00 0. -1.
        -11    1    4    4    0    0  0.71220737799E-02 -0.99397064347E-01 -0.61683058333E-02  0.99843925472E-01  0.51100000000E-03 0. -1.
         11    1    4    4    0    0  0.14534171046E-01 -0.37009756025E-01 -0.51306310627E-02  0.40094247283E-01  0.51100000000E-03 0.  1.
</event>
<event>
 8    1  0.1066842E+005  0.1043930E+01  0.7957747E-01            NaN
         13   -1    0    0    0    0  0.00000000000E+00  0.00000000000E+00  0.74505805969E-08  0.10566000000E+00  0.10566000000E+00 0. -1.
     999900   -1    0    0    0    0 -0.00000000000E+00 -0.00000000000E+00 -0.74505805969E-08  0.93827000000E+00  0.93827000000E+00 0. -1.
     999902    2    1    2    0    0 -0.20897694209E-01 -0.30487527030E-02 -0.11180034846E-01  0.10200343582E+01  0.10197544265E+01 0.  0.
     999903    2    3    3    0    0 -0.99326757334E-01 -0.49195196709E-01  0.68034135986E-01  0.13180268964E+00  0.21385350927E-01 0.  0.
         14    1    1    2    0    0  0.20897694209E-01  0.30487527030E-02  0.11180034846E-01  0.23895641767E-01  0.00000000000E+00 0. -1.
     999901    1    3    3    0    0  0.78429063125E-01  0.46146444006E-01 -0.79214170832E-01  0.88823166860E+00  0.88000000000E+00 0. -1.
        -11    1    4    4    0    0 -0.62368083055E-01 -0.19196462169E-01  0.40701657876E-01  0.76910129493E-01  0.51100000000E-03 0.  1.
         11    1    4    4    0    0 -0.36958674279E-01 -0.29998734540E-01  0.27332478110E-01  0.54892560143E-01  0.51100000000E-03 0. -1.
</event>
<event>
 8    1  0.1066842E+005  0.1043930E+01  0.7957747E-01            NaN
         13   -1    0    0    0    0  0.00000000000E+00  0.00000000000E+00  0.74505805969E-08  0.10566000000E+00  0.10566000000E+00 0.  1.
     999900   -1    0    0    0    0 -0.00000000000E+00 -0.00000000000E+00 -0.74505805969E-08  0.93827000000E+00  0.93827000000E+00 0.  1.
     999902    2    1    2    0    0 -0.12839049787E-01  0.13306515679E-01  0.13858370821E-01  0.10208224471E+01  0.10205608799E+01 0.  0.
     999903    2    3    3    0    0 -0.34079738230E-01  0.59104128325E-01 -0.10972993613E+00  0.13075354090E+00  0.20027556822E-01 0.  0.
         14    1    1    2    0    0  0.12839049787E-01 -0.13306515679E-01 -0.13858370821E-01  0.23107552895E-01  0.00000000000E+00 0. -1.
     999901    1    3    3    0    0  0.21240688443E-01 -0.45797612645E-01  0.12358830696E+00  0.89006890620E+00  0.88000000000E+00 0. -1.
        -11    1    4    4    0    0 -0.22072176742E-01  0.25715663602E-01 -0.67978167016E-01  0.75958993230E-01  0.51100000000E-03 0. -1.
         11    1    4    4    0    0 -0.12007561489E-01  0.33388464722E-01 -0.41751769118E-01  0.54794547675E-01  0.51100000000E-03 0.  1.
</event>
<event>
 8    1  0.1066842E+005  0.1043930E+01  0.7957747E-01            NaN
         13   -1    0    0    0    0  0.00000000000E+00  0.00000000000E+00  0.74505805969E-08  0.10566000000E+00  0.10566000000E+00 0.  1.
     999900   -1    0    0    0    0 -0.00000000000E+00 -0.00000000000E+00 -0.74505805969E-08  0.93827000000E+00  0.93827000000E+00 0. -1.
     999902    2    1    2    0    0  0.13351982636E-01  0.87551636966E-02 -0.15472134427E-01  0.10216967979E+01  0.10214548603E+01 0.  0.
     999903    2    3    3    0    0  0.10670933752E+00 -0.68753933398E-01  0.30867203746E-01  0.13216288056E+00  0.20006415444E-01 0.  0.
         14    1    1    2    0    0 -0.13351982636E-01 -0.87551636966E-02  0.15472134427E-01  0.22233202095E-01  0.00000000000E+00 0.  1.
     999901    1    3    3    0    0 -0.93357354887E-01  0.77509097095E-01 -0.46339338173E-01  0.88953391734E+00  0.88000000000E+00 0. -1.
        -11    1    4    4    0    0  0.94706224153E-01 -0.62028484420E-01  0.33667788362E-01  0.11811258556E+00  0.51100000000E-03 0.  1.
         11    1    4    4    0    0  0.12003113369E-01 -0.67254489780E-02 -0.28005846157E-02  0.14050295004E-01  0.51100000000E-03 0. -1.
</event>
<event>
 8    1  0.1066842E+005  0.1043930E+01  0.7957747E-01            NaN
         13   -1    0    0    0    0  0.00000000000E+00  0.00000000000E+00  0.74505805969E-08  0.10566000000E+00  0.10566000000E+00 0. -1.
     999900   -1    0    0    0    0 -0.00000000000E+00 -0.00000000000E+00 -0.74505805969E-08  0.93827000000E+00  0.93827000000E+00 0.  1.
     999902    2    1    2    0    0  0.18101915765E-01  0.13775860470E-01 -0.21893883140E-02  0.10210772735E+01  0.10208215081E+01 0.  0.
     999903    2    3    3    0    0  0.13053337474E+00  0.15537052612E-01 -0.15502615569E-01  0.13382241906E+00  0.19691288143E-01 0.  0.
         14    1    1    2    0    0 -0.18101915765E-01 -0.13775860470E-01  0.21893883140E-02  0.22852726473E-01  0.00000000000E+00 0.  1.
     999901    1    3    3    0    0 -0.11243145897E+00 -0.17611921423E-02  0.13313227255E-01  0.88725485447E+00  0.88000000000E+00 0.  1.
        -11    1    4    4    0    0  0.52291213029E-01 -0.34478678551E-02 -0.61763715533E-02  0.52769948260E-01  0.51100000000E-03 0. -1.
         11    1    4    4    0    0  0.78242161706E-01  0.18984920467E-01 -0.93262440154E-02  0.81052470795E-01  0.51100000000E-03 0.  1.
</event>
<event>
 8    1  0.1066842E+005  0.1043930E+01  0.7957747E-01            NaN
         13   -1    0    0    0    0  0.00000000000E+00  0.00000000000E+00  0.74505805969E-08  0.10566000000E+00  0.10566000000E+00 0.  1.
     999900   -1    0    0    0    0 -0.00000000000E+00 -0.00000000000E+00 -0.74505805969E-08  0.93827000000E+00  0.93827000000E+00 0.  1.
     999902    2    1    2    0    0  0.40288030117E-02  0.17409026097E-01  0.13288355093E-01  0.10216615060E+01  0.10214187912E+01 0.  0.
     999903    2    3    3    0    0  0.10641710818E+00 -0.15489426249E-01 -0.70064604132E-01  0.13120466314E+00  0.27222998354E-01 0.  0.
         14    1    1    2    0    0 -0.40288030117E-02 -0.17409026097E-01 -0.13288355093E-01  0.22268493987E-01  0.00000000000E+00 0. -1.
     999901    1    3    3    0    0 -0.10238830517E+00  0.32898452346E-01  0.83352959225E-01  0.89045684287E+00  0.88000000000E+00 0. -1.
        -11    1    4    4    0    0  0.99145457791E-01 -0.99254776601E-02 -0.70440692559E-01  0.12202659217E+00  0.51100000000E-03 0. -1.
         11    1    4    4    0    0  0.72716503902E-02 -0.55639485892E-02  0.37608842735E-03  0.91780709741E-02  0.51100000000E-03 0.  1.
</event>
<event>
 8    1  0.1066842E+005  0.1043930E+01  0.7957747E-01            NaN
         13   -1    0    0    0    0  0.00000000000E+00  0.00000000000E+00  0.74505805969E-08  0.10566000000E+00  0.10566000000E+00 0. -1.
     999900   -1    0    0    0    0 -0.00000000000E+00 -0.00000000000E+00 -0.74505805969E-08  0.93827000000E+00  0.93827000000E+00 0. -1.
     999902    2    1    2    0    0  0.20714526138E-01 -0.11930826510E-01 -0.30939887647E-02  0.10198258721E+01  0.10195409754E+01 0.  0.
     999903    2    3    3    0    0  0.57863809981E-01 -0.92087990934E-01  0.72460071368E-01  0.13218086633E+00  0.19821728028E-01 0.  0.
         14    1    1    2    0    0 -0.20714526138E-01  0.11930826510E-01  0.30939887647E-02  0.24104127879E-01  0.00000000000E+00 0. -1.
     999901    1    3    3    0    0 -0.37149283843E-01  0.80157164424E-01 -0.75554060132E-01  0.88764500579E+00  0.88000000000E+00 0. -1.
        -11    1    4    4    0    0  0.26400618288E-01 -0.46454609039E-01  0.47076275905E-01  0.71214185532E-01  0.51100000000E-03 0. -1.
         11    1    4    4    0    0  0.31463191693E-01 -0.45633381896E-01  0.25383795463E-01  0.60966680801E-01  0.51100000000E-03 0.  1.
</event>
<event>
 8    1  0.1066842E+005  0.1043930E+01  0.7957747E-01            NaN
         13   -1    0    0    0    0  0.00000000000E+00  0.00000000000E+00  0.74505805969E-08  0.10566000000E+00  0.10566000000E+00 0.  1.
     999900   -1    0    0    0    0 -0.00000000000E+00 -0.00000000000E+00 -0.74505805969E-08  0.93827000000E+00  0.93827000000E+00 0.  1.
     999902    2    1    2    0    0 -0.20367714933E-01 -0.10792402841E-01 -0.85433248029E-02  0.10193473197E+01  0.10190508574E+01 0.  0.
     999903    2    3    3    0    0 -0.14704648809E-01 -0.41670369335E-01  0.12006509566E+00  0.12944527740E+00  0.19692797359E-01 0.  0.
         14    1    1    2    0    0  0.20367714933E-01  0.10792402841E-01  0.85433248029E-02  0.24582680272E-01  0.00000000000E+00 0.  1.
     999901    1    3    3    0    0 -0.56630661243E-02  0.30877966494E-01 -0.12860842046E+00  0.88990204233E+00  0.88000000000E+00 0.  1.
        -11    1    4    4    0    0 -0.17130366882E-01 -0.22593714522E-01  0.82557208261E-01  0.87291919227E-01  0.51100000000E-03 0.  1.
         11    1    4    4    0    0  0.24257180734E-02 -0.19076654812E-01  0.37507887396E-01  0.42153358169E-01  0.51100000000E-03 0. -1.
</event>
<event>
 8    1  0.1066842E+005  0.1043930E+01  0.7957747E-01            NaN
         13   -1    0    0    0    0  0.00000000000E+00  0.00000000000E+00  0.74505805969E-08  0.10566000000E+00  0.10566000000E+00 0.  1.
     999900   -1    0    0    0    0 -0.00000000000E+00 -0.00000000000E+00 -0.74505805969E-08  0.93827000000E+00  0.93827000000E+00 0.  1.
     999902    2    1    2    0    0  0.62946274010E-02 -0.23082735650E-01 -0.25723354747E-03  0.10200030029E+01  0.10197223273E+01 0.  0.
     999903    2    3    3    0    0 -0.80450476881E-01  0.77780355158E-01 -0.59121107663E-01  0.12805960122E+00  0.19542088255E-01 0.  0.
         14    1    1    2    0    0 -0.62946274010E-02  0.23082735650E-01  0.25723354747E-03  0.23926997060E-01  0.00000000000E+00 0.  1.
     999901    1    3    3    0    0  0.86745104282E-01 -0.10086309081E+00  0.58863874116E-01  0.89194340172E+00  0.88000000000E+00 0.  1.
        -11    1    4    4    0    0 -0.44168339577E-01  0.42130103365E-01 -0.43114497598E-01  0.74732247755E-01  0.51100000000E-03 0.  1.
         11    1    4    4    0    0 -0.36282137305E-01  0.35650251793E-01 -0.16006610065E-01  0.53327353460E-01  0.51100000000E-03 0. -1.
</event>
<event>
 8    1  0.1066842E+005  0.1043930E+01  0.7957747E-01            NaN
         13   -1    0    0    0    0  0.00000000000E+00  0.00000000000E+00  0.74505805969E-08  0.10566000000E+00  0.10566000000E+00 0. -1.
     999900   -1    0    0    0    0 -0.00000000000E+00 -0.00000000000E+00 -0.74505805969E-08  0.93827000000E+00  0.93827000000E+00 0.  1.
     999902    2    1    2    0    0  0.91621952778E-02  0.11384472924E-01 -0.15065924667E-01  0.10229410950E+01  0.10227257451E+01 0.  0.
     999903    2    3    3    0    0  0.12199888932E+00 -0.49289647562E-01  0.78504030614E-02  0.13336893578E+00  0.20308762937E-01 0.  0.
         14    1    1    2    0    0 -0.91621952778E-02 -0.11384472924E-01  0.15065924667E-01  0.20988904977E-01  0.00000000000E+00 0. -1.
     999901    1    3    3    0    0 -0.11283669404E+00  0.60674120486E-01 -0.22916327729E-01  0.88957215924E+00  0.88000000000E+00 0. -1.
        -11    1    4    4    0    0  0.15290919966E-01 -0.25670280800E-02  0.66355954270E-02  0.16872881029E-01  0.51100000000E-03 0. -1.
         11    1    4    4    0    0  0.10670796935E+00 -0.46722619482E-01  0.12148076344E-02  0.11649605475E+00  0.51100000000E-03 0.  1.
</event>
<event>
 8    1  0.1066842E+005  0.1043930E+01  0.7957747E-01            NaN
         13   -1    0    0    0    0  0.00000000000E+00  0.00000000000E+00  0.74505805969E-08  0.10566000000E+00  0.10566000000E+00 0.  1.
     999900   -1    0    0    0    0 -0.00000000000E+00 -0.00000000000E+00 -0.74505805969E-08  0.93827000000E+00  0.93827000000E+00 0. -1.
     999902    2    1    2    0    0  0.46782548375E-02 -0.19979050053E-01  0.49436273651E-02  0.10228234143E+01  0.10226056174E+01 0.  0.
     999903    2    3    3    0    0 -0.78056720887E-01  0.61143529569E-01  0.83566264720E-01  0.13175244727E+00  0.23323890742E-01 0.  0.
         14    1    1    2    0    0 -0.46782548375E-02  0.19979050053E-01 -0.49436273651E-02  0.21106585723E-01  0.00000000000E+00 0.  1.
     999901    1    3    3    0    0  0.82734975725E-01 -0.81122579623E-01 -0.78622637355E-01  0.89107096700E+00  0.88000000000E+00 0. -1.
        -11    1    4    4    0    0 -0.70608196873E-01  0.61307676960E-01  0.72148421458E-01  0.11810929074E+00  0.51100000000E-03 0. -1.
         11    1    4    4    0    0 -0.74485240138E-02 -0.16414739071E-03  0.11417843262E-01  0.13643156530E-01  0.51100000000E-03 0.  1.
</event>
<event>
 8    1  0.1066842E+005  0.1043930E+01  0.7957747E-01            NaN
         13   -1    0    0    0    0  0.00000000000E+00  0.00000000000E+00  0.74505805969E-08  0.10566000000E+00  0.10566000000E+00 0. -1.
     999900   -1    0    0    0    0 -0.00000000000E+00 -0.00000000000E+00 -0.74505805969E-08  0.93827000000E+00  0.93827000000E+00 0. -1.
     999902    2    1    2    0    0  0.65910409312E-02  0.99864947798E-02  0.21397037983E-01  0.10194145940E+01  0.10191197718E+01 0.  0.
     999903    2    3    3    0    0  0.57880239510E-01  0.10679582775E+00  0.48801921339E-01  0.13219779043E+00  0.18416224343E-01 0.  0.
         14    1    1    2    0    0 -0.65910409312E-02 -0.99864947798E-02 -0.21397037983E-01  0.24515406033E-01  0.00000000000E+00 0.  1.
     999901    1    3    3    0    0 -0.51289198579E-01 -0.96809332967E-01 -0.27404883356E-01  0.88721680353E+00  0.88000000000E+00 0. -1.
        -11    1    4    4    0    0  0.25305201176E-01  0.61327650735E-01  0.20068314038E-01  0.69314012296E-01  0.51100000000E-03 0.  1.
         11    1    4    4    0    0  0.32575038334E-01  0.45468177012E-01  0.28733607301E-01  0.62883778137E-01  0.51100000000E-03 0. -1.
</event>
<event>
 8    1  0.1066842E+005  0.1043930E+01  0.7957747E-01            NaN
         13   -1    0    0    0    0  0.00000000000E+00  0.00000000000E+00  0.74505805969E-08  0.10566000000E+00  0.10566000000E+00 0.  1.
     999900   -1    0    0    0    0 -0.00000000000E+00 -0.00000000000E+00 -0.74505805969E-08  0.93827000000E+00  0.93827000000E+00 0.  1.
     999902    2    1    2    0    0  0.84197849904E-02  0.17599902738E-01 -0.97796017877E-02  0.10221059315E+01  0.10218729105E+01 0.  0.
     999903    2    3    3    0    0  0.20288311491E-01  0.13046340189E+00 -0.18769819755E-01  0.13477293007E+00  0.19471048536E-01 0.  0.
         14    1    1    2    0    0 -0.84197849904E-02 -0.17599902738E-01  0.97796017877E-02  0.21824068521E-01  0.00000000000E+00 0.  1.
     999901    1    3    3    0    0 -0.11868526501E-01 -0.11286349915E+00  0.89902179674E-02  0.88733300140E+00  0.88000000000E+00 0.  1.
        -11    1    4    4    0    0  0.91960601408E-02  0.10783563708E+00 -0.14184709794E-01  0.10915383300E+00  0.51100000000E-03 0. -1.
         11    1    4    4    0    0  0.11092251350E-01  0.22627764814E-01 -0.45851099609E-02  0.25619097074E-01  0.51100000000E-03 0.  1.
</event>
<event>
 8    1  0.1066842E+005  0.1043930E+01  0.7957747E-01            NaN
         13   -1    0    0    0    0  0.00000000000E+00  0.00000000000E+00  0.74505805969E-08  0.10566000000E+00  0.10566000000E+00 0.  1.
     999900   -1    0    0    0    0 -0.00000000000E+00 -0.00000000000E+00 -0.74505805969E-08  0.93827000000E+00  0.93827000000E+00 0. -1.
     999902    2    1    2    0    0 -0.48619274208E-02  0.12999248308E-01  0.19402810639E-01  0.10200744376E+01  0.10197954552E+01 0.  0.
     999903    2    3    3    0    0  0.44499816767E-01 -0.16890420963E-01  0.12184644933E+00  0.13225425696E+00  0.19470779531E-01 0.  0.
         14    1    1    2    0    0  0.48619274208E-02 -0.12999248308E-01 -0.19402810639E-01  0.23855562360E-01  0.00000000000E+00 0.  1.
     999901    1    3    3    0    0 -0.49361744188E-01  0.29889669271E-01 -0.10244363869E+00  0.88782018068E+00  0.88000000000E+00 0. -1.
        -11    1    4    4    0    0  0.20899673395E-01  0.18277697720E-02  0.57339940042E-01  0.61059535991E-01  0.51100000000E-03 0. -1.
         11    1    4    4    0    0  0.23600143373E-01 -0.18718190735E-01  0.64506509291E-01  0.71194720967E-01  0.51100000000E-03 0.  1.
</event>
<event>
 8    1  0.1136060E+005  0.1043930E+01  0.7957747E-01            NaN
         13   -1    0    0    0    0  0.00000000000E+00  0.00000000000E+00  0.74505805969E-08  0.10566000000E+00  0.10566000000E+00 0.  1.
     999900   -1    0    0    0    0 -0.00000000000E+00 -0.00000000000E+00 -0.74505805969E-08  0.93827000000E+00  0.93827000000E+00 0.  1.
     999902    2    1    2    0    0 -0.30370519459E-01 -0.16392286140E-01  0.17728932650E-02  0.10093725312E+01  0.10087807929E+01 0.  0.
     999903    2    3    3    0    0  0.32486891109E-01 -0.38501185782E-01 -0.10704659916E+00  0.12016977627E+00  0.21072762895E-01 0.  0.
         14    1    1    2    0    0  0.30370519459E-01  0.16392286140E-01 -0.17728932650E-02  0.34557468768E-01  0.00000000000E+00 0. -1.
     999901    1    3    3    0    0 -0.62857410568E-01  0.22108899643E-01  0.10881949242E+00  0.88920275497E+00  0.88000000000E+00 0. -1.
        -11    1    4    4    0    0  0.11806466970E-01 -0.72455154764E-02 -0.50200026737E-01  0.52078728500E-01  0.51100000000E-03 0.  1.
         11    1    4    4    0    0  0.20680424139E-01 -0.31255670306E-01 -0.56846572422E-01  0.68091047767E-01  0.51100000000E-03 0. -1.
</event>
<event>
 8    1  0.1066842E+005  0.1043930E+01  0.7957747E-01            NaN
         13   -1    0    0    0    0  0.00000000000E+00  0.00000000000E+00  0.74505805969E-08  0.10566000000E+00  0.10566000000E+00 0. -1.
     999900   -1    0    0    0    0 -0.00000000000E+00 -0.00000000000E+00 -0.74505805969E-08  0.93827000000E+00  0.93827000000E+00 0.  1.
     999902    2    1    2    0    0  0.22244112346E-01  0.61621538003E-02 -0.44623503524E-02  0.10204207413E+01  0.10201498929E+01 0.  0.
     999903    2    3    3    0    0  0.99363966564E-01  0.55437640446E-01 -0.66789863371E-01  0.13348203746E+00  0.20249411035E-01 0.  0.
         14    1    1    2    0    0 -0.22244112346E-01 -0.61621538003E-02  0.44623503524E-02  0.23509258690E-01  0.00000000000E+00 0.  1.
     999901    1    3    3    0    0 -0.77119854218E-01 -0.49275486645E-01  0.62327513018E-01  0.88693870384E+00  0.88000000000E+00 0. -1.
        -11    1    4    4    0    0  0.22788586673E-01  0.36594290911E-02 -0.14853730121E-01  0.27451876499E-01  0.51100000000E-03 0.  1.
         11    1    4    4    0    0  0.76575379891E-01  0.51778211355E-01 -0.51936133250E-01  0.10603016097E+00  0.51100000000E-03 0. -1.
</event>
<event>
 8    1  0.1066842E+005  0.1043930E+01  0.7957747E-01            NaN
         13   -1    0    0    0    0  0.00000000000E+00  0.00000000000E+00  0.74505805969E-08  0.10566000000E+00  0.10566000000E+00 0. -1.
     999900   -1    0    0    0    0 -0.00000000000E+00 -0.00000000000E+00 -0.74505805969E-08  0.93827000000E+00  0.93827000000E+00 0.  1.
     999902    2    1    2    0    0 -0.16237797370E-01  0.11191657466E-01  0.12455040328E-01  0.10206051787E+01  0.10203386122E+01 0.  0.
     999903    2    3    3    0    0  0.10218716011E+00  0.11129733148E-01  0.77497185177E-01  0.13029346079E+00  0.20111826473E-01 0.  0.
         14    1    1    2    0    0  0.16237797370E-01 -0.11191657466E-01 -0.12455040328E-01  0.23324821325E-01  0.00000000000E+00 0. -1.
     999901    1    3    3    0    0 -0.11842495748E+00  0.61924318303E-04 -0.65042144850E-01  0.89031171788E+00  0.88000000000E+00 0.  1.
        -11    1    4    4    0    0  0.19743225514E-01  0.81851960688E-02  0.23103824989E-01  0.31477614880E-01  0.51100000000E-03 0.  1.
         11    1    4    4    0    0  0.82443934596E-01  0.29445370790E-02  0.54393360188E-01  0.98815845915E-01  0.51100000000E-03 0. -1.
</event>
<event>
 8    1  0.1066842E+005  0.1043930E+01  0.7957747E-01            NaN
         13   -1    0    0    0    0  0.00000000000E+00  0.00000000000E+00  0.74505805969E-08  0.10566000000E+00  0.10566000000E+00 0. -1.
     999900   -1    0    0    0    0 -0.00000000000E+00 -0.00000000000E+00 -0.74505805969E-08  0.93827000000E+00  0.93827000000E+00 0. -1.
     999902    2    1    2    0    0 -0.14191830021E-01  0.18448479215E-01  0.44008792426E-02  0.10202419827E+01  0.10199669510E+01 0.  0.
     999903    2    3    3    0    0  0.58653396264E-01  0.11418061544E+00 -0.20873923020E-01  0.13169829525E+00  0.20767437846E-01 0.  0.
         14    1    1    2    0    0  0.14191830021E-01 -0.18448479215E-01 -0.44008792426E-02  0.23688017283E-01  0.00000000000E+00 0. -1.
     999901    1    3    3    0    0 -0.72845226285E-01 -0.95732136227E-01  0.25274802262E-01  0.88854368746E+00  0.88000000000E+00 0.  1.
        -11    1    4    4    0    0  0.25089439320E-01  0.32754331279E-01 -0.13052383940E-01  0.43277615813E-01  0.51100000000E-03 0. -1.
         11    1    4    4    0    0  0.33563956944E-01  0.81426284163E-01 -0.78215390796E-02  0.88420679442E-01  0.51100000000E-03 0.  1.
</event>
<event>
 8    1  0.1066842E+005  0.1043930E+01  0.7957747E-01            NaN
         13   -1    0    0    0    0  0.00000000000E+00  0.00000000000E+00  0.74505805969E-08  0.10566000000E+00  0.10566000000E+00 0.  1.
     999900   -1    0    0    0    0 -0.00000000000E+00 -0.00000000000E+00 -0.74505805969E-08  0.93827000000E+00  0.93827000000E+00 0.  1.
     999902    2    1    2    0    0  0.34832830881E-02  0.14479712080E-01 -0.19393828124E-01  0.10194776812E+01  0.10191843929E+01 0.  0.
     999903    2    3    3    0    0 -0.14248301572E-02  0.28717204534E-01 -0.12832417747E+00  0.13263349157E+00  0.17258058538E-01 0.  0.
         14    1    1    2    0    0 -0.34832830881E-02 -0.14479712080E-01  0.19393828124E-01  0.24452318751E-01  0.00000000000E+00 0.  1.
     999901    1    3    3    0    0  0.49081132453E-02 -0.14237492454E-01  0.10893034934E+00  0.88684418968E+00  0.88000000000E+00 0. -1.
        -11    1    4    4    0    0 -0.77200567761E-02  0.20729739334E-01 -0.10277493200E+00  0.10512977284E+00  0.51100000000E-03 0. -1.
         11    1    4    4    0    0  0.62952266190E-02  0.79874652002E-02 -0.25549245470E-01  0.27503718723E-01  0.51100000000E-03 0.  1.
</event>
<event>
 8    1  0.1066842E+005  0.1043930E+01  0.7957747E-01            NaN
         13   -1    0    0    0    0  0.00000000000E+00  0.00000000000E+00  0.74505805969E-08  0.10566000000E+00  0.10566000000E+00 0. -1.
     999900   -1    0    0    0    0 -0.00000000000E+00 -0.00000000000E+00 -0.74505805969E-08  0.93827000000E+00  0.93827000000E+00 0. -1.
     999902    2    1    2    0    0 -0.14897326899E-01  0.17512143068E-01 -0.43781939984E-02  0.10205254260E+01  0.10202570122E+01 0.  0.
     999903    2    3    3    0    0 -0.28218902125E-01  0.79591774878E-01  0.99678520962E-01  0.13212284549E+00  0.19735290555E-01 0.  0.
         14    1    1    2    0    0  0.14897326899E-01 -0.17512143068E-01  0.43781939984E-02  0.23404574045E-01  0.00000000000E+00 0.  1.
     999901    1    3    3    0    0  0.13321575226E-01 -0.62079631810E-01 -0.10405671496E+00  0.88840258047E+00  0.88000000000E+00 0. -1.
        -11    1    4    4    0    0 -0.27968164791E-01  0.77295926044E-01  0.88867419664E-01  0.12105601110E+00  0.51100000000E-03 0. -1.
         11    1    4    4    0    0 -0.25073733355E-03  0.22958488335E-02  0.10811101298E-01  0.11066834387E-01  0.51100000000E-03 0.  1.
</event>
<event>
 8    1  0.1066842E+005  0.1043930E+01  0.7957747E-01            NaN
         13   -1    0    0    0    0  0.00000000000E+00  0.00000000000E+00  0.74505805969E-08  0.10566000000E+00  0.10566000000E+00 0. -1.
     999900   -1    0    0    0    0 -0.00000000000E+00 -0.00000000000E+00 -0.74505805969E-08  0.93827000000E+00  0.93827000000E+00 0.  1.
     999902    2    1    2    0    0 -0.15033841519E-01  0.19504966573E-02 -0.18199644272E-01  0.10202435507E+01  0.10199685558E+01 0.  0.
     999903    2    3    3    0    0 -0.11389482898E+00  0.58864782547E-01  0.22065573095E-01  0.13196768224E+00  0.22169459785E-01 0.  0.
         14    1    1    2    0    0  0.15033841519E-01 -0.19504966573E-02  0.18199644272E-01  0.23686449283E-01  0.00000000000E+00 0. -1.
     999901    1    3    3    0    0  0.98860987466E-01 -0.56914285890E-01 -0.40265217367E-01  0.88827586847E+00  0.88000000000E+00 0. -1.
        -11    1    4    4    0    0 -0.30286768982E-01  0.27152692926E-01  0.76115405061E-02  0.41385429542E-01  0.51100000000E-03 0. -1.
         11    1    4    4    0    0 -0.83608060003E-01  0.31712089621E-01  0.14454032589E-01  0.90582252703E-01  0.51100000000E-03 0.  1.
</event>
<event>
 8    1  0.1066842E+005  0.1043930E+01  0.7957747E-01            NaN
         13   -1    0    0    0    0  0.00000000000E+00  0.00000000000E+00  0.74505805969E-08  0.10566000000E+00  0.10566000000E+00 0.  1.
     999900   -1    0    0    0    0 -0.00000000000E+00 -0.00000000000E+00 -0.74505805969E-08  0.93827000000E+00  0.93827000000E+00 0.  1.
     999902    2    1    2    0    0 -0.29540453026E-02  0.22715409922E-01 -0.61168538534E-02  0.10202206741E+01  0.10199451416E+01 0.  0.
     999903    2    3    3    0    0 -0.12100948498E+00  0.48162735191E-01 -0.40950444058E-02  0.13197029226E+00  0.20891245404E-01 0.  0.
         14    1    1    2    0    0  0.29540453026E-02 -0.22715409922E-01  0.61168538534E-02  0.23709325858E-01  0.00000000000E+00 0.  1.
     999901    1    3    3    0    0  0.11805543968E+00 -0.25447325268E-01 -0.20218094476E-02  0.88825038188E+00  0.88000000000E+00 0.  1.
        -11    1    4    4    0    0 -0.77764156681E-01  0.26619853044E-01  0.66794663082E-02  0.82466702562E-01  0.51100000000E-03 0.  1.
         11    1    4    4    0    0 -0.43245328298E-01  0.21542882146E-01 -0.10774510714E-01  0.49503589697E-01  0.51100000000E-03 0. -1.
</event>
<event>
 8    1  0.1066842E+005  0.1043930E+01  0.7957747E-01            NaN
         13   -1    0    0    0    0  0.00000000000E+00  0.00000000000E+00  0.74505805969E-08  0.10566000000E+00  0.10566000000E+00 0.  1.
     999900   -1    0    0    0    0 -0.00000000000E+00 -0.00000000000E+00 -0.74505805969E-08  0.93827000000E+00  0.93827000000E+00 0. -1.
     999902    2    1    2    0    0 -0.45895846664E-02  0.95447381520E-02 -0.21522357120E-01  0.10199429583E+01  0.10196608554E+01 0.  0.
     999903    2    3    3    0    0 -0.52686666773E-01  0.57791544186E-01  0.10191481787E+00  0.12872030386E+00  0.81571496507E-02 0.  0.
         14    1    1    2    0    0  0.45895846664E-02 -0.95447381520E-02  0.21522357120E-01  0.23987041706E-01  0.00000000000E+00 0.  1.
     999901    1    3    3    0    0  0.48097082107E-01 -0.48246806034E-01 -0.12343717499E+00  0.89122265443E+00  0.88000000000E+00 0. -1.
        -11    1    4    4    0    0 -0.46082174628E-01  0.48303598297E-01  0.90556088694E-01  0.11250542541E+00  0.51100000000E-03 0.  1.
         11    1    4    4    0    0 -0.66044921449E-02  0.94879458896E-02  0.11358729176E-01  0.16214878451E-01  0.51100000000E-03 0. -1.
</event>
<event>
 8    1  0.1066842E+005  0.1043930E+01  0.7957747E-01            NaN
         13   -1    0    0    0    0  0.00000000000E+00  0.00000000000E+00  0.74505805969E-08  0.10566000000E+00  0.10566000000E+00 0. -1.
     999900   -1    0    0    0    0 -0.00000000000E+00 -0.00000000000E+00 -0.74505805969E-08  0.93827000000E+00  0.93827000000E+00 0. -1.
     999902    2    1    2    0    0 -0.12943095280E-02 -0.59499171334E-02  0.26716011743E-01  0.10165288680E+01  0.10161594941E+01 0.  0.
     999903    2    3    3    0    0  0.37122527942E-01 -0.62481247466E-02 -0.11651818253E+00  0.12412090259E+00  0.20307399070E-01 0.  0.
         14    1    1    2    0    0  0.12943095280E-02  0.59499171334E-02 -0.26716011743E-01  0.27401131993E-01  0.00000000000E+00 0.  1.
     999901    1    3    3    0    0 -0.38416837470E-01  0.29820761320E-03  0.14323419427E+00  0.89240796542E+00  0.88000000000E+00 0.  1.
        -11    1    4    4    0    0  0.26350785375E-01  0.44255963993E-02 -0.61646244146E-01  0.67189808243E-01  0.51100000000E-03 0. -1.
         11    1    4    4    0    0  0.10771742567E-01 -0.10673721146E-01 -0.54871938381E-01  0.56931094349E-01  0.51100000000E-03 0.  1.
</event>
<event>
 7    1  0.1279100E+005  0.1043930E+01  0.7957747E-01            NaN
         13   -1    0    0    0    0  0.00000000000E+00  0.00000000000E+00  0.74505805969E-08  0.10566000000E+00  0.10566000000E+00 0.  1.
     999900   -1    0    0    0    0 -0.00000000000E+00 -0.00000000000E+00 -0.74505805969E-08  0.93827000000E+00  0.93827000000E+00 0. -1.
     999903    2    1    2    0    0  0.42116120728E-02 -0.78862460299E-01  0.61075913865E-01  0.10185134455E+00  0.20159459597E-01 0.  0.
         14    1    1    2    0    0  0.46948168390E-01 -0.26077542697E-02 -0.31010160031E-01  0.56325490878E-01  0.00000000000E+00 0. -1.
     999901    1    1    2    0    0 -0.51159780462E-01  0.81470214569E-01 -0.30065753833E-01  0.88575316457E+00  0.88000000000E+00 0.  1.
        -11    1    3    3    0    0 -0.75385920391E-02 -0.20064545449E-01  0.18394785589E-01  0.28249701094E-01  0.51100000000E-03 0.  1.
         11    1    3    3    0    0  0.11750204112E-01 -0.58797914850E-01  0.42681128276E-01  0.73601643455E-01  0.51100000000E-03 0. -1.
</event>
<event>
 8    1  0.1066842E+005  0.1043930E+01  0.7957747E-01            NaN
         13   -1    0    0    0    0  0.00000000000E+00  0.00000000000E+00  0.74505805969E-08  0.10566000000E+00  0.10566000000E+00 0.  1.
     999900   -1    0    0    0    0 -0.00000000000E+00 -0.00000000000E+00 -0.74505805969E-08  0.93827000000E+00  0.93827000000E+00 0.  1.
     999902    2    1    2    0    0 -0.32051602234E-01  0.15106746864E-01  0.10508199268E-01  0.10069713575E+01  0.10062928865E+01 0.  0.
     999903    2    3    3    0    0  0.54058144310E-01  0.94877533506E-01 -0.39417753174E-01  0.11777460332E+00  0.19825957497E-01 0.  0.
         14    1    1    2    0    0  0.32051602234E-01 -0.15106746864E-01 -0.10508199268E-01  0.36958642540E-01  0.00000000000E+00 0.  1.
     999901    1    3    3    0    0 -0.86109746544E-01 -0.79770786642E-01  0.49925952442E-01  0.88919675414E+00  0.88000000000E+00 0. -1.
        -11    1    4    4    0    0  0.19289048292E-02  0.13337275589E-01 -0.59944633272E-03  0.13499038887E-01  0.51100000000E-03 0.  1.
         11    1    4    4    0    0  0.52129239481E-01  0.81540257917E-01 -0.38818306841E-01  0.10427556443E+00  0.51100000000E-03 0. -1.
</event>
<event>
 8    1  0.1066842E+005  0.1043930E+01  0.7957747E-01            NaN
         13   -1    0    0    0    0  0.00000000000E+00  0.00000000000E+00  0.74505805969E-08  0.10566000000E+00  0.10566000000E+00 0. -1.
     999900   -1    0    0    0    0 -0.00000000000E+00 -0.00000000000E+00 -0.74505805969E-08  0.93827000000E+00  0.93827000000E+00 0. -1.
     999902    2    1    2    0    0 -0.15404347388E-01  0.61368743639E-02 -0.17222909052E-01  0.10200221824E+01  0.10197419619E+01 0.  0.
     999903    2    3    3    0    0  0.54909631118E-01 -0.11229865272E+00  0.21760873240E-01  0.12845571550E+00  0.20031980650E-01 0.  0.
         14    1    1    2    0    0  0.15404347388E-01 -0.61368743639E-02  0.17222909052E-01  0.23907817584E-01  0.00000000000E+00 0. -1.
     999901    1    3    3    0    0 -0.70313978506E-01  0.11843552708E+00 -0.38983782293E-01  0.89156646692E+00  0.88000000000E+00 0.  1.
        -11    1    4    4    0    0  0.24556102747E-01 -0.67750565933E-01  0.18743090260E-01  0.74462782112E-01  0.51100000000E-03 0.  1.
         11    1    4    4    0    0  0.30353528370E-01 -0.44548086784E-01  0.30177829802E-02  0.53992933387E-01  0.51100000000E-03 0. -1.
</event>
<event>
 8    1  0.1066842E+005  0.1043930E+01  0.7957747E-01            NaN
         13   -1    0    0    0    0  0.00000000000E+00  0.00000000000E+00  0.74505805969E-08  0.10566000000E+00  0.10566000000E+00 0.  1.
     999900   -1    0    0    0    0 -0.00000000000E+00 -0.00000000000E+00 -0.74505805969E-08  0.93827000000E+00  0.93827000000E+00 0.  1.
     999902    2    1    2    0    0  0.56606184970E-04  0.84931467442E-02  0.20512218144E-01  0.10217289226E+01  0.10214876913E+01 0.  0.
     999903    2    3    3    0    0 -0.70816002760E-01 -0.72123900598E-01 -0.78617034264E-01  0.12968147781E+00  0.20491079180E-01 0.  0.
         14    1    1    2    0    0 -0.56606184970E-04 -0.84931467442E-02 -0.20512218144E-01  0.22201077430E-01  0.00000000000E+00 0. -1.
     999901    1    3    3    0    0  0.70872608945E-01  0.80617047342E-01  0.99129252408E-01  0.89204744476E+00  0.88000000000E+00 0. -1.
        -11    1    4    4    0    0 -0.49325238587E-01 -0.35917935206E-01 -0.45716331846E-01  0.76245139842E-01  0.51100000000E-03 0. -1.
         11    1    4    4    0    0 -0.21490764173E-01 -0.36205965392E-01 -0.32900702418E-01  0.53436337967E-01  0.51100000000E-03 0.  1.
</event>
<event>
 8    1  0.1066842E+005  0.1043930E+01  0.7957747E-01            NaN
         13   -1    0    0    0    0  0.00000000000E+00  0.00000000000E+00  0.74505805969E-08  0.10566000000E+00  0.10566000000E+00 0. -1.
     999900   -1    0    0    0    0 -0.00000000000E+00 -0.00000000000E+00 -0.74505805969E-08  0.93827000000E+00  0.93827000000E+00 0. -1.
     999902    2    1    2    0    0 -0.84337038988E-02  0.19701040881E-01 -0.24630619449E-01  0.10112814811E+01  0.10107543263E+01 0.  0.
     999903    2    3    3    0    0 -0.21130167993E-01 -0.28809002253E-01  0.11205584350E+00  0.11931869394E+00  0.20099652992E-01 0.  0.
         14    1    1    2    0    0  0.84337038988E-02 -0.19701040881E-01  0.24630619449E-01  0.32648518921E-01  0.00000000000E+00 0. -1.
     999901    1    3    3    0    0  0.12696464094E-01  0.48510043134E-01 -0.13668646295E+00  0.89196278714E+00  0.88000000000E+00 0. -1.
        -11    1    4    4    0    0 -0.16813430574E-01 -0.10257764922E-01  0.37428402474E-01  0.42297276764E-01  0.51100000000E-03 0. -1.
         11    1    4    4    0    0 -0.43167374184E-02 -0.18551237331E-01  0.74627441029E-01  0.77021417178E-01  0.51100000000E-03 0.  1.
</event>
<event>
 8    1  0.1066842E+005  0.1043930E+01  0.7957747E-01            NaN
         13   -1    0    0    0    0  0.00000000000E+00  0.00000000000E+00  0.74505805969E-08  0.10566000000E+00  0.10566000000E+00 0.  1.
     999900   -1    0    0    0    0 -0.00000000000E+00 -0.00000000000E+00 -0.74505805969E-08  0.93827000000E+00  0.93827000000E+00 0. -1.
     999902    2    1    2    0    0  0.10821975245E-02 -0.17714620379E-01  0.15453357348E-01  0.10203973593E+01  0.10201259656E+01 0.  0.
     999903    2    3    3    0    0  0.86232933182E-01  0.29391777470E-01  0.92462646182E-01  0.13169038221E+00  0.22204064472E-01 0.  0.
         14    1    1    2    0    0 -0.10821975245E-02  0.17714620379E-01 -0.15453357348E-01  0.23532640736E-01  0.00000000000E+00 0. -1.
     999901    1    3    3    0    0 -0.85150735658E-01 -0.47106397849E-01 -0.77009288834E-01  0.88870697706E+00  0.88000000000E+00 0. -1.
        -11    1    4    4    0    0  0.24214735489E-01 -0.36001863478E-03  0.17072368378E-01  0.29634606649E-01  0.51100000000E-03 0. -1.
         11    1    4    4    0    0  0.62018197693E-01  0.29751796104E-01  0.75390277804E-01  0.10205577556E+00  0.51100000000E-03 0.  1.
</event>
<event>
 8    1  0.1066842E+005  0.1043930E+01  0.7957747E-01            NaN
         13   -1    0    0    0    0  0.00000000000E+00  0.00000000000E+00  0.74505805969E-08  0.10566000000E+00  0.10566000000E+00 0. -1.
     999900   -1    0    0    0    0 -0.00000000000E+00 -0.00000000000E+00 -0.74505805969E-08  0.93827000000E+00  0.93827000000E+00 0. -1.
     999902    2    1    2    0    0 -0.36820218143E-02  0.10941511252E-01 -0.18519328992E-01  0.10221070877E+01  0.10218740917E+01 0.  0.
     999903    2    3    3    0    0  0.98731500818E-01 -0.78603247206E-01 -0.31499935205E-01  0.13155934083E+00  0.19729027288E-01 0.  0.
         14    1    1    2    0    0  0.36820218143E-02 -0.10941511252E-01  0.18519328992E-01  0.21822912258E-01  0.00000000000E+00 0. -1.
     999901    1    3    3    0    0 -0.10241352263E+00  0.89544758457E-01  0.12980606213E-01  0.89054774691E+00  0.88000000000E+00 0.  1.
        -11    1    4    4    0    0  0.42819383671E-01 -0.40602161163E-01 -0.60425260878E-02  0.59319544432E-01  0.51100000000E-03 0.  1.
         11    1    4    4    0    0  0.55912117147E-01 -0.38001086043E-01 -0.25457409117E-01  0.72239796402E-01  0.51100000000E-03 0. -1.
</event>
<event>
 8    1  0.1066842E+005  0.1043930E+01  0.7957747E-01            NaN
         13   -1    0    0    0    0  0.00000000000E+00  0.00000000000E+00  0.74505805969E-08  0.10566000000E+00  0.10566000000E+00 0. -1.
     999900   -1    0    0    0    0 -0.00000000000E+00 -0.00000000000E+00 -0.74505805969E-08  0.93827000000E+00  0.93827000000E+00 0. -1.
     999902    2    1    2    0    0 -0.14706262318E-01 -0.17457897179E-01  0.64126152450E-02  0.10202197921E+01  0.10199442388E+01 0.  0.
     999903    2    3    3    0    0 -0.12523880737E+00  0.28820454992E-01 -0.20389719872E-01  0.13169433124E+00  0.20304647432E-01 0.  0.
         14    1    1    2    0    0  0.14706262318E-01  0.17457897179E-01 -0.64126152450E-02  0.23710207919E-01  0.00000000000E+00 0.  1.
     999901    1    3    3    0    0  0.11053254505E+00 -0.46278352171E-01  0.26802335117E-01  0.88852546084E+00  0.88000000000E+00 0.  1.
        -11    1    4    4    0    0 -0.41749526601E-01  0.16821628550E-01 -0.13832088878E-01  0.47091166498E-01  0.51100000000E-03 0. -1.
         11    1    4    4    0    0 -0.83489280767E-01  0.11998826442E-01 -0.65576309943E-02  0.84603164742E-01  0.51100000000E-03 0.  1.
</event>
<event>
 8    1  0.1066842E+005  0.1043930E+01  0.7957747E-01            NaN
         13   -1    0    0    0    0  0.00000000000E+00  0.00000000000E+00  0.74505805969E-08  0.10566000000E+00  0.10566000000E+00 0. -1.
     999900   -1    0    0    0    0 -0.00000000000E+00 -0.00000000000E+00 -0.74505805969E-08  0.93827000000E+00  0.93827000000E+00 0.  1.
     999902    2    1    2    0    0 -0.14108987194E-01 -0.14501282207E-01  0.12040776560E-01  0.10203857649E+01  0.10201141006E+01 0.  0.
     999903    2    3    3    0    0  0.91589127461E-01  0.49826245783E-01  0.74351571905E-01  0.12954753184E+00  0.19575079157E-01 0.  0.
         14    1    1    2    0    0  0.14108987194E-01  0.14501282207E-01 -0.12040776560E-01  0.23544235078E-01  0.00000000000E+00 0.  1.
     999901    1    3    3    0    0 -0.10569811465E+00 -0.64327527990E-01 -0.62310795345E-01  0.89083823308E+00  0.88000000000E+00 0.  1.
        -11    1    4    4    0    0  0.53297862863E-01  0.25859472132E-01  0.53368880575E-01  0.79736271669E-01  0.51100000000E-03 0. -1.
         11    1    4    4    0    0  0.38291264597E-01  0.23966773651E-01  0.20982691329E-01  0.49811260174E-01  0.51100000000E-03 0.  1.
</event>
<event>
 8    1  0.1066842E+005  0.1043930E+01  0.7957747E-01            NaN
         13   -1    0    0    0    0  0.00000000000E+00  0.00000000000E+00  0.74505805969E-08  0.10566000000E+00  0.10566000000E+00 0. -1.
     999900   -1    0    0    0    0 -0.00000000000E+00 -0.00000000000E+00 -0.74505805969E-08  0.93827000000E+00  0.93827000000E+00 0.  1.
     999902    2    1    2    0    0  0.92510075193E-02  0.64746318708E-02 -0.22002103706E-01  0.10191995620E+01  0.10188994811E+01 0.  0.
     999903    2    3    3    0    0 -0.12646272152E+00 -0.82923629597E-02 -0.72781781601E-02  0.12855200295E+00  0.20274673100E-01 0.  0.
         14    1    1    2    0    0 -0.92510075193E-02 -0.64746318708E-02  0.22002103706E-01  0.24730438036E-01  0.00000000000E+00 0. -1.
     999901    1    3    3    0    0  0.13571372904E+00  0.14766994831E-01 -0.14723925546E-01  0.89064755901E+00  0.88000000000E+00 0. -1.
        -11    1    4    4    0    0 -0.78913616739E-01 -0.14823970463E-01 -0.63242336312E-02  0.80544186998E-01  0.51100000000E-03 0.  1.
         11    1    4    4    0    0 -0.47549104779E-01  0.65316075030E-02 -0.95394452884E-03  0.48007815957E-01  0.51100000000E-03 0. -1.
</event>
<event>
 8    1  0.1066842E+005  0.1043930E+01  0.7957747E-01            NaN
         13   -1    0    0    0    0  0.00000000000E+00  0.00000000000E+00  0.74505805969E-08  0.10566000000E+00  0.10566000000E+00 0.  1.
     999900   -1    0    0    0    0 -0.00000000000E+00 -0.00000000000E+00 -0.74505805969E-08  0.93827000000E+00  0.93827000000E+00 0.  1.
     999902    2    1    2    0    0  0.12258905238E-01  0.56402662657E-02 -0.19135318978E-01  0.10205151800E+01  0.10202465285E+01 0.  0.
     999903    2    3    3    0    0 -0.11615955884E+00 -0.51354375204E-01 -0.15641496730E-01  0.12936317401E+00  0.18969960669E-01 0.  0.
         14    1    1    2    0    0 -0.12258905238E-01 -0.56402662657E-02  0.19135318978E-01  0.23414819956E-01  0.00000000000E+00 0.  1.
     999901    1    3    3    0    0  0.12841846407E+00  0.56994641470E-01 -0.34938222480E-02  0.89115200604E+00  0.88000000000E+00 0. -1.
        -11    1    4    4    0    0 -0.81742857754E-01 -0.27621604189E-01 -0.14802106185E-01  0.87545481210E-01  0.51100000000E-03 0.  1.
         11    1    4    4    0    0 -0.34416701081E-01 -0.23732771015E-01 -0.83939054471E-03  0.41817692797E-01  0.51100000000E-03 0. -1.
</event>
<event>
 8    1  0.1066842E+005  0.1043930E+01  0.7957747E-01            NaN
         13   -1    0    0    0    0  0.00000000000E+00  0.00000000000E+00  0.74505805969E-08  0.10566000000E+00  0.10566000000E+00 0.  1.
     999900   -1    0    0    0    0 -0.00000000000E+00 -0.00000000000E+00 -0.74505805969E-08  0.93827000000E+00  0.93827000000E+00 0. -1.
     999902    2    1    2    0    0  0.93716559954E-02  0.19675053483E-01 -0.86440952315E-02  0.10204852554E+01  0.10202159088E+01 0.  0.
     999903    2    3    3    0    0  0.48629975135E-01  0.38153273614E-01 -0.11601575274E+00  0.13289788898E+00  0.19535793874E-01 0.  0.
         14    1    1    2    0    0 -0.93716559954E-02 -0.19675053483E-01  0.86440952315E-02  0.23444744571E-01  0.00000000000E+00 0.  1.
     999901    1    3    3    0    0 -0.39258319139E-01 -0.18478220132E-01  0.10737165751E+00  0.88758736645E+00  0.88000000000E+00 0.  1.
        -11    1    4    4    0    0  0.37355254204E-01  0.25125808635E-01 -0.65164006311E-01  0.79204356671E-01  0.51100000000E-03 0. -1.
         11    1    4    4    0    0  0.11274720931E-01  0.13027464980E-01 -0.50851746431E-01  0.53693532310E-01  0.51100000000E-03 0.  1.
</event>
<event>
 8    1  0.1066842E+005  0.1043930E+01  0.7957747E-01            NaN
         13   -1    0    0    0    0  0.00000000000E+00  0.00000000000E+00  0.74505805969E-08  0.10566000000E+00  0.10566000000E+00 0.  1.
     999900   -1    0    0    0    0 -0.00000000000E+00 -0.00000000000E+00 -0.74505805969E-08  0.93827000000E+00  0.93827000000E+00 0.  1.
     999902    2    1    2    0    0  0.23945931113E-02 -0.10793481906E-01 -0.34820527029E-02  0.10323387094E+01  0.10322736327E+01 0.  0.
     999903    2    3    3    0    0  0.38446478778E-01  0.12883331498E+00 -0.33495840349E-01  0.14009647301E+00  0.20709795979E-01 0.  0.
         14    1    1    2    0    0 -0.23945931113E-02  0.10793481906E-01  0.34820527029E-02  0.11591290646E-01  0.00000000000E+00 0. -1.
     999901    1    3    3    0    0 -0.36051885666E-01 -0.13962679689E+00  0.30013787646E-01  0.89224223634E+00  0.88000000000E+00 0. -1.
        -11    1    4    4    0    0  0.19914887878E-01  0.97759130252E-01 -0.26707198369E-01  0.10328110124E+00  0.51100000000E-03 0. -1.
         11    1    4    4    0    0  0.18531590900E-01  0.31074184729E-01 -0.67886419801E-02  0.36815371773E-01  0.51100000000E-03 0.  1.
</event>
<event>
 8    1  0.1066842E+005  0.1043930E+01  0.7957747E-01            NaN
         13   -1    0    0    0    0  0.00000000000E+00  0.00000000000E+00  0.74505805969E-08  0.10566000000E+00  0.10566000000E+00 0.  1.
     999900   -1    0    0    0    0 -0.00000000000E+00 -0.00000000000E+00 -0.74505805969E-08  0.93827000000E+00  0.93827000000E+00 0. -1.
     999902    2    1    2    0    0  0.65650708428E-02 -0.10462517485E-01  0.19771093353E-01  0.10206177594E+01  0.10203514837E+01 0.  0.
     999903    2    3    3    0    0  0.10441553206E+00 -0.11370199869E-01  0.79469431857E-01  0.13318357695E+00  0.19763344587E-01 0.  0.
         14    1    1    2    0    0 -0.65650708428E-02  0.10462517485E-01 -0.19771093353E-01  0.23312240554E-01  0.00000000000E+00 0. -1.
     999901    1    3    3    0    0 -0.97850461213E-01  0.90768238376E-03 -0.59698338504E-01  0.88743418250E+00  0.88000000000E+00 0. -1.
        -11    1    4    4    0    0  0.31385787533E-01 -0.21882968991E-03  0.13619010127E-01  0.34217745445E-01  0.51100000000E-03 0.  1.
         11    1    4    4    0    0  0.73029744523E-01 -0.11151370179E-01  0.65850421730E-01  0.98965831502E-01  0.51100000000E-03 0. -1.
</event>
<event>
 8    1  0.1090333E+005  0.1043930E+01  0.7957747E-01            NaN
         13   -1    0    0    0    0  0.00000000000E+00  0.00000000000E+00  0.74505805969E-08  0.10566000000E+00  0.10566000000E+00 0. -1.
     999900   -1    0    0    0    0 -0.00000000000E+00 -0.00000000000E+00 -0.74505805969E-08  0.93827000000E+00  0.93827000000E+00 0.  1.
     999902    2    1    2    0    0  0.70369150901E-02  0.19309596752E-01  0.10138104754E-01  0.10210136332E+01  0.10207564250E+01 0.  0.
     999903    2    3    3    0    0  0.32128643723E-01 -0.87249240738E-01 -0.86949006867E-01  0.12893163697E+00  0.20458676911E-01 0.  0.
         14    1    1    2    0    0 -0.70369150901E-02 -0.19309596752E-01 -0.10138104754E-01  0.22916366830E-01  0.00000000000E+00 0.  1.
     999901    1    3    3    0    0 -0.25091728633E-01  0.10655883749E+00  0.97087111621E-01  0.89208199620E+00  0.88000000000E+00 0.  1.
        -11    1    4    4    0    0  0.16919533880E-02 -0.25851128385E-01 -0.31434048316E-01  0.40737010931E-01  0.51100000000E-03 0. -1.
         11    1    4    4    0    0  0.30436690335E-01 -0.61398112354E-01 -0.55514958551E-01  0.88194626044E-01  0.51100000000E-03 0.  1.
</event>
<event>
 8    1  0.1066842E+005  0.1043930E+01  0.7957747E-01            NaN
         13   -1    0    0    0    0  0.00000000000E+00  0.00000000000E+00  0.74505805969E-08  0.10566000000E+00  0.10566000000E+00 0.  1.
     999900   -1    0    0    0    0 -0.00000000000E+00 -0.00000000000E+00 -0.74505805969E-08  0.93827000000E+00  0.93827000000E+00 0. -1.
     999902    2    1    2    0    0  0.16852566984E-01 -0.13372328004E-01 -0.83696503871E-02  0.10208458232E+01  0.10205847910E+01 0.  0.
     999903    2    3    3    0    0 -0.52189599143E-01 -0.16054639846E-01  0.11561571526E+00  0.12947250838E+00  0.20362492292E-01 0.  0.
         14    1    1    2    0    0 -0.16852566984E-01  0.13372328004E-01  0.83696503871E-02  0.23084176784E-01  0.00000000000E+00 0. -1.
     999901    1    3    3    0    0  0.69042166128E-01  0.26823118425E-02 -0.12398536565E+00  0.89137331483E+00  0.88000000000E+00 0. -1.
        -11    1    4    4    0    0 -0.38698081639E-02 -0.82550137064E-02  0.14560406348E-01  0.17186832767E-01  0.51100000000E-03 0. -1.
         11    1    4    4    0    0 -0.48319790979E-01 -0.77996261397E-02  0.10105530891E+00  0.11228567562E+00  0.51100000000E-03 0.  1.
</event>
<event>
 8    1  0.1066842E+005  0.1043930E+01  0.7957747E-01            NaN
         13   -1    0    0    0    0  0.00000000000E+00  0.00000000000E+00  0.74505805969E-08  0.10566000000E+00  0.10566000000E+00 0.  1.
     999900   -1    0    0    0    0 -0.00000000000E+00 -0.00000000000E+00 -0.74505805969E-08  0.93827000000E+00  0.93827000000E+00 0. -1.
     999902    2    1    2    0    0  0.77142138369E-02 -0.19952270351E-01  0.13512355132E-01  0.10186281043E+01  0.10183138165E+01 0.  0.
     999903    2    3    3    0    0 -0.10891141296E+00  0.41078786562E-01  0.48883336855E-01  0.12813530075E+00  0.21906896162E-01 0.  0.
         14    1    1    2    0    0 -0.77142138369E-02  0.19952270351E-01 -0.13512355132E-01  0.25301895749E-01  0.00000000000E+00 0. -1.
     999901    1    3    3    0    0  0.11662562679E+00 -0.61031056913E-01 -0.35370981724E-01  0.89049280350E+00  0.88000000000E+00 0.  1.
        -11    1    4    4    0    0 -0.98424194802E-01  0.41390780815E-01  0.38888648524E-01  0.11363585246E+00  0.51100000000E-03 0. -1.
         11    1    4    4    0    0 -0.10487218155E-01 -0.31199425223E-03  0.99946883309E-02  0.14499448295E-01  0.51100000000E-03 0.  1.
</event>
<event>
 8    1  0.1066842E+005  0.1043930E+01  0.7957747E-01            NaN
         13   -1    0    0    0    0  0.00000000000E+00  0.00000000000E+00  0.74505805969E-08  0.10566000000E+00  0.10566000000E+00 0. -1.
     999900   -1    0    0    0    0 -0.00000000000E+00 -0.00000000000E+00 -0.74505805969E-08  0.93827000000E+00  0.93827000000E+00 0.  1.
     999902    2    1    2    0    0  0.95830899972E-02  0.12923635708E-01  0.14187493775E-01  0.10224791037E+01  0.10222540665E+01 0.  0.
     999903    2    3    3    0    0 -0.56671138028E-02 -0.12763527203E+00 -0.96170621328E-02  0.13087603495E+00  0.26705239118E-01 0.  0.
         14    1    1    2    0    0 -0.95830899972E-02 -0.12923635708E-01 -0.14187493775E-01  0.21450896332E-01  0.00000000000E+00 0.  1.
     999901    1    3    3    0    0  0.15250203800E-01  0.14055890774E+00  0.23804555908E-01  0.89160306872E+00  0.88000000000E+00 0.  1.
        -11    1    4    4    0    0 -0.55942559829E-02 -0.10432412678E+00  0.26913125377E-02  0.10450992017E+00  0.51100000000E-03 0. -1.
         11    1    4    4    0    0 -0.72857819867E-04 -0.23311145247E-01 -0.12308374670E-01  0.26366114788E-01  0.51100000000E-03 0.  1.
</event>
<event>
 8    1  0.1066842E+005  0.1043930E+01  0.7957747E-01            NaN
         13   -1    0    0    0    0  0.00000000000E+00  0.00000000000E+00  0.74505805969E-08  0.10566000000E+00  0.10566000000E+00 0.  1.
     999900   -1    0    0    0    0 -0.00000000000E+00 -0.00000000000E+00 -0.74505805969E-08  0.93827000000E+00  0.93827000000E+00 0.  1.
     999902    2    1    2    0    0 -0.53470399599E-02  0.18054283896E-01 -0.14913994863E-01  0.10199096910E+01  0.10196267957E+01 0.  0.
     999903    2    3    3    0    0  0.47893037798E-01  0.11753604823E+00  0.28743484016E-01  0.13163208640E+00  0.19807892184E-01 0.  0.
         14    1    1    2    0    0  0.53470399599E-02 -0.18054283896E-01  0.14913994863E-01  0.24020309035E-01  0.00000000000E+00 0.  1.
     999901    1    3    3    0    0 -0.53240077758E-01 -0.99481764334E-01 -0.43657478879E-01  0.88827760457E+00  0.88000000000E+00 0.  1.
        -11    1    4    4    0    0  0.57492782213E-02  0.47746161987E-02 -0.11923363162E-02  0.75851134996E-02  0.51100000000E-03 0. -1.
         11    1    4    4    0    0  0.42143759577E-01  0.11276143203E+00  0.29935820332E-01  0.12404697290E+00  0.51100000000E-03 0.  1.
</event>
<event>
 8    1  0.1066842E+005  0.1043930E+01  0.7957747E-01            NaN
         13   -1    0    0    0    0  0.00000000000E+00  0.00000000000E+00  0.74505805969E-08  0.10566000000E+00  0.10566000000E+00 0.  1.
     999900   -1    0    0    0    0 -0.00000000000E+00 -0.00000000000E+00 -0.74505805969E-08  0.93827000000E+00  0.93827000000E+00 0.  1.
     999902    2    1    2    0    0  0.14087850406E-01  0.22818221692E-01 -0.46875042598E-02  0.10167066375E+01  0.10163421054E+01 0.  0.
     999903    2    3    3    0    0  0.66813778804E-01 -0.68125388790E-01  0.80502335312E-01  0.12636508922E+00  0.19554031454E-01 0.  0.
         14    1    1    2    0    0 -0.14087850406E-01 -0.22818221692E-01  0.46875042598E-02  0.27223362512E-01  0.00000000000E+00 0. -1.
     999901    1    3    3    0    0 -0.52725928399E-01  0.90943610483E-01 -0.85189839572E-01  0.89034154827E+00  0.88000000000E+00 0.  1.
        -11    1    4    4    0    0  0.42800127104E-01 -0.29743470034E-01  0.42572709373E-01  0.67299491782E-01  0.51100000000E-03 0. -1.
         11    1    4    4    0    0  0.24013651700E-01 -0.38381918756E-01  0.37929625939E-01  0.59065597434E-01  0.51100000000E-03 0.  1.
</event>
<event>
 8    1  0.1066842E+005  0.1043930E+01  0.7957747E-01            NaN
         13   -1    0    0    0    0  0.00000000000E+00  0.00000000000E+00  0.74505805969E-08  0.10566000000E+00  0.10566000000E+00 0.  1.
     999900   -1    0    0    0    0 -0.00000000000E+00 -0.00000000000E+00 -0.74505805969E-08  0.93827000000E+00  0.93827000000E+00 0.  1.
     999902    2    1    2    0    0  0.19763647109E-01 -0.42598830670E-02  0.13092319831E-01  0.10198435476E+01  0.10195590735E+01 0.  0.
     999903    2    3    3    0    0 -0.65270771895E-01 -0.90777742760E-01 -0.60097536426E-01  0.12851142795E+00  0.20064919241E-01 0.  0.
         14    1    1    2    0    0 -0.19763647109E-01  0.42598830670E-02 -0.13092319831E-01  0.24086452403E-01  0.00000000000E+00 0. -1.
     999901    1    3    3    0    0  0.85034419004E-01  0.86517859693E-01  0.73189856257E-01  0.89133211965E+00  0.88000000000E+00 0. -1.
        -11    1    4    4    0    0 -0.19443750210E-01 -0.43029030869E-01 -0.28689561664E-01  0.55253135560E-01  0.51100000000E-03 0. -1.
         11    1    4    4    0    0 -0.45827021686E-01 -0.47748711891E-01 -0.31407974762E-01  0.73258292387E-01  0.51100000000E-03 0.  1.
</event>
<event>
 8    1  0.1066842E+005  0.1043930E+01  0.7957747E-01            NaN
         13   -1    0    0    0    0  0.00000000000E+00  0.00000000000E+00  0.74505805969E-08  0.10566000000E+00  0.10566000000E+00 0. -1.
     999900   -1    0    0    0    0 -0.00000000000E+00 -0.00000000000E+00 -0.74505805969E-08  0.93827000000E+00  0.93827000000E+00 0. -1.
     999902    2    1    2    0    0  0.78720580096E-02  0.14668904908E-01  0.14524383026E-01  0.10218369293E+01  0.10215980650E+01 0.  0.
     999903    2    3    3    0    0  0.49195822892E-01 -0.40655996049E-01  0.11552861188E+00  0.13337176264E+00  0.19184053300E-01 0.  0.
         14    1    1    2    0    0 -0.78720580096E-02 -0.14668904908E-01 -0.14524383026E-01  0.22093070651E-01  0.00000000000E+00 0.  1.
     999901    1    3    3    0    0 -0.41323764883E-01  0.55324900957E-01 -0.10100422886E+00  0.88846516671E+00  0.88000000000E+00 0. -1.
        -11    1    4    4    0    0  0.12070693582E-01 -0.18690125226E-01  0.27805443157E-01  0.35614971777E-01  0.51100000000E-03 0. -1.
         11    1    4    4    0    0  0.37125129310E-01 -0.21965870823E-01  0.87723168726E-01  0.97756790862E-01  0.51100000000E-03 0.  1.
</event>
<event>
 8    1  0.1066842E+005  0.1043930E+01  0.7957747E-01            NaN
         13   -1    0    0    0    0  0.00000000000E+00  0.00000000000E+00  0.74505805969E-08  0.10566000000E+00  0.10566000000E+00 0.  1.
     999900   -1    0    0    0    0 -0.00000000000E+00 -0.00000000000E+00 -0.74505805969E-08  0.93827000000E+00  0.93827000000E+00 0. -1.
     999902    2    1    2    0    0  0.21432681949E-01  0.27976173134E-02 -0.84709654014E-02  0.10207148374E+01  0.10204508002E+01 0.  0.
     999903    2    3    3    0    0  0.10743826768E-01 -0.34367717221E-01 -0.12551860807E+00  0.13212288138E+00  0.20123742480E-01 0.  0.
         14    1    1    2    0    0 -0.21432681949E-01 -0.27976173134E-02  0.84709654014E-02  0.23215162566E-01  0.00000000000E+00 0. -1.
     999901    1    3    3    0    0  0.10688855181E-01  0.37165334534E-01  0.11704764267E+00  0.88859195606E+00  0.88000000000E+00 0.  1.
        -11    1    4    4    0    0  0.86124243169E-02 -0.36178342837E-01 -0.10467502131E+00  0.11108630676E+00  0.51100000000E-03 0.  1.
         11    1    4    4    0    0  0.21314024508E-02  0.18106256165E-02 -0.20843586759E-01  0.21036574614E-01  0.51100000000E-03 0. -1.
</event>
<event>
 8    1  0.1066842E+005  0.1043930E+01  0.7957747E-01            NaN
         13   -1    0    0    0    0  0.00000000000E+00  0.00000000000E+00  0.74505805969E-08  0.10566000000E+00  0.10566000000E+00 0.  1.
     999900   -1    0    0    0    0 -0.00000000000E+00 -0.00000000000E+00 -0.74505805969E-08  0.93827000000E+00  0.93827000000E+00 0. -1.
     999902    2    1    2    0    0  0.12239863020E-01 -0.18662821522E-01 -0.63695184275E-02  0.10207203917E+01  0.10204564822E+01 0.  0.
     999903    2    3    3    0    0 -0.28439999766E-01 -0.31333737937E-01  0.12162705404E+00  0.13044036498E+00  0.20758415683E-01 0.  0.
         14    1    1    2    0    0 -0.12239863020E-01  0.18662821522E-01  0.63695184275E-02  0.23209608331E-01  0.00000000000E+00 0.  1.
     999901    1    3    3    0    0  0.40679862785E-01  0.12670916415E-01 -0.12799657247E+00  0.89028002669E+00  0.88000000000E+00 0. -1.
        -11    1    4    4    0    0 -0.18295346828E-01 -0.31564546776E-01  0.10218123034E+00  0.10850025476E+00  0.51100000000E-03 0. -1.
         11    1    4    4    0    0 -0.10144652938E-01  0.23080883906E-03  0.19445823699E-01  0.21940110216E-01  0.51100000000E-03 0.  1.
</event>
<event>
 8    1  0.1066842E+005  0.1043930E+01  0.7957747E-01            NaN
         13   -1    0    0    0    0  0.00000000000E+00  0.00000000000E+00  0.74505805969E-08  0.10566000000E+00  0.10566000000E+00 0. -1.
     999900   -1    0    0    0    0 -0.00000000000E+00 -0.00000000000E+00 -0.74505805969E-08  0.93827000000E+00  0.93827000000E+00 0.  1.
     999902    2    1    2    0    0  0.10946136398E-01  0.13170467364E-01 -0.16227435925E-01  0.10203374421E+01  0.10200646484E+01 0.  0.
     999903    2    3    3    0    0  0.12416731240E+00  0.36886823981E-01  0.14797300335E-01  0.13222481717E+00  0.22051823646E-01 0.  0.
         14    1    1    2    0    0 -0.10946136398E-01 -0.13170467364E-01  0.16227435925E-01  0.23592557923E-01  0.00000000000E+00 0. -1.
     999901    1    3    3    0    0 -0.11322117600E+00 -0.23716356616E-01 -0.31024736260E-01  0.88811262491E+00  0.88000000000E+00 0. -1.
        -11    1    4    4    0    0  0.99654558268E-01  0.24752337322E-01  0.38405281984E-02  0.10275563228E+00  0.51100000000E-03 0. -1.
         11    1    4    4    0    0  0.24512754129E-01  0.12134486659E-01  0.10956772137E-01  0.29469184891E-01  0.51100000000E-03 0.  1.
</event>
<event>
 8    1  0.1066842E+005  0.1043930E+01  0.7957747E-01            NaN
         13   -1    0    0    0    0  0.00000000000E+00  0.00000000000E+00  0.74505805969E-08  0.10566000000E+00  0.10566000000E+00 0.  1.
     999900   -1    0    0    0    0 -0.00000000000E+00 -0.00000000000E+00 -0.74505805969E-08  0.93827000000E+00  0.93827000000E+00 0.  1.
     999902    2    1    2    0    0 -0.87597851942E-02 -0.59298992896E-02  0.21063831770E-01  0.10203592013E+01  0.10200869165E+01 0.  0.
     999903    2    3    3    0    0  0.11438991974E+00  0.26878290545E-01  0.52813853143E-01  0.13061188268E+00  0.21509639072E-01 0.  0.
         14    1    1    2    0    0  0.87597851942E-02  0.59298992896E-02 -0.21063831770E-01  0.23570798694E-01  0.00000000000E+00 0. -1.
     999901    1    3    3    0    0 -0.12314970493E+00 -0.32808189834E-01 -0.31750021373E-01  0.88974731863E+00  0.88000000000E+00 0. -1.
        -11    1    4    4    0    0  0.76793618176E-01  0.84750965637E-02  0.29547349931E-01  0.82718764880E-01  0.51100000000E-03 0.  1.
         11    1    4    4    0    0  0.37596301563E-01  0.18403193981E-01  0.23266503212E-01  0.47893117800E-01  0.51100000000E-03 0. -1.
</event>
<event>
 8    1  0.1066842E+005  0.1043930E+01  0.7957747E-01            NaN
         13   -1    0    0    0    0  0.00000000000E+00  0.00000000000E+00  0.74505805969E-08  0.10566000000E+00  0.10566000000E+00 0. -1.
     999900   -1    0    0    0    0 -0.00000000000E+00 -0.00000000000E+00 -0.74505805969E-08  0.93827000000E+00  0.93827000000E+00 0.  1.
     999902    2    1    2    0    0 -0.18167039291E-02 -0.13874369535E-01 -0.17119950813E-01  0.10218191145E+01  0.10215798605E+01 0.  0.
     999903    2    3    3    0    0  0.66473782996E-01 -0.72530462247E-01 -0.89190153625E-01  0.13429545735E+00  0.20023850301E-01 0.  0.
         14    1    1    2    0    0  0.18167039291E-02  0.13874369535E-01  0.17119950813E-01  0.22110885532E-01  0.00000000000E+00 0. -1.
     999901    1    3    3    0    0 -0.68290486925E-01  0.58656092712E-01  0.72070202812E-01  0.88752365712E+00  0.88000000000E+00 0. -1.
        -11    1    4    4    0    0  0.56720228950E-01 -0.49193154613E-01 -0.65546609038E-01  0.99668299425E-01  0.51100000000E-03 0.  1.
         11    1    4    4    0    0  0.97535540462E-02 -0.23337307634E-01 -0.23643544586E-01  0.34627157922E-01  0.51100000000E-03 0. -1.
</event>
<event>
 8    1  0.1066842E+005  0.1043930E+01  0.7957747E-01            NaN
         13   -1    0    0    0    0  0.00000000000E+00  0.00000000000E+00  0.74505805969E-08  0.10566000000E+00  0.10566000000E+00 0.  1.
     999900   -1    0    0    0    0 -0.00000000000E+00 -0.00000000000E+00 -0.74505805969E-08  0.93827000000E+00  0.93827000000E+00 0.  1.
     999902    2    1    2    0    0 -0.49660474141E-02 -0.22885872824E-01 -0.51024125800E-02  0.10199621170E+01  0.10196804699E+01 0.  0.
     999903    2    3    3    0    0  0.12718725129E-01 -0.13062947902E+00  0.15041293295E-01  0.13298567720E+00  0.15268368577E-01 0.  0.
         14    1    1    2    0    0  0.49660474141E-02  0.22885872824E-01  0.51024125800E-02  0.23967883010E-01  0.00000000000E+00 0.  1.
     999901    1    3    3    0    0 -0.17684772543E-01  0.10774360619E+00 -0.20143705875E-01  0.88697643979E+00  0.88000000000E+00 0.  1.
        -11    1    4    4    0    0  0.12917326511E-01 -0.10723956306E+00  0.69865969320E-02  0.10824165033E+00  0.51100000000E-03 0. -1.
         11    1    4    4    0    0 -0.19860138249E-03 -0.23389915962E-01  0.80546963629E-02  0.24744026870E-01  0.51100000000E-03 0.  1.
</event>
<event>
 8    1  0.1093722E+005  0.1043930E+01  0.7957747E-01            NaN
         13   -1    0    0    0    0  0.00000000000E+00  0.00000000000E+00  0.74505805969E-08  0.10566000000E+00  0.10566000000E+00 0. -1.
     999900   -1    0    0    0    0 -0.00000000000E+00 -0.00000000000E+00 -0.74505805969E-08  0.93827000000E+00  0.93827000000E+00 0. -1.
     999902    2    1    2    0    0 -0.40731986169E-02 -0.40444642104E-02  0.23872717880E-01  0.10193768882E+01  0.10190811474E+01 0.  0.
     999903    2    3    3    0    0  0.66261069170E-01 -0.37787084284E-01  0.10602018523E+00  0.13211498778E+00  0.19892141463E-01 0.  0.
         14    1    1    2    0    0  0.40731986169E-02  0.40444642104E-02 -0.23872717880E-01  0.24553111752E-01  0.00000000000E+00 0.  1.
     999901    1    3    3    0    0 -0.70334267787E-01  0.33742620073E-01 -0.82147467354E-01  0.88726190047E+00  0.88000000000E+00 0. -1.
        -11    1    4    4    0    0  0.24804132008E-01 -0.23347953569E-01  0.56117967279E-01  0.65649518452E-01  0.51100000000E-03 0. -1.
         11    1    4    4    0    0  0.41456937163E-01 -0.14439130715E-01  0.49902217955E-01  0.66465469325E-01  0.51100000000E-03 0.  1.
</event>
<event>
 8    1  0.1129121E+005  0.1043930E+01  0.7957747E-01            NaN
         13   -1    0    0    0    0  0.00000000000E+00  0.00000000000E+00  0.74505805969E-08  0.10566000000E+00  0.10566000000E+00 0. -1.
     999900   -1    0    0    0    0 -0.00000000000E+00 -0.00000000000E+00 -0.74505805969E-08  0.93827000000E+00  0.93827000000E+00 0.  1.
     999902    2    1    2    0    0 -0.51237338046E-02  0.17178981274E-01  0.14620569563E-01  0.10207970992E+01  0.10205349512E+01 0.  0.
     999903    2    3    3    0    0 -0.55562107817E-01 -0.57628164944E-01  0.10272332406E+00  0.13180765378E+00  0.20322968970E-01 0.  0.
         14    1    1    2    0    0  0.51237338046E-02 -0.17178981274E-01 -0.14620569563E-01  0.23132900814E-01  0.00000000000E+00 0. -1.
     999901    1    3    3    0    0  0.50438374012E-01  0.74807146218E-01 -0.88102754501E-01  0.88898944541E+00  0.88000000000E+00 0.  1.
        -11    1    4    4    0    0 -0.35984150740E-01 -0.49253538924E-01  0.80803449255E-01  0.10124341328E+00  0.51100000000E-03 0.  1.
         11    1    4    4    0    0 -0.19577957077E-01 -0.83746260201E-02  0.21919874809E-01  0.30564240493E-01  0.51100000000E-03 0. -1.
</event>
<event>
 7    1  0.1066842E+005  0.1043930E+01  0.7957747E-01            NaN
         13   -1    0    0    0    0  0.00000000000E+00  0.00000000000E+00  0.74505805969E-08  0.10566000000E+00  0.10566000000E+00 0. -1.
     999900   -1    0    0    0    0 -0.00000000000E+00 -0.00000000000E+00 -0.74505805969E-08  0.93827000000E+00  0.93827000000E+00 0. -1.
     999903    2    1    2    0    0 -0.37874462846E-01  0.73495472404E-01 -0.34138283260E-01  0.91550637725E-01  0.19494550113E-01 0.  0.
         14    1    1    2    0    0  0.66870704202E-01 -0.18472573453E-01 -0.25440310664E-02  0.69421892401E-01  0.00000000000E+00 0. -1.
     999901    1    1    2    0    0 -0.28996241357E-01 -0.55022898951E-01  0.36682314327E-01  0.88295746987E+00  0.88000000000E+00 0. -1.
        -11    1    3    3    0    0 -0.10091334874E-01  0.33665393030E-01 -0.67385459460E-02  0.35789144302E-01  0.51100000000E-03 0. -1.
         11    1    3    3    0    0 -0.27783127972E-01  0.39830079374E-01 -0.27399737314E-01  0.55761493423E-01  0.51100000000E-03 0.  1.
</event>
<event>
 8    1  0.1066842E+005  0.1043930E+01  0.7957747E-01            NaN
         13   -1    0    0    0    0  0.00000000000E+00  0.00000000000E+00  0.74505805969E-08  0.10566000000E+00  0.10566000000E+00 0.  1.
     999900   -1    0    0    0    0 -0.00000000000E+00 -0.00000000000E+00 -0.74505805969E-08  0.93827000000E+00  0.93827000000E+00 0.  1.
     999902    2    1    2    0    0 -0.15818615042E-01  0.10893256199E-01  0.13755546750E-01  0.10203057184E+01  0.10200321821E+01 0.  0.
     999903    2    3    3    0    0  0.63236569863E-01 -0.91971095266E-01  0.60190814211E-01  0.12958296072E+00  0.26669523098E-01 0.  0.
         14    1    1    2    0    0  0.15818615042E-01 -0.10893256199E-01 -0.13755546750E-01  0.23624281552E-01  0.00000000000E+00 0. -1.
     999901    1    3    3    0    0 -0.79055184904E-01  0.10286435146E+00 -0.46435267461E-01  0.89072275772E+00  0.88000000000E+00 0.  1.
        -11    1    4    4    0    0  0.89046899263E-02 -0.16325978242E-02  0.24797193542E-02  0.94004791056E-02  0.51100000000E-03 0. -1.
         11    1    4    4    0    0  0.54331879937E-01 -0.90338497442E-01  0.57711094857E-01  0.12018248162E+00  0.51100000000E-03 0.  1.
</event>
<event>
 8    1  0.1066842E+005  0.1043930E+01  0.7957747E-01            NaN
         13   -1    0    0    0    0  0.00000000000E+00  0.00000000000E+00  0.74505805969E-08  0.10566000000E+00  0.10566000000E+00 0. -1.
     999900   -1    0    0    0    0 -0.00000000000E+00 -0.00000000000E+00 -0.74505805969E-08  0.93827000000E+00  0.93827000000E+00 0. -1.
     999902    2    1    2    0    0  0.43328327917E-02 -0.75138590648E-03 -0.23953786418E-01  0.10195759058E+01  0.10192849973E+01 0.  0.
     999903    2    3    3    0    0  0.34422472301E-01  0.12076292177E+00  0.23980175276E-01  0.12942491969E+00  0.20178482552E-01 0.  0.
         14    1    1    2    0    0 -0.43328327917E-02  0.75138590648E-03  0.23953786418E-01  0.24354094205E-01  0.00000000000E+00 0. -1.
     999901    1    3    3    0    0 -0.30089639509E-01 -0.12151430767E+00 -0.47933961694E-01  0.89015098610E+00  0.88000000000E+00 0. -1.
        -11    1    4    4    0    0  0.17872687726E-01  0.43722413540E-01  0.64078605659E-03  0.47241445153E-01  0.51100000000E-03 0.  1.
         11    1    4    4    0    0  0.16549784575E-01  0.77040508227E-01  0.23339389219E-01  0.82183474540E-01  0.51100000000E-03 0. -1.
</event>
<event>
 8    1  0.1066842E+005  0.1043930E+01  0.7957747E-01            NaN
         13   -1    0    0    0    0  0.00000000000E+00  0.00000000000E+00  0.74505805969E-08  0.10566000000E+00  0.10566000000E+00 0.  1.
     999900   -1    0    0    0    0 -0.00000000000E+00 -0.00000000000E+00 -0.74505805969E-08  0.93827000000E+00  0.93827000000E+00 0.  1.
     999902    2    1    2    0    0  0.14619364642E-01 -0.12671241536E-01 -0.16671112091E-01  0.10183915552E+01  0.10180712880E+01 0.  0.
     999903    2    3    3    0    0 -0.94947176043E-01  0.37075185435E-01  0.71188719774E-01  0.12586767099E+00  0.19629089708E-01 0.  0.
         14    1    1    2    0    0 -0.14619364642E-01  0.12671241536E-01  0.16671112091E-01  0.25538444802E-01  0.00000000000E+00 0.  1.
     999901    1    3    3    0    0  0.10956654068E+00 -0.49746426971E-01 -0.87859831865E-01  0.89252388421E+00  0.88000000000E+00 0.  1.
        -11    1    4    4    0    0 -0.36933927892E-01  0.24560737278E-01  0.27804037123E-01  0.52351413033E-01  0.51100000000E-03 0.  1.
         11    1    4    4    0    0 -0.58013248151E-01  0.12514448157E-01  0.43384682651E-01  0.73516257953E-01  0.51100000000E-03 0. -1.
</event>
<event>
 8    1  0.1066842E+005  0.1043930E+01  0.7957747E-01            NaN
         13   -1    0    0    0    0  0.00000000000E+00  0.00000000000E+00  0.74505805969E-08  0.10566000000E+00  0.10566000000E+00 0. -1.
     999900   -1    0    0    0    0 -0.00000000000E+00 -0.00000000000E+00 -0.74505805969E-08  0.93827000000E+00  0.93827000000E+00 0. -1.
     999902    2    1    2    0    0 -0.14116516351E-01  0.19302708911E-01 -0.31292696055E-02  0.10198123108E+01  0.10195270895E+01 0.  0.
     999903    2    3    3    0    0  0.28228930514E-01  0.10530052838E-01 -0.12540410742E+00  0.13030613748E+00  0.18594213533E-01 0.  0.
         14    1    1    2    0    0  0.14116516351E-01 -0.19302708911E-01  0.31292696055E-02  0.24117689223E-01  0.00000000000E+00 0. -1.
     999901    1    3    3    0    0 -0.42345446865E-01  0.87726560738E-02  0.12227483782E+00  0.88950617329E+00  0.88000000000E+00 0.  1.
        -11    1    4    4    0    0  0.39279843951E-02 -0.65597456858E-03 -0.52392661823E-01  0.52546279582E-01  0.51100000000E-03 0.  1.
         11    1    4    4    0    0  0.24300946119E-01  0.11186027406E-01 -0.73011445599E-01  0.77759857901E-01  0.51100000000E-03 0. -1.
</event>
<event>
 8    1  0.1066842E+005  0.1043930E+01  0.7957747E-01            NaN
         13   -1    0    0    0    0  0.00000000000E+00  0.00000000000E+00  0.74505805969E-08  0.10566000000E+00  0.10566000000E+00 0. -1.
     999900   -1    0    0    0    0 -0.00000000000E+00 -0.00000000000E+00 -0.74505805969E-08  0.93827000000E+00  0.93827000000E+00 0. -1.
     999902    2    1    2    0    0  0.28390169183E-02 -0.89783392741E-02 -0.21839889678E-01  0.10201465735E+01  0.10198692956E+01 0.  0.
     999903    2    3    3    0    0 -0.32757346619E-01  0.94433714219E-01 -0.82778519331E-01  0.13128512737E+00  0.19817448523E-01 0.  0.
         14    1    1    2    0    0 -0.28390169183E-02  0.89783392741E-02  0.21839889678E-01  0.23783426464E-01  0.00000000000E+00 0. -1.
     999901    1    3    3    0    0  0.35596363537E-01 -0.10341205349E+00  0.60938629653E-01  0.88886144617E+00  0.88000000000E+00 0. -1.
        -11    1    4    4    0    0 -0.11894347883E-02  0.31129488967E-01 -0.25740796066E-01  0.40414224496E-01  0.51100000000E-03 0.  1.
         11    1    4    4    0    0 -0.31567911831E-01  0.63304225252E-01 -0.57037723265E-01  0.90870902870E-01  0.51100000000E-03 0. -1.
</event>
<event>
 8    1  0.1066842E+005  0.1043930E+01  0.7957747E-01            NaN
         13   -1    0    0    0    0  0.00000000000E+00  0.00000000000E+00  0.74505805969E-08  0.10566000000E+00  0.10566000000E+00 0. -1.
     999900   -1    0    0    0    0 -0.00000000000E+00 -0.00000000000E+00 -0.74505805969E-08  0.93827000000E+00  0.93827000000E+00 0. -1.
     999902    2    1    2    0    0 -0.16984035421E-02  0.17718281358E-01  0.15219875567E-01  0.10205106345E+01  0.10202418774E+01 0.  0.
     999903    2    3    3    0    0 -0.43276526053E-01  0.11044930173E+00  0.57782780110E-01  0.13364007840E+00  0.21187612366E-01 0.  0.
         14    1    1    2    0    0  0.16984035421E-02 -0.17718281358E-01 -0.15219875567E-01  0.23419365515E-01  0.00000000000E+00 0. -1.
     999901    1    3    3    0    0  0.41578122511E-01 -0.92731020370E-01 -0.42562904543E-01  0.88687055609E+00  0.88000000000E+00 0.  1.
        -11    1    4    4    0    0 -0.34516440276E-01  0.10095771765E+00  0.56271125537E-01  0.12062564443E+00  0.51100000000E-03 0.  1.
         11    1    4    4    0    0 -0.87600857770E-02  0.94915840749E-02  0.15116545725E-02  0.13014433972E-01  0.51100000000E-03 0. -1.
</event>
<event>
 8    1  0.1066842E+005  0.1043930E+01  0.7957747E-01            NaN
         13   -1    0    0    0    0  0.00000000000E+00  0.00000000000E+00  0.74505805969E-08  0.10566000000E+00  0.10566000000E+00 0. -1.
     999900   -1    0    0    0    0 -0.00000000000E+00 -0.00000000000E+00 -0.74505805969E-08  0.93827000000E+00  0.93827000000E+00 0.  1.
     999902    2    1    2    0    0 -0.20021936808E-01  0.13917625565E-01  0.29988589959E-02  0.10193623096E+01  0.10190662132E+01 0.  0.
     999903    2    3    3    0    0  0.45789103686E-01 -0.34433580673E-02 -0.11809782971E+00  0.12846562380E+00  0.21161767081E-01 0.  0.
         14    1    1    2    0    0  0.20021936808E-01 -0.13917625565E-01 -0.29988589959E-02  0.24567690372E-01  0.00000000000E+00 0. -1.
     999901    1    3    3    0    0 -0.65811040495E-01  0.17360983632E-01  0.12109668870E+00  0.89089668583E+00  0.88000000000E+00 0.  1.
        -11    1    4    4    0    0  0.27602890905E-01 -0.97269445185E-02 -0.52574548236E-01  0.60173725821E-01  0.51100000000E-03 0. -1.
         11    1    4    4    0    0  0.18186212782E-01  0.62835864512E-02 -0.65523281470E-01  0.68291897980E-01  0.51100000000E-03 0.  1.
</event>
<event>
 8    1  0.1066842E+005  0.1043930E+01  0.7957747E-01            NaN
         13   -1    0    0    0    0  0.00000000000E+00  0.00000000000E+00  0.74505805969E-08  0.10566000000E+00  0.10566000000E+00 0.  1.
     999900   -1    0    0    0    0 -0.00000000000E+00 -0.00000000000E+00 -0.74505805969E-08  0.93827000000E+00  0.93827000000E+00 0. -1.
     999902    2    1    2    0    0 -0.21087396168E-01 -0.27744555341E-02 -0.39867697476E-02  0.10222904479E+01  0.10220613923E+01 0.  0.
     999903    2    3    3    0    0 -0.21817303369E-01 -0.12825668046E+00  0.18606150460E-01  0.13310162570E+00  0.21073279764E-01 0.  0.
         14    1    1    2    0    0  0.21087396168E-01  0.27744555341E-02  0.39867697476E-02  0.21639552067E-01  0.00000000000E+00 0. -1.
     999901    1    3    3    0    0  0.72990720111E-03  0.12548222493E+00 -0.22592920208E-01  0.88918882223E+00  0.88000000000E+00 0. -1.
        -11    1    4    4    0    0 -0.16453872628E-01 -0.10383141668E+00  0.65416124724E-02  0.10533160413E+00  0.51100000000E-03 0. -1.
         11    1    4    4    0    0 -0.53634307414E-02 -0.24425263784E-01  0.12064537988E-01  0.27770021572E-01  0.51100000000E-03 0.  1.
</event>
<event>
 8    1  0.1066842E+005  0.1043930E+01  0.7957747E-01            NaN
         13   -1    0    0    0    0  0.00000000000E+00  0.00000000000E+00  0.74505805969E-08  0.10566000000E+00  0.10566000000E+00 0. -1.
     999900   -1    0    0    0    0 -0.00000000000E+00 -0.00000000000E+00 -0.74505805969E-08  0.93827000000E+00  0.93827000000E+00 0. -1.
     999902    2    1    2    0    0  0.21319288395E-01  0.11895359952E-01 -0.50387955334E-02  0.10190020818E+01  0.10186971295E+01 0.  0.
     999903    2    3    3    0    0 -0.44019703060E-01  0.26755207951E-01 -0.11702928462E+00  0.12937751573E+00  0.19725939931E-01 0.  0.
         14    1    1    2    0    0 -0.21319288395E-01 -0.11895359952E-01  0.50387955334E-02  0.24927918214E-01  0.00000000000E+00 0.  1.
     999901    1    3    3    0    0  0.65338991455E-01 -0.14859848000E-01  0.11199048909E+00  0.88962456606E+00  0.88000000000E+00 0.  1.
        -11    1    4    4    0    0 -0.30563139925E-01  0.19795047621E-01 -0.58432674791E-01  0.68851928343E-01  0.51100000000E-03 0.  1.
         11    1    4    4    0    0 -0.13456563135E-01  0.69601603303E-02 -0.58596609834E-01  0.60525587385E-01  0.51100000000E-03 0. -1.
</event>
<event>
 8    1  0.1066842E+005  0.1043930E+01  0.7957747E-01            NaN
         13   -1    0    0    0    0  0.00000000000E+00  0.00000000000E+00  0.74505805969E-08  0.10566000000E+00  0.10566000000E+00 0. -1.
     999900   -1    0    0    0    0 -0.00000000000E+00 -0.00000000000E+00 -0.74505805969E-08  0.93827000000E+00  0.93827000000E+00 0.  1.
     999902    2    1    2    0    0  0.13504636176E-01  0.30405496092E-02 -0.16873075335E-01  0.10221052248E+01  0.10218721886E+01 0.  0.
     999903    2    3    3    0    0  0.86328336666E-01  0.85971192049E-01 -0.53632137781E-01  0.13444987984E+00  0.18887467062E-01 0.  0.
         14    1    1    2    0    0 -0.13504636176E-01 -0.30405496092E-02  0.16873075335E-01  0.21824775175E-01  0.00000000000E+00 0. -1.
     999901    1    3    3    0    0 -0.72823700490E-01 -0.82930642440E-01  0.36759062446E-01  0.88765534499E+00  0.88000000000E+00 0. -1.
        -11    1    4    4    0    0  0.39405214011E-01  0.50910322894E-01 -0.32996439969E-01  0.72344025600E-01  0.51100000000E-03 0. -1.
         11    1    4    4    0    0  0.46923122655E-01  0.35060869156E-01 -0.20635697812E-01  0.62105854240E-01  0.51100000000E-03 0.  1.
</event>
<event>
 8    1  0.1066842E+005  0.1043930E+01  0.7957747E-01            NaN
         13   -1    0    0    0    0  0.00000000000E+00  0.00000000000E+00  0.74505805969E-08  0.10566000000E+00  0.10566000000E+00 0. -1.
     999900   -1    0    0    0    0 -0.00000000000E+00 -0.00000000000E+00 -0.74505805969E-08  0.93827000000E+00  0.93827000000E+00 0. -1.
     999902    2    1    2    0    0  0.45229043195E-02 -0.14417149663E-01 -0.73208170272E-02  0.10271399664E+01  0.10270027289E+01 0.  0.
     999903    2    3    3    0    0 -0.10240438321E+00  0.63194924914E-02  0.86241995580E-01  0.13550245422E+00  0.19915813088E-01 0.  0.
         14    1    1    2    0    0 -0.45229043195E-02  0.14417149663E-01  0.73208170272E-02  0.16790033646E-01  0.00000000000E+00 0. -1.
     999901    1    3    3    0    0  0.10692728753E+00 -0.20736642154E-01 -0.93562812607E-01  0.89163751214E+00  0.88000000000E+00 0. -1.
        -11    1    4    4    0    0 -0.27524750891E-01  0.17381949916E-02  0.35391159917E-01  0.44871244185E-01  0.51100000000E-03 0. -1.
         11    1    4    4    0    0 -0.74879632321E-01  0.45812974999E-02  0.50850835663E-01  0.90631210032E-01  0.51100000000E-03 0.  1.
</event>
<event>
 8    1  0.1066842E+005  0.1043930E+01  0.7957747E-01            NaN
         13   -1    0    0    0    0  0.00000000000E+00  0.00000000000E+00  0.74505805969E-08  0.10566000000E+00  0.10566000000E+00 0.  1.
     999900   -1    0    0    0    0 -0.00000000000E+00 -0.00000000000E+00 -0.74505805969E-08  0.93827000000E+00  0.93827000000E+00 0. -1.
     999902    2    1    2    0    0  0.76425452203E-02 -0.16902637112E-01 -0.15196714999E-01  0.10199498460E+01  0.10196679070E+01 0.  0.
     999903    2    3    3    0    0 -0.12624029331E+00 -0.98896711378E-03 -0.21314290983E-01  0.12966040763E+00  0.20492257001E-01 0.  0.
         14    1    1    2    0    0 -0.76425452203E-02  0.16902637112E-01  0.15196714999E-01  0.23980153993E-01  0.00000000000E+00 0.  1.
     999901    1    3    3    0    0  0.13388283853E+00 -0.15913669998E-01  0.61175759836E-02  0.89028943837E+00  0.88000000000E+00 0. -1.
        -11    1    4    4    0    0 -0.75348465765E-01 -0.29975991451E-02 -0.27866775803E-02  0.75461272098E-01  0.51100000000E-03 0. -1.
         11    1    4    4    0    0 -0.50891827542E-01  0.20086320313E-02 -0.18527613402E-01  0.54199135534E-01  0.51100000000E-03 0.  1.
</event>
<event>
 8    1  0.1066842E+005  0.1043930E+01  0.7957747E-01            NaN
         13   -1    0    0    0    0  0.00000000000E+00  0.00000000000E+00  0.74505805969E-08  0.10566000000E+00  0.10566000000E+00 0.  1.
     999900   -1    0    0    0    0 -0.00000000000E+00 -0.00000000000E+00 -0.74505805969E-08  0.93827000000E+00  0.93827000000E+00 0.  1.
     999902    2    1    2    0    0 -0.94786941737E-02  0.80837505454E-02  0.19757505876E-01  0.10205729517E+01  0.10203056395E+01 0.  0.
     999903    2    3    3    0    0  0.58500982567E-01  0.88789138194E-01 -0.71328165742E-01  0.12960090074E+00  0.20070132585E-01 0.  0.
         14    1    1    2    0    0  0.94786941737E-02 -0.80837505454E-02 -0.19757505876E-01  0.23357048284E-01  0.00000000000E+00 0. -1.
     999901    1    3    3    0    0 -0.67979676741E-01 -0.80705387649E-01  0.91085671618E-01  0.89097205098E+00  0.88000000000E+00 0. -1.
        -11    1    4    4    0    0  0.32966602858E-01  0.37044884917E-01 -0.41378912044E-01  0.64587892715E-01  0.51100000000E-03 0. -1.
         11    1    4    4    0    0  0.25534379709E-01  0.51744253277E-01 -0.29949253698E-01  0.65013008025E-01  0.51100000000E-03 0.  1.
</event>
<event>
 8    1  0.1066842E+005  0.1043930E+01  0.7957747E-01            NaN
         13   -1    0    0    0    0  0.00000000000E+00  0.00000000000E+00  0.74505805969E-08  0.10566000000E+00  0.10566000000E+00 0.  1.
     999900   -1    0    0    0    0 -0.00000000000E+00 -0.00000000000E+00 -0.74505805969E-08  0.93827000000E+00  0.93827000000E+00 0. -1.
     999902    2    1    2    0    0  0.23086516917E-01  0.11471339172E-01 -0.51870268683E-02  0.10176339141E+01  0.10172941064E+01 0.  0.
     999903    2    3    3    0    0  0.47698998423E-01 -0.11864723559E-01  0.11697765034E+00  0.12854755473E+00  0.20609149213E-01 0.  0.
         14    1    1    2    0    0 -0.23086516917E-01 -0.11471339172E-01  0.51870268683E-02  0.26296085896E-01  0.00000000000E+00 0.  1.
     999901    1    3    3    0    0 -0.24612481506E-01  0.23336062731E-01 -0.12216467721E+00  0.88908635938E+00  0.88000000000E+00 0. -1.
        -11    1    4    4    0    0  0.19716723418E-01 -0.13781558592E-01  0.67643669416E-01  0.71795596471E-01  0.51100000000E-03 0. -1.
         11    1    4    4    0    0  0.27982275004E-01  0.19168350327E-02  0.49333980926E-01  0.56751958257E-01  0.51100000000E-03 0.  1.
</event>
<event>
 8    1  0.1066842E+005  0.1043930E+01  0.7957747E-01            NaN
         13   -1    0    0    0    0  0.00000000000E+00  0.00000000000E+00  0.74505805969E-08  0.10566000000E+00  0.10566000000E+00 0.  1.
     999900   -1    0    0    0    0 -0.00000000000E+00 -0.00000000000E+00 -0.74505805969E-08  0.93827000000E+00  0.93827000000E+00 0.  1.
     999902    2    1    2    0    0 -0.71030986178E-02  0.10848815391E-01 -0.19887958078E-01  0.10201880186E+01  0.10199117175E+01 0.  0.
     999903    2    3    3    0    0 -0.10114196085E+00  0.45471889201E-01  0.65489215535E-01  0.13039516256E+00  0.20412547980E-01 0.  0.
         14    1    1    2    0    0  0.71030986178E-02 -0.10848815391E-01  0.19887958078E-01  0.23741981423E-01  0.00000000000E+00 0.  1.
     999901    1    3    3    0    0  0.94038862231E-01 -0.34623073810E-01 -0.85377173614E-01  0.88979285602E+00  0.88000000000E+00 0. -1.
        -11    1    4    4    0    0 -0.59559978008E-01  0.21791289734E-01  0.47628857570E-01  0.79315953521E-01  0.51100000000E-03 0.  1.
         11    1    4    4    0    0 -0.41581982841E-01  0.23680599467E-01  0.17860357966E-01  0.51079209036E-01  0.51100000000E-03 0. -1.
</event>
<event>
 8    1  0.1066842E+005  0.1043930E+01  0.7957747E-01            NaN
         13   -1    0    0    0    0  0.00000000000E+00  0.00000000000E+00  0.74505805969E-08  0.10566000000E+00  0.10566000000E+00 0.  1.
     999900   -1    0    0    0    0 -0.00000000000E+00 -0.00000000000E+00 -0.74505805969E-08  0.93827000000E+00  0.93827000000E+00 0. -1.
     999902    2    1    2    0    0 -0.13847605429E-01 -0.67696837701E-02  0.18183333035E-01  0.10200926680E+01  0.10198141169E+01 0.  0.
     999903    2    3    3    0    0 -0.30257546621E-01  0.10516699553E+00  0.69773270560E-01  0.13135163265E+00  0.20231807621E-01 0.  0.
         14    1    1    2    0    0  0.13847605429E-01  0.67696837701E-02 -0.18183333035E-01  0.23837331955E-01  0.00000000000E+00 0. -1.
     999901    1    3    3    0    0  0.16409941192E-01 -0.11193667930E+00 -0.51589937525E-01  0.88874103540E+00  0.88000000000E+00 0. -1.
        -11    1    4    4    0    0 -0.15474432187E-01  0.74311932310E-01  0.56597530669E-01  0.94685072393E-01  0.51100000000E-03 0. -1.
         11    1    4    4    0    0 -0.14783114434E-01  0.30855063216E-01  0.13175739891E-01  0.36666560257E-01  0.51100000000E-03 0.  1.
</event>
<event>
 8    1  0.1066842E+005  0.1043930E+01  0.7957747E-01            NaN
         13   -1    0    0    0    0  0.00000000000E+00  0.00000000000E+00  0.74505805969E-08  0.10566000000E+00  0.10566000000E+00 0.  1.
     999900   -1    0    0    0    0 -0.00000000000E+00 -0.00000000000E+00 -0.74505805969E-08  0.93827000000E+00  0.93827000000E+00 0. -1.
     999902    2    1    2    0    0 -0.97221246140E-02  0.14603642195E-01 -0.15976147744E-01  0.10202018865E+01  0.10199259120E+01 0.  0.
     999903    2    3    3    0    0 -0.16560723430E-01 -0.12493934115E+00  0.72806108099E-02  0.12887709306E+00  0.25926845035E-01 0.  0.
         14    1    1    2    0    0  0.97221246140E-02 -0.14603642195E-01  0.15976147744E-01  0.23728113476E-01  0.00000000000E+00 0.  1.
     999901    1    3    3    0    0  0.68385988158E-02  0.13954298334E+00 -0.23256758554E-01  0.89132479347E+00  0.88000000000E+00 0. -1.
        -11    1    4    4    0    0  0.46936838953E-02 -0.23551146782E-01  0.78886258533E-02  0.25281984141E-01  0.51100000000E-03 0.  1.
         11    1    4    4    0    0 -0.21254407325E-01 -0.10138819437E+00 -0.60801504338E-03  0.10359510891E+00  0.51100000000E-03 0. -1.
</event>
<event>
 8    1  0.1066842E+005  0.1043930E+01  0.7957747E-01            NaN
         13   -1    0    0    0    0  0.00000000000E+00  0.00000000000E+00  0.74505805969E-08  0.10566000000E+00  0.10566000000E+00 0.  1.
     999900   -1    0    0    0    0 -0.00000000000E+00 -0.00000000000E+00 -0.74505805969E-08  0.93827000000E+00  0.93827000000E+00 0. -1.
     999902    2    1    2    0    0 -0.44967882760E-02 -0.10760241194E-01  0.19852773275E-01  0.10209053067E+01  0.10206456333E+01 0.  0.
     999903    2    3    3    0    0  0.36128613053E-01  0.10060671381E+00  0.73528957519E-01  0.13133566093E+00  0.20385305842E-01 0.  0.
         14    1    1    2    0    0  0.44967882760E-02  0.10760241194E-01 -0.19852773275E-01  0.23024693311E-01  0.00000000000E+00 0. -1.
     999901    1    3    3    0    0 -0.40625401329E-01 -0.11136695500E+00 -0.53676184244E-01  0.88956964576E+00  0.88000000000E+00 0.  1.
        -11    1    4    4    0    0  0.13214421905E-01  0.36260946914E-01  0.38720659111E-01  0.54672001796E-01  0.51100000000E-03 0. -1.
         11    1    4    4    0    0  0.22914191147E-01  0.64345766892E-01  0.34808298408E-01  0.76663659135E-01  0.51100000000E-03 0.  1.
</event>
<event>
 8    1  0.1066842E+005  0.1043930E+01  0.7957747E-01            NaN
         13   -1    0    0    0    0  0.00000000000E+00  0.00000000000E+00  0.74505805969E-08  0.10566000000E+00  0.10566000000E+00 0.  1.
     999900   -1    0    0    0    0 -0.00000000000E+00 -0.00000000000E+00 -0.74505805969E-08  0.93827000000E+00  0.93827000000E+00 0.  1.
     999902    2    1    2    0    0 -0.71581886336E-02  0.17833174484E-01 -0.13400661874E-01  0.10205026759E+01  0.10202337340E+01 0.  0.
     999903    2    3    3    0    0 -0.74739674245E-01  0.57821935697E-01  0.88698186888E-01  0.13112619028E+00  0.19932743576E-01 0.  0.
         14    1    1    2    0    0  0.71581886336E-02 -0.17833174484E-01  0.13400661874E-01  0.23427324118E-01  0.00000000000E+00 0.  1.
     999901    1    3    3    0    0  0.67581485611E-01 -0.39988761213E-01 -0.10209884876E+00  0.88937648560E+00  0.88000000000E+00 0.  1.
        -11    1    4    4    0    0 -0.44217545268E-01  0.36395728795E-01  0.40321762751E-01  0.70042458954E-01  0.51100000000E-03 0. -1.
         11    1    4    4    0    0 -0.30522128977E-01  0.21426206901E-01  0.48376424138E-01  0.61083731327E-01  0.51100000000E-03 0.  1.
</event>
<event>
 8    1  0.1066842E+005  0.1043930E+01  0.7957747E-01            NaN
         13   -1    0    0    0    0  0.00000000000E+00  0.00000000000E+00  0.74505805969E-08  0.10566000000E+00  0.10566000000E+00 0. -1.
     999900   -1    0    0    0    0 -0.00000000000E+00 -0.00000000000E+00 -0.74505805969E-08  0.93827000000E+00  0.93827000000E+00 0. -1.
     999902    2    1    2    0    0 -0.25066717937E-02 -0.19735536765E-01  0.93402804377E-02  0.10219523829E+01  0.10217160355E+01 0.  0.
     999903    2    3    3    0    0 -0.67464778795E-02 -0.11050464739E+00  0.74929938758E-01  0.13484528075E+00  0.17662444908E-01 0.  0.
         14    1    1    2    0    0  0.25066717937E-02  0.19735536765E-01 -0.93402804377E-02  0.21977617103E-01  0.00000000000E+00 0.  1.
     999901    1    3    3    0    0  0.42398060858E-02  0.90769110623E-01 -0.65589658321E-01  0.88710710215E+00  0.88000000000E+00 0. -1.
        -11    1    4    4    0    0 -0.91163012959E-02 -0.82415656256E-01  0.63421530853E-01  0.10439348180E+00  0.51100000000E-03 0. -1.
         11    1    4    4    0    0  0.23698234164E-02 -0.28088991133E-01  0.11508407906E-01  0.30451798952E-01  0.51100000000E-03 0.  1.
</event>
<event>
 8    1  0.1066842E+005  0.1043930E+01  0.7957747E-01            NaN
         13   -1    0    0    0    0  0.00000000000E+00  0.00000000000E+00  0.74505805969E-08  0.10566000000E+00  0.10566000000E+00 0.  1.
     999900   -1    0    0    0    0 -0.00000000000E+00 -0.00000000000E+00 -0.74505805969E-08  0.93827000000E+00  0.93827000000E+00 0.  1.
     999902    2    1    2    0    0 -0.10369878464E-01  0.12085530880E-02 -0.21492281503E-01  0.10200362112E+01  0.10197563233E+01 0.  0.
     999903    2    3    3    0    0  0.60245328473E-01 -0.71260406563E-01  0.85161462525E-01  0.12784044865E+00  0.19574485055E-01 0.  0.
         14    1    1    2    0    0  0.10369878464E-01 -0.12085530880E-02  0.21492281503E-01  0.23893788819E-01  0.00000000000E+00 0.  1.
     999901    1    3    3    0    0 -0.70615206937E-01  0.72468959651E-01 -0.10665374403E+00  0.89219576253E+00  0.88000000000E+00 0. -1.
        -11    1    4    4    0    0  0.23855284601E-01 -0.34230551349E-01  0.50053193764E-01  0.65164319808E-01  0.51100000000E-03 0. -1.
         11    1    4    4    0    0  0.36390043872E-01 -0.37029855214E-01  0.35108268761E-01  0.62676128841E-01  0.51100000000E-03 0.  1.
</event>
<event>
 8    1  0.1066842E+005  0.1043930E+01  0.7957747E-01            NaN
         13   -1    0    0    0    0  0.00000000000E+00  0.00000000000E+00  0.74505805969E-08  0.10566000000E+00  0.10566000000E+00 0. -1.
     999900   -1    0    0    0    0 -0.00000000000E+00 -0.00000000000E+00 -0.74505805969E-08  0.93827000000E+00  0.93827000000E+00 0. -1.
     999902    2    1    2    0    0  0.33235784627E-02  0.31704880498E-02  0.23711037318E-01  0.10197781583E+01  0.10194921190E+01 0.  0.
     999903    2    3    3    0    0  0.10606341972E+00 -0.58459714437E-01  0.46716895456E-01  0.13136213728E+00  0.20163223356E-01 0.  0.
         14    1    1    2    0    0 -0.33235784627E-02 -0.31704880498E-02 -0.23711037318E-01  0.24151841730E-01  0.00000000000E+00 0.  1.
     999901    1    3    3    0    0 -0.10273984125E+00  0.61630202486E-01 -0.23005858138E-01  0.88841602099E+00  0.88000000000E+00 0. -1.
        -11    1    4    4    0    0  0.43263912918E-01 -0.13563159714E-01  0.13411243860E-01  0.47284754893E-01  0.51100000000E-03 0. -1.
         11    1    4    4    0    0  0.62799506799E-01 -0.44896554722E-01  0.33305651596E-01  0.84077382389E-01  0.51100000000E-03 0.  1.
</event>
<event>
 8    1  0.1066842E+005  0.1043930E+01  0.7957747E-01            NaN
         13   -1    0    0    0    0  0.00000000000E+00  0.00000000000E+00  0.74505805969E-08  0.10566000000E+00  0.10566000000E+00 0.  1.
     999900   -1    0    0    0    0 -0.00000000000E+00 -0.00000000000E+00 -0.74505805969E-08  0.93827000000E+00  0.93827000000E+00 0. -1.
     999902    2    1    2    0    0 -0.10695529606E-02  0.28164224103E-01  0.12031140372E-01  0.10132850036E+01  0.10128214960E+01 0.  0.
     999903    2    3    3    0    0 -0.83310945909E-01 -0.84353912965E-01 -0.18066561704E-01  0.12180878436E+00  0.21323296054E-01 0.  0.
         14    1    1    2    0    0  0.10695529606E-02 -0.28164224103E-01 -0.12031140372E-01  0.30644996354E-01  0.00000000000E+00 0. -1.
     999901    1    3    3    0    0  0.82241392948E-01  0.11251813707E+00  0.30097702076E-01  0.89147621929E+00  0.88000000000E+00 0.  1.
        -11    1    4    4    0    0 -0.57079473981E-01 -0.43245358907E-01 -0.85580786062E-02  0.72123014686E-01  0.51100000000E-03 0. -1.
         11    1    4    4    0    0 -0.26231471927E-01 -0.41108554058E-01 -0.95084830983E-02  0.49685769673E-01  0.51100000000E-03 0.  1.
</event>
<event>
 8    1  0.1066842E+005  0.1043930E+01  0.7957747E-01            NaN
         13   -1    0    0    0    0  0.00000000000E+00  0.00000000000E+00  0.74505805969E-08  0.10566000000E+00  0.10566000000E+00 0. -1.
     999900   -1    0    0    0    0 -0.00000000000E+00 -0.00000000000E+00 -0.74505805969E-08  0.93827000000E+00  0.93827000000E+00 0. -1.
     999902    2    1    2    0    0  0.20249937664E-01  0.44190657471E-02 -0.16208461803E-01  0.10176183609E+01  0.10172781459E+01 0.  0.
     999903    2    3    3    0    0  0.87902136009E-02 -0.20719529015E-01  0.12368300477E+00  0.12614043261E+00  0.10361290104E-01 0.  0.
         14    1    1    2    0    0 -0.20249937664E-01 -0.44190657471E-02  0.16208461803E-01  0.26311639088E-01  0.00000000000E+00 0. -1.
     999901    1    3    3    0    0  0.11459724063E-01  0.25138594762E-01 -0.13989146658E+00  0.89147792830E+00  0.88000000000E+00 0. -1.
        -11    1    4    4    0    0 -0.18157316133E-02 -0.43385233250E-02  0.36072282372E-01  0.36381181158E-01  0.51100000000E-03 0.  1.
         11    1    4    4    0    0  0.10605945214E-01 -0.16381005690E-01  0.87610722401E-01  0.89759251456E-01  0.51100000000E-03 0. -1.
</event>
<event>
 8    1  0.1066842E+005  0.1043930E+01  0.7957747E-01            NaN
         13   -1    0    0    0    0  0.00000000000E+00  0.00000000000E+00  0.74505805969E-08  0.10566000000E+00  0.10566000000E+00 0.  1.
     999900   -1    0    0    0    0 -0.00000000000E+00 -0.00000000000E+00 -0.74505805969E-08  0.93827000000E+00  0.93827000000E+00 0.  1.
     999902    2    1    2    0    0  0.13509838421E-01  0.19063552563E-01  0.12434785136E-01  0.10174619315E+01  0.10171176055E+01 0.  0.
     999903    2    3    3    0    0 -0.26629508398E-01 -0.22862229495E-01 -0.11914201792E+00  0.12578856444E+00  0.19903021238E-01 0.  0.
         14    1    1    2    0    0 -0.13509838421E-01 -0.19063552563E-01 -0.12434785136E-01  0.26468068533E-01  0.00000000000E+00 0. -1.
     999901    1    3    3    0    0  0.40139346819E-01  0.41925782058E-01  0.13157680306E+00  0.89167336703E+00  0.88000000000E+00 0. -1.
        -11    1    4    4    0    0 -0.19861983871E-01 -0.14375677399E-01 -0.48836005347E-01  0.54647735939E-01  0.51100000000E-03 0.  1.
         11    1    4    4    0    0 -0.67675245268E-02 -0.84865520959E-02 -0.70306012574E-01  0.71140828500E-01  0.51100000000E-03 0. -1.
</event>
<event>
 8    1  0.1066842E+005  0.1043930E+01  0.7957747E-01            NaN
         13   -1    0    0    0    0  0.00000000000E+00  0.00000000000E+00  0.74505805969E-08  0.10566000000E+00  0.10566000000E+00 0.  1.
     999900   -1    0    0    0    0 -0.00000000000E+00 -0.00000000000E+00 -0.74505805969E-08  0.93827000000E+00  0.93827000000E+00 0.  1.
     999902    2    1    2    0    0  0.11082518679E-01 -0.77021509893E-02 -0.12856413351E-01  0.10252904529E+01  0.10251210076E+01 0.  0.
     999903    2    3    3    0    0 -0.82629460268E-01 -0.56033708556E-01 -0.89612776120E-01  0.13567850739E+00  0.20268288638E-01 0.  0.
         14    1    1    2    0    0 -0.11082518679E-01  0.77021509893E-02  0.12856413351E-01  0.18639547054E-01  0.00000000000E+00 0.  1.
     999901    1    3    3    0    0  0.93711978947E-01  0.48331557566E-01  0.76756362768E-01  0.88961194556E+00  0.88000000000E+00 0. -1.
        -11    1    4    4    0    0 -0.23352378447E-01 -0.17946522964E-01 -0.15004842786E-01  0.33057793236E-01  0.51100000000E-03 0.  1.
         11    1    4    4    0    0 -0.59277081821E-01 -0.38087185591E-01 -0.74607933334E-01  0.10262071415E+00  0.51100000000E-03 0. -1.
</event>
<event>
 8    1  0.1066842E+005  0.1043930E+01  0.7957747E-01            NaN
         13   -1    0    0    0    0  0.00000000000E+00  0.00000000000E+00  0.74505805969E-08  0.10566000000E+00  0.10566000000E+00 0. -1.
     999900   -1    0    0    0    0 -0.00000000000E+00 -0.00000000000E+00 -0.74505805969E-08  0.93827000000E+00  0.93827000000E+00 0.  1.
     999902    2    1    2    0    0 -0.24160388789E-01  0.16264040447E-02  0.23410752627E-02  0.10196020282E+01  0.10193117510E+01 0.  0.
     999903    2    3    3    0    0  0.60284681076E-01 -0.49464154782E-01 -0.99829171968E-01  0.12820987299E+00  0.19772773576E-01 0.  0.
         14    1    1    2    0    0  0.24160388789E-01 -0.16264040447E-02 -0.23410752627E-02  0.24327971760E-01  0.00000000000E+00 0. -1.
     999901    1    3    3    0    0 -0.84445069866E-01  0.51090558827E-01  0.10217024723E+00  0.89139215525E+00  0.88000000000E+00 0. -1.
        -11    1    4    4    0    0  0.20655561954E-01 -0.21467112895E-01 -0.52850113203E-01  0.60670295551E-01  0.51100000000E-03 0. -1.
         11    1    4    4    0    0  0.39629119123E-01 -0.27997041888E-01 -0.46979058765E-01  0.67539577437E-01  0.51100000000E-03 0.  1.
</event>
<event>
 8    1  0.1066842E+005  0.1043930E+01  0.7957747E-01            NaN
         13   -1    0    0    0    0  0.00000000000E+00  0.00000000000E+00  0.74505805969E-08  0.10566000000E+00  0.10566000000E+00 0. -1.
     999900   -1    0    0    0    0 -0.00000000000E+00 -0.00000000000E+00 -0.74505805969E-08  0.93827000000E+00  0.93827000000E+00 0. -1.
     999902    2    1    2    0    0  0.14043566591E-01 -0.15498200774E-01 -0.10412282578E-01  0.10205669604E+01  0.10202995095E+01 0.  0.
     999903    2    3    3    0    0  0.84727281282E-01  0.79626386896E-01 -0.57329545314E-01  0.13138413094E+00  0.21355079342E-01 0.  0.
         14    1    1    2    0    0 -0.14043566591E-01  0.15498200774E-01  0.10412282578E-01  0.23363039578E-01  0.00000000000E+00 0. -1.
     999901    1    3    3    0    0 -0.70683714691E-01 -0.95124587670E-01  0.46917262736E-01  0.88918282948E+00  0.88000000000E+00 0.  1.
        -11    1    4    4    0    0  0.69201878380E-01  0.54240042101E-01 -0.48102935985E-01  0.10022492559E+00  0.51100000000E-03 0. -1.
         11    1    4    4    0    0  0.15525402902E-01  0.25386344794E-01 -0.92266093292E-02  0.31159205349E-01  0.51100000000E-03 0.  1.
</event>
<event>
 8    1  0.1066842E+005  0.1043930E+01  0.7957747E-01            NaN
         13   -1    0    0    0    0  0.00000000000E+00  0.00000000000E+00  0.74505805969E-08  0.10566000000E+00  0.10566000000E+00 0. -1.
     999900   -1    0    0    0    0 -0.00000000000E+00 -0.00000000000E+00 -0.74505805969E-08  0.93827000000E+00  0.93827000000E+00 0. -1.
     999902    2    1    2    0    0  0.17574542698E-01  0.14150403292E-03  0.13343787316E-01  0.10218632550E+01  0.10216249658E+01 0.  0.
     999903    2    3    3    0    0  0.95814065456E-01 -0.16637905267E-01  0.91432358243E-01  0.13478896477E+00  0.18735897608E-01 0.  0.
         14    1    1    2    0    0 -0.17574542698E-01 -0.14150403292E-03 -0.13343787316E-01  0.22066744988E-01  0.00000000000E+00 0.  1.
     999901    1    3    3    0    0 -0.78239522758E-01  0.16779409300E-01 -0.78088570926E-01  0.88707429024E+00  0.88000000000E+00 0. -1.
        -11    1    4    4    0    0  0.70152708132E-02 -0.34872281653E-02  0.20596734257E-02  0.81165362366E-02  0.51100000000E-03 0. -1.
         11    1    4    4    0    0  0.88798794642E-01 -0.13150677102E-01  0.89372684817E-01  0.12667242853E+00  0.51100000000E-03 0.  1.
</event>
<event>
 8    1  0.1066842E+005  0.1043930E+01  0.7957747E-01            NaN
         13   -1    0    0    0    0  0.00000000000E+00  0.00000000000E+00  0.74505805969E-08  0.10566000000E+00  0.10566000000E+00 0.  1.
     999900   -1    0    0    0    0 -0.00000000000E+00 -0.00000000000E+00 -0.74505805969E-08  0.93827000000E+00  0.93827000000E+00 0. -1.
     999902    2    1    2    0    0 -0.16700845153E-01 -0.14691036194E-01  0.27136393258E-02  0.10215222198E+01  0.10212764254E+01 0.  0.
     999903    2    3    3    0    0  0.68963873806E-01  0.10716232069E+00 -0.11409183391E-02  0.12899684638E+00  0.19977632888E-01 0.  0.
         14    1    1    2    0    0  0.16700845153E-01  0.14691036194E-01 -0.27136393258E-02  0.22407780159E-01  0.00000000000E+00 0.  1.
     999901    1    3    3    0    0 -0.85664718959E-01 -0.12185335688E+00  0.38545576649E-02  0.89252537346E+00  0.88000000000E+00 0. -1.
        -11    1    4    4    0    0  0.36484150945E-01  0.74276855746E-01 -0.16042128631E-02  0.82770642075E-01  0.51100000000E-03 0. -1.
         11    1    4    4    0    0  0.32479722861E-01  0.32885464941E-01  0.46329452402E-03  0.46226204304E-01  0.51100000000E-03 0.  1.
</event>
<event>
 8    1  0.1066842E+005  0.1043930E+01  0.7957747E-01            NaN
         13   -1    0    0    0    0  0.00000000000E+00  0.00000000000E+00  0.74505805969E-08  0.10566000000E+00  0.10566000000E+00 0. -1.
     999900   -1    0    0    0    0 -0.00000000000E+00 -0.00000000000E+00 -0.74505805969E-08  0.93827000000E+00  0.93827000000E+00 0. -1.
     999902    2    1    2    0    0  0.48576717683E-02  0.13593121478E-01 -0.19579641042E-01  0.10196044523E+01  0.10193142337E+01 0.  0.
     999903    2    3    3    0    0  0.17677035942E-02  0.96694724303E-01 -0.89031842450E-01  0.13295963472E+00  0.19964994650E-01 0.  0.
         14    1    1    2    0    0 -0.48576717683E-02 -0.13593121478E-01  0.19579641042E-01  0.24325547679E-01  0.00000000000E+00 0. -1.
     999901    1    3    3    0    0  0.30899681741E-02 -0.83101602825E-01  0.69452201408E-01  0.88664481760E+00  0.88000000000E+00 0.  1.
        -11    1    4    4    0    0 -0.48573979564E-02  0.63544561588E-01 -0.67721414541E-01  0.92994390857E-01  0.51100000000E-03 0. -1.
         11    1    4    4    0    0  0.66251015506E-02  0.33150162714E-01 -0.21310427909E-01  0.39965243865E-01  0.51100000000E-03 0.  1.
</event>
<event>
 8    1  0.1066842E+005  0.1043930E+01  0.7957747E-01            NaN
         13   -1    0    0    0    0  0.00000000000E+00  0.00000000000E+00  0.74505805969E-08  0.10566000000E+00  0.10566000000E+00 0. -1.
     999900   -1    0    0    0    0 -0.00000000000E+00 -0.00000000000E+00 -0.74505805969E-08  0.93827000000E+00  0.93827000000E+00 0.  1.
     999902    2    1    2    0    0  0.25529631440E-01 -0.12881912579E-01  0.14001015962E-01  0.10120908072E+01  0.10115898713E+01 0.  0.
     999903    2    3    3    0    0  0.63975645706E-01  0.10127685610E+00  0.24636061440E-01  0.12382090185E+00  0.19359632925E-01 0.  0.
         14    1    1    2    0    0 -0.25529631440E-01  0.12881912579E-01 -0.14001015962E-01  0.31839192847E-01  0.00000000000E+00 0.  1.
     999901    1    3    3    0    0 -0.38446014265E-01 -0.11415876868E+00 -0.10635045478E-01  0.88826990531E+00  0.88000000000E+00 0. -1.
        -11    1    4    4    0    0  0.17382030685E-01  0.28346975293E-01  0.15824241671E-01  0.36828708156E-01  0.51100000000E-03 0.  1.
         11    1    4    4    0    0  0.46593615021E-01  0.72929880803E-01  0.88118197687E-02  0.86992193692E-01  0.51100000000E-03 0. -1.
</event>
<event>
 8    1  0.1066842E+005  0.1043930E+01  0.7957747E-01            NaN
         13   -1    0    0    0    0  0.00000000000E+00  0.00000000000E+00  0.74505805969E-08  0.10566000000E+00  0.10566000000E+00 0.  1.
     999900   -1    0    0    0    0 -0.00000000000E+00 -0.00000000000E+00 -0.74505805969E-08  0.93827000000E+00  0.93827000000E+00 0. -1.
     999902    2    1    2    0    0 -0.10945644314E-01  0.13216536013E-01 -0.14586423180E-01  0.10214078399E+01  0.10211595016E+01 0.  0.
     999903    2    3    3    0    0  0.60014359457E-01  0.42697122450E-01 -0.10897955900E+00  0.13303039131E+00  0.19894047458E-01 0.  0.
         14    1    1    2    0    0  0.10945644314E-01 -0.13216536013E-01  0.14586423180E-01  0.22522160083E-01  0.00000000000E+00 0.  1.
     999901    1    3    3    0    0 -0.70960003771E-01 -0.29480586437E-01  0.94393135821E-01  0.88837744861E+00  0.88000000000E+00 0.  1.
        -11    1    4    4    0    0  0.96189920116E-02 -0.40446787287E-03 -0.18366389795E-01  0.20743046948E-01  0.51100000000E-03 0.  1.
         11    1    4    4    0    0  0.50395367446E-01  0.43101590323E-01 -0.90613169205E-01  0.11228734436E+00  0.51100000000E-03 0. -1.
</event>
<event>
 8    1  0.1066842E+005  0.1043930E+01  0.7957747E-01            NaN
         13   -1    0    0    0    0  0.00000000000E+00  0.00000000000E+00  0.74505805969E-08  0.10566000000E+00  0.10566000000E+00 0. -1.
     999900   -1    0    0    0    0 -0.00000000000E+00 -0.00000000000E+00 -0.74505805969E-08  0.93827000000E+00  0.93827000000E+00 0. -1.
     999902    2    1    2    0    0  0.21514172817E-01 -0.86899180492E-02 -0.92867076672E-02  0.10189376562E+01  0.10186311060E+01 0.  0.
     999903    2    3    3    0    0 -0.75478526138E-01  0.73257055291E-02  0.99563378774E-01  0.12679841532E+00  0.20354308305E-01 0.  0.
         14    1    1    2    0    0 -0.21514172817E-01  0.86899180492E-02  0.92867076672E-02  0.24992343767E-01  0.00000000000E+00 0.  1.
     999901    1    3    3    0    0  0.96992698955E-01 -0.16015623578E-01 -0.10885008644E+00  0.89213924091E+00  0.88000000000E+00 0. -1.
        -11    1    4    4    0    0 -0.15684171180E-01  0.94661984986E-02  0.28702172128E-01  0.34054044481E-01  0.51100000000E-03 0.  1.
         11    1    4    4    0    0 -0.59794354958E-01 -0.21404929695E-02  0.70861206646E-01  0.92744370844E-01  0.51100000000E-03 0. -1.
</event>
<event>
 7    1  0.1066842E+005  0.1043930E+01  0.7957747E-01            NaN
         13   -1    0    0    0    0  0.00000000000E+00  0.00000000000E+00  0.74505805969E-08  0.10566000000E+00  0.10566000000E+00 0.  1.
     999900   -1    0    0    0    0 -0.00000000000E+00 -0.00000000000E+00 -0.74505805969E-08  0.93827000000E+00  0.93827000000E+00 0. -1.
     999903    2    1    2    0    0 -0.27698655666E-01 -0.65837926800E-01 -0.85993587107E-01  0.11351832420E+00  0.19739928434E-01 0.  0.
         14    1    1    2    0    0  0.79425591899E-02 -0.31835060249E-01 -0.20064415625E-01  0.38459538244E-01  0.00000000000E+00 0.  1.
     999901    1    1    2    0    0  0.19756096476E-01  0.97672987050E-01  0.10605800273E+00  0.89195213756E+00  0.88000000000E+00 0.  1.
        -11    1    3    3    0    0 -0.11361862005E-01 -0.11272672263E-01 -0.27833634930E-01  0.32111328259E-01  0.51100000000E-03 0. -1.
         11    1    3    3    0    0 -0.16336793661E-01 -0.54565254537E-01 -0.58159952177E-01  0.81406995941E-01  0.51100000000E-03 0.  1.
</event>
<event>
 8    1  0.1066842E+005  0.1043930E+01  0.7957747E-01            NaN
         13   -1    0    0    0    0  0.00000000000E+00  0.00000000000E+00  0.74505805969E-08  0.10566000000E+00  0.10566000000E+00 0. -1.
     999900   -1    0    0    0    0 -0.00000000000E+00 -0.00000000000E+00 -0.74505805969E-08  0.93827000000E+00  0.93827000000E+00 0. -1.
     999902    2    1    2    0    0 -0.54842382846E-02  0.16153083430E-02 -0.22547829509E-01  0.10206686435E+01  0.10204035423E+01 0.  0.
     999903    2    3    3    0    0  0.32735297151E-01  0.39008619159E-01  0.11610640638E+00  0.12820912637E+00  0.19068571905E-01 0.  0.
         14    1    1    2    0    0  0.54842382846E-02 -0.16153083430E-02  0.22547829509E-01  0.23261356499E-01  0.00000000000E+00 0. -1.
     999901    1    3    3    0    0 -0.38219535436E-01 -0.37393310816E-01 -0.13865423589E+00  0.89245951713E+00  0.88000000000E+00 0. -1.
        -11    1    4    4    0    0  0.62850145214E-02  0.20297450443E-01  0.56479620647E-01  0.60346471077E-01  0.51100000000E-03 0. -1.
         11    1    4    4    0    0  0.26450282630E-01  0.18711168716E-01  0.59626785733E-01  0.67862655295E-01  0.51100000000E-03 0.  1.
</event>
<event>
 8    1  0.1066842E+005  0.1043930E+01  0.7957747E-01            NaN
         13   -1    0    0    0    0  0.00000000000E+00  0.00000000000E+00  0.74505805969E-08  0.10566000000E+00  0.10566000000E+00 0.  1.
     999900   -1    0    0    0    0 -0.00000000000E+00 -0.00000000000E+00 -0.74505805969E-08  0.93827000000E+00  0.93827000000E+00 0.  1.
     999902    2    1    2    0    0 -0.11147955323E-01  0.15354202199E-01  0.13411526843E-01  0.10206943058E+01  0.10204297959E+01 0.  0.
     999903    2    3    3    0    0 -0.75547832918E-01 -0.57771819204E-01 -0.86000179942E-01  0.12975241841E+00  0.19864565974E-01 0.  0.
         14    1    1    2    0    0  0.11147955323E-01 -0.15354202199E-01 -0.13411526843E-01  0.23235694208E-01  0.00000000000E+00 0. -1.
     999901    1    3    3    0    0  0.64399877595E-01  0.73126021403E-01  0.99411706785E-01  0.89094188738E+00  0.88000000000E+00 0. -1.
        -11    1    4    4    0    0 -0.25571829698E-01 -0.30944219124E-01 -0.30767600609E-01  0.50580327594E-01  0.51100000000E-03 0.  1.
         11    1    4    4    0    0 -0.49976003220E-01 -0.26827600080E-01 -0.55232579333E-01  0.79172090819E-01  0.51100000000E-03 0. -1.
</event>
<event>
 8    1  0.1066842E+005  0.1043930E+01  0.7957747E-01            NaN
         13   -1    0    0    0    0  0.00000000000E+00  0.00000000000E+00  0.74505805969E-08  0.10566000000E+00  0.10566000000E+00 0. -1.
     999900   -1    0    0    0    0 -0.00000000000E+00 -0.00000000000E+00 -0.74505805969E-08  0.93827000000E+00  0.93827000000E+00 0. -1.
     999902    2    1    2    0    0 -0.59625276496E-02  0.23772796039E-01 -0.53108733770E-02  0.10188520626E+01  0.10185433828E+01 0.  0.
     999903    2    3    3    0    0  0.38898754134E-01  0.33048370854E-01  0.11694080258E+00  0.12922065402E+00  0.20433262730E-01 0.  0.
         14    1    1    2    0    0  0.59625276496E-02 -0.23772796039E-01  0.53108733770E-02  0.25077937385E-01  0.00000000000E+00 0. -1.
     999901    1    3    3    0    0 -0.44861281783E-01 -0.92755748152E-02 -0.12225167596E+00  0.88963140860E+00  0.88000000000E+00 0. -1.
        -11    1    4    4    0    0  0.15419432824E-01  0.21847034144E-01  0.41056520053E-01  0.48999497644E-01  0.51100000000E-03 0.  1.
         11    1    4    4    0    0  0.23479321309E-01  0.11201336710E-01  0.75884282531E-01  0.80221156371E-01  0.51100000000E-03 0. -1.
</event>
<event>
 8    1  0.1066842E+005  0.1043930E+01  0.7957747E-01            NaN
         13   -1    0    0    0    0  0.00000000000E+00  0.00000000000E+00  0.74505805969E-08  0.10566000000E+00  0.10566000000E+00 0.  1.
     999900   -1    0    0    0    0 -0.00000000000E+00 -0.00000000000E+00 -0.74505805969E-08  0.93827000000E+00  0.93827000000E+00 0. -1.
     999902    2    1    2    0    0 -0.12815190474E-02  0.76031175037E-02  0.22980618326E-01  0.10196903939E+01  0.10194022468E+01 0.  0.
     999903    2    3    3    0    0  0.99412888056E-01  0.81339730048E-01 -0.85952358491E-02  0.13032349195E+00  0.20279558173E-01 0.  0.
         14    1    1    2    0    0  0.12815190474E-02 -0.76031175037E-02 -0.22980618326E-01  0.24239606133E-01  0.00000000000E+00 0. -1.
     999901    1    3    3    0    0 -0.10069440710E+00 -0.73736612545E-01  0.31575854175E-01  0.88936690191E+00  0.88000000000E+00 0. -1.
        -11    1    4    4    0    0  0.71128157559E-01  0.48839401436E-01  0.50812269240E-03  0.86284536506E-01  0.51100000000E-03 0. -1.
         11    1    4    4    0    0  0.28284730498E-01  0.32500328612E-01 -0.91033585415E-02  0.44038955448E-01  0.51100000000E-03 0.  1.
</event>
<event>
 8    1  0.1066842E+005  0.1043930E+01  0.7957747E-01            NaN
         13   -1    0    0    0    0  0.00000000000E+00  0.00000000000E+00  0.74505805969E-08  0.10566000000E+00  0.10566000000E+00 0. -1.
     999900   -1    0    0    0    0 -0.00000000000E+00 -0.00000000000E+00 -0.74505805969E-08  0.93827000000E+00  0.93827000000E+00 0. -1.
     999902    2    1    2    0    0  0.64246603386E-02  0.35823506167E-03 -0.22409111373E-01  0.10206153508E+01  0.10203490195E+01 0.  0.
     999903    2    3    3    0    0  0.12139405567E+00 -0.35324388343E-01 -0.33568027989E-01  0.13234977519E+00  0.20132593629E-01 0.  0.
         14    1    1    2    0    0 -0.64246603386E-02 -0.35823506167E-03  0.22409111373E-01  0.23314649158E-01  0.00000000000E+00 0. -1.
     999901    1    3    3    0    0 -0.11496939533E+00  0.35682623405E-01  0.11158916617E-01  0.88826557566E+00  0.88000000000E+00 0.  1.
        -11    1    4    4    0    0  0.36054062496E-01 -0.13263361387E-01 -0.11697154458E-02  0.38437501648E-01  0.51100000000E-03 0.  1.
         11    1    4    4    0    0  0.85339993170E-01 -0.22061026956E-01 -0.32398312544E-01  0.93912273539E-01  0.51100000000E-03 0. -1.
</event>
<event>
 8    1  0.1066842E+005  0.1043930E+01  0.7957747E-01            NaN
         13   -1    0    0    0    0  0.00000000000E+00  0.00000000000E+00  0.74505805969E-08  0.10566000000E+00  0.10566000000E+00 0.  1.
     999900   -1    0    0    0    0 -0.00000000000E+00 -0.00000000000E+00 -0.74505805969E-08  0.93827000000E+00  0.93827000000E+00 0. -1.
     999902    2    1    2    0    0 -0.98054095486E-02  0.21329449050E-01 -0.74222669517E-02  0.10193092466E+01  0.10190118540E+01 0.  0.
     999903    2    3    3    0    0 -0.85933986101E-03  0.76981159514E-01  0.10272660295E+00  0.13065300336E+00  0.24302570791E-01 0.  0.
         14    1    1    2    0    0  0.98054095486E-02 -0.21329449050E-01  0.74222669517E-02  0.24620753439E-01  0.00000000000E+00 0.  1.
     999901    1    3    3    0    0 -0.89460696876E-02 -0.55651710463E-01 -0.11014886991E+00  0.88865624320E+00  0.88000000000E+00 0. -1.
        -11    1    4    4    0    0  0.77780873686E-02  0.11736801451E-01  0.25945284217E-01  0.29524058757E-01  0.51100000000E-03 0.  1.
         11    1    4    4    0    0 -0.86374272296E-02  0.65244358062E-01  0.76781318738E-01  0.10112894460E+00  0.51100000000E-03 0. -1.
</event>
<event>
 8    1  0.1066842E+005  0.1043930E+01  0.7957747E-01            NaN
         13   -1    0    0    0    0  0.00000000000E+00  0.00000000000E+00  0.74505805969E-08  0.10566000000E+00  0.10566000000E+00 0.  1.
     999900   -1    0    0    0    0 -0.00000000000E+00 -0.00000000000E+00 -0.74505805969E-08  0.93827000000E+00  0.93827000000E+00 0.  1.
     999902    2    1    2    0    0 -0.18928740049E-01 -0.17487425279E-01  0.46200945656E-02  0.10177488519E+01  0.10174120468E+01 0.  0.
     999903    2    3    3    0    0 -0.99689595260E-01  0.48707404654E-01 -0.62787284691E-01  0.12901501883E+00  0.19804173628E-01 0.  0.
         14    1    1    2    0    0  0.18928740049E-01  0.17487425279E-01 -0.46200945656E-02  0.26181148113E-01  0.00000000000E+00 0. -1.
     999901    1    3    3    0    0  0.80760855212E-01 -0.66194829933E-01  0.67407379257E-01  0.88873383306E+00  0.88000000000E+00 0. -1.
        -11    1    4    4    0    0 -0.13235881503E-01  0.14692534822E-01 -0.10146980936E-01  0.22232442101E-01  0.51100000000E-03 0. -1.
         11    1    4    4    0    0 -0.86453713757E-01  0.34014869832E-01 -0.52640303756E-01  0.10678257673E+00  0.51100000000E-03 0.  1.
</event>
<event>
 8    1  0.1066842E+005  0.1043930E+01  0.7957747E-01            NaN
         13   -1    0    0    0    0  0.00000000000E+00  0.00000000000E+00  0.74505805969E-08  0.10566000000E+00  0.10566000000E+00 0.  1.
     999900   -1    0    0    0    0 -0.00000000000E+00 -0.00000000000E+00 -0.74505805969E-08  0.93827000000E+00  0.93827000000E+00 0.  1.
     999902    2    1    2    0    0  0.18315755810E-01  0.12580127239E-01 -0.66542265374E-02  0.10207350600E+01  0.10204714878E+01 0.  0.
     999903    2    3    3    0    0  0.10079662199E+00  0.60594217187E-01 -0.60711506192E-01  0.13392581577E+00  0.20460180451E-01 0.  0.
         14    1    1    2    0    0 -0.18315755810E-01 -0.12580127239E-01  0.66542265374E-02  0.23194940032E-01  0.00000000000E+00 0. -1.
     999901    1    3    3    0    0 -0.82480866176E-01 -0.48014089949E-01  0.54057279654E-01  0.88680924420E+00  0.88000000000E+00 0. -1.
        -11    1    4    4    0    0  0.76592551008E-01  0.39054101866E-01 -0.51568794490E-01  0.10025588975E+00  0.51100000000E-03 0. -1.
         11    1    4    4    0    0  0.24204070978E-01  0.21540115321E-01 -0.91427117023E-02  0.33669926021E-01  0.51100000000E-03 0.  1.
</event>
<event>
 8    1  0.1066842E+005  0.1043930E+01  0.7957747E-01            NaN
         13   -1    0    0    0    0  0.00000000000E+00  0.00000000000E+00  0.74505805969E-08  0.10566000000E+00  0.10566000000E+00 0.  1.
     999900   -1    0    0    0    0 -0.00000000000E+00 -0.00000000000E+00 -0.74505805969E-08  0.93827000000E+00  0.93827000000E+00 0. -1.
     999902    2    1    2    0    0  0.91046228190E-02  0.16071932323E-01 -0.15477756323E-01  0.10198309937E+01  0.10195462194E+01 0.  0.
     999903    2    3    3    0    0 -0.88893622313E-01  0.60331253444E-01  0.68734016087E-01  0.12929510660E+00  0.21234956846E-01 0.  0.
         14    1    1    2    0    0 -0.91046228190E-02 -0.16071932323E-01  0.15477756323E-01  0.24099006330E-01  0.00000000000E+00 0.  1.
     999901    1    3    3    0    0  0.97998245132E-01 -0.44259321121E-01 -0.84211772410E-01  0.89053588707E+00  0.88000000000E+00 0. -1.
        -11    1    4    4    0    0 -0.31401810740E-01  0.33953627530E-01  0.29602647238E-01  0.54913571953E-01  0.51100000000E-03 0.  1.
         11    1    4    4    0    0 -0.57491811573E-01  0.26377625914E-01  0.39131368849E-01  0.74381534643E-01  0.51100000000E-03 0. -1.
</event>
<event>
 8    1  0.1066842E+005  0.1043930E+01  0.7957747E-01            NaN
         13   -1    0    0    0    0  0.00000000000E+00  0.00000000000E+00  0.74505805969E-08  0.10566000000E+00  0.10566000000E+00 0.  1.
     999900   -1    0    0    0    0 -0.00000000000E+00 -0.00000000000E+00 -0.74505805969E-08  0.93827000000E+00  0.93827000000E+00 0. -1.
     999902    2    1    2    0    0  0.18412752600E-01 -0.13156154114E-01  0.55927854015E-02  0.10206192064E+01  0.10203529641E+01 0.  0.
     999903    2    3    3    0    0  0.12435886126E+00 -0.99808682119E-02  0.42994971976E-01  0.13347007354E+00  0.20023706269E-01 0.  0.
         14    1    1    2    0    0 -0.18412752600E-01  0.13156154114E-01 -0.55927854015E-02  0.23310793593E-01  0.00000000000E+00 0. -1.
     999901    1    3    3    0    0 -0.10594610866E+00 -0.31752859018E-02 -0.37402186575E-01  0.88714913286E+00  0.88000000000E+00 0.  1.
        -11    1    4    4    0    0  0.60085646999E-01  0.36344712311E-02  0.26225489792E-01  0.65662255462E-01  0.51100000000E-03 0.  1.
         11    1    4    4    0    0  0.64273214259E-01 -0.13615339443E-01  0.16769482184E-01  0.67807818082E-01  0.51100000000E-03 0. -1.
</event>
<event>
 8    1  0.1066842E+005  0.1043930E+01  0.7957747E-01            NaN
         13   -1    0    0    0    0  0.00000000000E+00  0.00000000000E+00  0.74505805969E-08  0.10566000000E+00  0.10566000000E+00 0.  1.
     999900   -1    0    0    0    0 -0.00000000000E+00 -0.00000000000E+00 -0.74505805969E-08  0.93827000000E+00  0.93827000000E+00 0. -1.
     999902    2    1    2    0    0 -0.18372302848E-01  0.11135003808E-01 -0.10640968529E-01  0.10199558466E+01  0.10196740503E+01 0.  0.
     999903    2    3    3    0    0 -0.52370802839E-01  0.12003830048E+00  0.23032122719E-02  0.13249690225E+00  0.19955694595E-01 0.  0.
         14    1    1    2    0    0  0.18372302848E-01 -0.11135003808E-01  0.10640968529E-01  0.23974153437E-01  0.00000000000E+00 0.  1.
     999901    1    3    3    0    0  0.33998499991E-01 -0.10890329667E+00 -0.12944180801E-01  0.88745894431E+00  0.88000000000E+00 0. -1.
        -11    1    4    4    0    0 -0.17227215726E-01  0.19808684360E-01 -0.67814608292E-04  0.26256935418E-01  0.51100000000E-03 0. -1.
         11    1    4    4    0    0 -0.35143587113E-01  0.10022961612E+00  0.23710268802E-02  0.10623996683E+00  0.51100000000E-03 0.  1.
</event>
<event>
 8    1  0.1066842E+005  0.1043930E+01  0.7957747E-01            NaN
         13   -1    0    0    0    0  0.00000000000E+00  0.00000000000E+00  0.74505805969E-08  0.10566000000E+00  0.10566000000E+00 0.  1.
     999900   -1    0    0    0    0 -0.00000000000E+00 -0.00000000000E+00 -0.74505805969E-08  0.93827000000E+00  0.93827000000E+00 0. -1.
     999902    2    1    2    0    0 -0.10074016184E-01 -0.95784926367E-02 -0.19585645751E-01  0.10199126970E+01  0.10196298734E+01 0.  0.
     999903    2    3    3    0    0  0.13882800742E-01 -0.99897864327E-02 -0.13000799341E+00  0.13268826481E+00  0.20287170292E-01 0.  0.
         14    1    1    2    0    0  0.10074016184E-01  0.95784926367E-02  0.19585645751E-01  0.24017302986E-01  0.00000000000E+00 0.  1.
     999901    1    3    3    0    0 -0.23956816926E-01  0.41129379595E-03  0.11042234766E+00  0.88722443221E+00  0.88000000000E+00 0.  1.
        -11    1    4    4    0    0  0.16639901236E-01 -0.99914861633E-03 -0.70930272626E-01  0.72864595703E-01  0.51100000000E-03 0. -1.
         11    1    4    4    0    0 -0.27571004939E-02 -0.89906378163E-02 -0.59077720782E-01  0.59823669106E-01  0.51100000000E-03 0.  1.
</event>
<event>
 8    1  0.1066842E+005  0.1043930E+01  0.7957747E-01            NaN
         13   -1    0    0    0    0  0.00000000000E+00  0.00000000000E+00  0.74505805969E-08  0.10566000000E+00  0.10566000000E+00 0. -1.
     999900   -1    0    0    0    0 -0.00000000000E+00 -0.00000000000E+00 -0.74505805969E-08  0.93827000000E+00  0.93827000000E+00 0.  1.
     999902    2    1    2    0    0 -0.56175443606E-02  0.23665283093E-02 -0.22590244533E-01  0.10205317862E+01  0.10202635200E+01 0.  0.
     999903    2    3    3    0    0 -0.48199493038E-01 -0.11971280189E+00  0.75316341759E-02  0.13057453285E+00  0.18402093628E-01 0.  0.
         14    1    1    2    0    0  0.56175443606E-02 -0.23665283093E-02  0.22590244533E-01  0.23398213798E-01  0.00000000000E+00 0. -1.
     999901    1    3    3    0    0  0.42581948677E-01  0.12207933020E+00 -0.30121878709E-01  0.88995725335E+00  0.88000000000E+00 0.  1.
        -11    1    4    4    0    0 -0.40745242175E-01 -0.10993019964E+00  0.24715392303E-02  0.11726548162E+00  0.51100000000E-03 0.  1.
         11    1    4    4    0    0 -0.74542508630E-02 -0.97826022499E-02  0.50600949456E-02  0.13309051227E-01  0.51100000000E-03 0. -1.
</event>
<event>
 8    1  0.1066842E+005  0.1043930E+01  0.7957747E-01            NaN
         13   -1    0    0    0    0  0.00000000000E+00  0.00000000000E+00  0.74505805969E-08  0.10566000000E+00  0.10566000000E+00 0. -1.
     999900   -1    0    0    0    0 -0.00000000000E+00 -0.00000000000E+00 -0.74505805969E-08  0.93827000000E+00  0.93827000000E+00 0.  1.
     999902    2    1    2    0    0 -0.11669265940E-01  0.13067350322E-01  0.16013890620E-01  0.10201945391E+01  0.10199183916E+01 0.  0.
     999903    2    3    3    0    0  0.38402765148E-02  0.22422221005E-01 -0.12513504524E+00  0.12876249927E+00  0.20087258513E-01 0.  0.
         14    1    1    2    0    0  0.11669265940E-01 -0.13067350322E-01 -0.16013890620E-01  0.23735460914E-01  0.00000000000E+00 0.  1.
     999901    1    3    3    0    0 -0.15509542455E-01 -0.93548706829E-02  0.14114893585E+00  0.89143203981E+00  0.88000000000E+00 0. -1.
        -11    1    4    4    0    0 -0.60805906863E-02  0.34837862228E-02 -0.54784675604E-01  0.55233433278E-01  0.51100000000E-03 0. -1.
         11    1    4    4    0    0  0.99208672011E-02  0.18938434782E-01 -0.70350369631E-01  0.73529065995E-01  0.51100000000E-03 0.  1.
</event>
<event>
 8    1  0.1066842E+005  0.1043930E+01  0.7957747E-01            NaN
         13   -1    0    0    0    0  0.00000000000E+00  0.00000000000E+00  0.74505805969E-08  0.10566000000E+00  0.10566000000E+00 0.  1.
     999900   -1    0    0    0    0 -0.00000000000E+00 -0.00000000000E+00 -0.74505805969E-08  0.93827000000E+00  0.93827000000E+00 0. -1.
     999902    2    1    2    0    0  0.20708759700E-01 -0.10022814453E-01 -0.69137871288E-02  0.10199068863E+01  0.10196239242E+01 0.  0.
     999903    2    3    3    0    0  0.10813272030E+00 -0.59963709789E-02  0.72941192506E-01  0.13196771110E+00  0.19142036105E-01 0.  0.
         14    1    1    2    0    0 -0.20708759700E-01  0.10022814453E-01  0.69137871288E-02  0.24023113668E-01  0.00000000000E+00 0.  1.
     999901    1    3    3    0    0 -0.87423960596E-01 -0.40264434739E-02 -0.79854979635E-01  0.88793917523E+00  0.88000000000E+00 0. -1.
        -11    1    4    4    0    0  0.50443053724E-01 -0.11335587172E-01  0.39551187590E-01  0.65096503488E-01  0.51100000000E-03 0.  1.
         11    1    4    4    0    0  0.57689666571E-01  0.53392161934E-02  0.33390004916E-01  0.66871207615E-01  0.51100000000E-03 0. -1.
</event>
<event>
 8    1  0.1066842E+005  0.1043930E+01  0.7957747E-01            NaN
         13   -1    0    0    0    0  0.00000000000E+00  0.00000000000E+00  0.74505805969E-08  0.10566000000E+00  0.10566000000E+00 0. -1.
     999900   -1    0    0    0    0 -0.00000000000E+00 -0.00000000000E+00 -0.74505805969E-08  0.93827000000E+00  0.93827000000E+00 0. -1.
     999902    2    1    2    0    0 -0.25123859761E-02 -0.20988384453E-01  0.99199883792E-02  0.10205798280E+01  0.10203126750E+01 0.  0.
     999903    2    3    3    0    0 -0.56293606341E-01 -0.82271520718E-01  0.86502896258E-01  0.13349866806E+00  0.20039213478E-01 0.  0.
         14    1    1    2    0    0  0.25123859761E-02  0.20988384453E-01 -0.99199883792E-02  0.23350172048E-01  0.00000000000E+00 0.  1.
     999901    1    3    3    0    0  0.53781220365E-01  0.61283136264E-01 -0.76582907879E-01  0.88708115989E+00  0.88000000000E+00 0. -1.
        -11    1    4    4    0    0 -0.45073372906E-01 -0.49985536929E-01  0.61163623814E-01  0.90947308076E-01  0.51100000000E-03 0. -1.
         11    1    4    4    0    0 -0.11220233435E-01 -0.32285983789E-01  0.25339272444E-01  0.42551359985E-01  0.51100000000E-03 0.  1.
</event>
<event>
 8    1  0.1066842E+005  0.1043930E+01  0.7957747E-01            NaN
         13   -1    0    0    0    0  0.00000000000E+00  0.00000000000E+00  0.74505805969E-08  0.10566000000E+00  0.10566000000E+00 0. -1.
     999900   -1    0    0    0    0 -0.00000000000E+00 -0.00000000000E+00 -0.74505805969E-08  0.93827000000E+00  0.93827000000E+00 0. -1.
     999902    2    1    2    0    0 -0.14894881035E-02 -0.22139411840E-01 -0.83440863595E-02  0.10202235471E+01  0.10199480821E+01 0.  0.
     999903    2    3    3    0    0 -0.10116674148E+00 -0.71272423570E-01 -0.43464177542E-01  0.13253946565E+00  0.19055374070E-01 0.  0.
         14    1    1    2    0    0  0.14894881035E-02  0.22139411840E-01  0.83440863595E-02  0.23706452889E-01  0.00000000000E+00 0. -1.
     999901    1    3    3    0    0  0.99677253377E-01  0.49133011730E-01  0.35120091183E-01  0.88768408147E+00  0.88000000000E+00 0.  1.
        -11    1    4    4    0    0 -0.34908494066E-01 -0.34672304659E-01 -0.12594288315E-01  0.50790244018E-01  0.51100000000E-03 0. -1.
         11    1    4    4    0    0 -0.66258247414E-01 -0.36600118911E-01 -0.30869889227E-01  0.81749221627E-01  0.51100000000E-03 0.  1.
</event>
<event>
 8    1  0.1066842E+005  0.1043930E+01  0.7957747E-01            NaN
         13   -1    0    0    0    0  0.00000000000E+00  0.00000000000E+00  0.74505805969E-08  0.10566000000E+00  0.10566000000E+00 0. -1.
     999900   -1    0    0    0    0 -0.00000000000E+00 -0.00000000000E+00 -0.74505805969E-08  0.93827000000E+00  0.93827000000E+00 0. -1.
     999902    2    1    2    0    0  0.82079546471E-02  0.22181430066E-01  0.11795050448E-01  0.10175006683E+01  0.10171573627E+01 0.  0.
     999903    2    3    3    0    0 -0.12263794439E+00  0.28043272774E-01 -0.51643102201E-02  0.12764526970E+00  0.20979852824E-01 0.  0.
         14    1    1    2    0    0 -0.82079546471E-02 -0.22181430066E-01 -0.11795050448E-01  0.26429331704E-01  0.00000000000E+00 0. -1.
     999901    1    3    3    0    0  0.13084589904E+00 -0.58618427079E-02  0.16959360668E-01  0.88985539860E+00  0.88000000000E+00 0.  1.
        -11    1    4    4    0    0 -0.45665473469E-01  0.55478215446E-02 -0.10795853783E-01  0.47253839749E-01  0.51100000000E-03 0. -1.
         11    1    4    4    0    0 -0.76972470922E-01  0.22495451229E-01  0.56315435632E-02  0.80391429952E-01  0.51100000000E-03 0.  1.
</event>
<event>
 8    1  0.1066842E+005  0.1043930E+01  0.7957747E-01            NaN
         13   -1    0    0    0    0  0.00000000000E+00  0.00000000000E+00  0.74505805969E-08  0.10566000000E+00  0.10566000000E+00 0.  1.
     999900   -1    0    0    0    0 -0.00000000000E+00 -0.00000000000E+00 -0.74505805969E-08  0.93827000000E+00  0.93827000000E+00 0. -1.
     999902    2    1    2    0    0  0.57717740087E-02  0.15703832576E-01 -0.17074085238E-01  0.10200250189E+01  0.10197448657E+01 0.  0.
     999903    2    3    3    0    0 -0.82493254974E-01  0.10041363476E+00 -0.30953471171E-02  0.13145207818E+00  0.19545652276E-01 0.  0.
         14    1    1    2    0    0 -0.57717740087E-02 -0.15703832576E-01  0.17074085238E-01  0.23904981061E-01  0.00000000000E+00 0.  1.
     999901    1    3    3    0    0  0.88265028983E-01 -0.84709802183E-01 -0.13978738121E-01  0.88857294076E+00  0.88000000000E+00 0.  1.
        -11    1    4    4    0    0 -0.39357004037E-01  0.46926656936E-01 -0.11187159014E-01  0.62261533436E-01  0.51100000000E-03 0. -1.
         11    1    4    4    0    0 -0.43136250937E-01  0.53486977823E-01  0.80918118968E-02  0.69190544746E-01  0.51100000000E-03 0.  1.
</event>
<event>
 8    1  0.1066842E+005  0.1043930E+01  0.7957747E-01            NaN
         13   -1    0    0    0    0  0.00000000000E+00  0.00000000000E+00  0.74505805969E-08  0.10566000000E+00  0.10566000000E+00 0. -1.
     999900   -1    0    0    0    0 -0.00000000000E+00 -0.00000000000E+00 -0.74505805969E-08  0.93827000000E+00  0.93827000000E+00 0.  1.
     999902    2    1    2    0    0 -0.16381305868E-01  0.51512366366E-02  0.13717779772E-01  0.10219513762E+01  0.10217150070E+01 0.  0.
     999903    2    3    3    0    0  0.77038235132E-01 -0.27884995254E-01 -0.97939264783E-01  0.12937874678E+00  0.20839815214E-01 0.  0.
         14    1    1    2    0    0  0.16381305868E-01 -0.51512366366E-02 -0.13717779772E-01  0.21978623767E-01  0.00000000000E+00 0.  1.
     999901    1    3    3    0    0 -0.93419541000E-01  0.33036231891E-01  0.11165704456E+00  0.89257262946E+00  0.88000000000E+00 0.  1.
        -11    1    4    4    0    0  0.27578631307E-01 -0.20762020946E-01 -0.38019326218E-01  0.51355357127E-01  0.51100000000E-03 0. -1.
         11    1    4    4    0    0  0.49459603825E-01 -0.71229743077E-02 -0.59919938565E-01  0.78023389648E-01  0.51100000000E-03 0.  1.
</event>
<event>
 8    1  0.1066842E+005  0.1043930E+01  0.7957747E-01            NaN
         13   -1    0    0    0    0  0.00000000000E+00  0.00000000000E+00  0.74505805969E-08  0.10566000000E+00  0.10566000000E+00 0. -1.
     999900   -1    0    0    0    0 -0.00000000000E+00 -0.00000000000E+00 -0.74505805969E-08  0.93827000000E+00  0.93827000000E+00 0. -1.
     999902    2    1    2    0    0 -0.66533064587E-02 -0.13260278624E-01  0.17643034944E-01  0.10208783589E+01  0.10206180703E+01 0.  0.
     999903    2    3    3    0    0 -0.33762263500E-02 -0.10412755686E+00 -0.77094878137E-01  0.13113520849E+00  0.19971871920E-01 0.  0.
         14    1    1    2    0    0  0.66533064587E-02  0.13260278624E-01 -0.17643034944E-01  0.23051641114E-01  0.00000000000E+00 0.  1.
     999901    1    3    3    0    0 -0.32770801087E-02  0.90867278235E-01  0.94737913081E-01  0.88974315040E+00  0.88000000000E+00 0. -1.
        -11    1    4    4    0    0 -0.89530107094E-02 -0.64159416307E-01 -0.38879505081E-01  0.75554378682E-01  0.51100000000E-03 0. -1.
         11    1    4    4    0    0  0.55767843594E-02 -0.39968140552E-01 -0.38215373056E-01  0.55580829804E-01  0.51100000000E-03 0.  1.
</event>
<event>
 8    1  0.1080517E+005  0.1043930E+01  0.7957747E-01            NaN
         13   -1    0    0    0    0  0.00000000000E+00  0.00000000000E+00  0.74505805969E-08  0.10566000000E+00  0.10566000000E+00 0. -1.
     999900   -1    0    0    0    0 -0.00000000000E+00 -0.00000000000E+00 -0.74505805969E-08  0.93827000000E+00  0.93827000000E+00 0.  1.
     999902    2    1    2    0    0  0.14285555122E-01 -0.90706060379E-02  0.16430128653E-01  0.10203439425E+01  0.10200713009E+01 0.  0.
     999903    2    3    3    0    0 -0.42625109741E-01 -0.38767277090E-01  0.11462759852E+00  0.13255823690E+00  0.33352632174E-01 0.  0.
         14    1    1    2    0    0 -0.14285555122E-01  0.90706060379E-02 -0.16430128653E-01  0.23586057462E-01  0.00000000000E+00 0. -1.
     999901    1    3    3    0    0  0.56910664863E-01  0.29696671052E-01 -0.98197469872E-01  0.88778570564E+00  0.88000000000E+00 0.  1.
        -11    1    4    4    0    0 -0.15232638223E-01 -0.18295349824E-02  0.55883255201E-01  0.57953255287E-01  0.51100000000E-03 0. -1.
         11    1    4    4    0    0 -0.27392471518E-01 -0.36937742107E-01  0.58744343324E-01  0.74604981612E-01  0.51100000000E-03 0.  1.
</event>
<event>
 8    1  0.1066842E+005  0.1043930E+01  0.7957747E-01            NaN
         13   -1    0    0    0    0  0.00000000000E+00  0.00000000000E+00  0.74505805969E-08  0.10566000000E+00  0.10566000000E+00 0.  1.
     999900   -1    0    0    0    0 -0.00000000000E+00 -0.00000000000E+00 -0.74505805969E-08  0.93827000000E+00  0.93827000000E+00 0.  1.
     999902    2    1    2    0    0  0.15035379051E-01 -0.62755820955E-02  0.17855098490E-01  0.10197587341E+01  0.10194722290E+01 0.  0.
     999903    2    3    3    0    0  0.12795038629E+00 -0.25597638657E-01 -0.13765190907E-02  0.13212536617E+00  0.20704519407E-01 0.  0.
         14    1    1    2    0    0 -0.15035379051E-01  0.62755820955E-02 -0.17855098490E-01  0.24171265915E-01  0.00000000000E+00 0. -1.
     999901    1    3    3    0    0 -0.11291500724E+00  0.19322056562E-01  0.19231617581E-01  0.88763336792E+00  0.88000000000E+00 0. -1.
        -11    1    4    4    0    0  0.33196896600E-01 -0.15988376831E-01 -0.15891728355E-02  0.36884261262E-01  0.51100000000E-03 0. -1.
         11    1    4    4    0    0  0.94753489686E-01 -0.96092618266E-02  0.21265374484E-03  0.95241104903E-01  0.51100000000E-03 0.  1.
</event>
<event>
 8    1  0.1066842E+005  0.1043930E+01  0.7957747E-01            NaN
         13   -1    0    0    0    0  0.00000000000E+00  0.00000000000E+00  0.74505805969E-08  0.10566000000E+00  0.10566000000E+00 0. -1.
     999900   -1    0    0    0    0 -0.00000000000E+00 -0.00000000000E+00 -0.74505805969E-08  0.93827000000E+00  0.93827000000E+00 0. -1.
     999902    2    1    2    0    0  0.79400334226E-02 -0.18801616533E-01  0.13002216793E-01  0.10197307736E+01  0.10194435973E+01 0.  0.
     999903    2    3    3    0    0  0.91961778048E-01 -0.67021996184E-02 -0.89054532410E-01  0.12977480309E+00  0.20221317273E-01 0.  0.
         14    1    1    2    0    0 -0.79400334226E-02  0.18801616533E-01 -0.13002216793E-01  0.24199226362E-01  0.00000000000E+00 0.  1.
     999901    1    3    3    0    0 -0.84021744625E-01 -0.12099416914E-01  0.10205674920E+00  0.88995597055E+00  0.88000000000E+00 0.  1.
        -11    1    4    4    0    0  0.54650280734E-01 -0.38645919171E-03 -0.65033455963E-01  0.84949479401E-01  0.51100000000E-03 0. -1.
         11    1    4    4    0    0  0.37311497314E-01 -0.63157404267E-02 -0.24021076447E-01  0.44825323687E-01  0.51100000000E-03 0.  1.
</event>
<event>
 8    1  0.1066842E+005  0.1043930E+01  0.7957747E-01            NaN
         13   -1    0    0    0    0  0.00000000000E+00  0.00000000000E+00  0.74505805969E-08  0.10566000000E+00  0.10566000000E+00 0. -1.
     999900   -1    0    0    0    0 -0.00000000000E+00 -0.00000000000E+00 -0.74505805969E-08  0.93827000000E+00  0.93827000000E+00 0. -1.
     999902    2    1    2    0    0  0.12655322284E-01 -0.54052636043E-02  0.18513907344E-01  0.10208618657E+01  0.10206012002E+01 0.  0.
     999903    2    3    3    0    0  0.44708772896E-01 -0.98674212029E-01  0.75559000145E-01  0.13351713950E+00  0.19549668623E-01 0.  0.
         14    1    1    2    0    0 -0.12655322284E-01  0.54052636043E-02 -0.18513907344E-01  0.23068134339E-01  0.00000000000E+00 0.  1.
     999901    1    3    3    0    0 -0.32053450612E-01  0.93268948425E-01 -0.57045092801E-01  0.88734472616E+00  0.88000000000E+00 0.  1.
        -11    1    4    4    0    0  0.36600979678E-01 -0.70909693012E-01  0.45776184146E-01  0.91997480576E-01  0.51100000000E-03 0. -1.
         11    1    4    4    0    0  0.81077932185E-02 -0.27764519017E-01  0.29782815999E-01  0.41519658921E-01  0.51100000000E-03 0.  1.
</event>
<event>
 8    1  0.1066842E+005  0.1043930E+01  0.7957747E-01            NaN
         13   -1    0    0    0    0  0.00000000000E+00  0.00000000000E+00  0.74505805969E-08  0.10566000000E+00  0.10566000000E+00 0.  1.
     999900   -1    0    0    0    0 -0.00000000000E+00 -0.00000000000E+00 -0.74505805969E-08  0.93827000000E+00  0.93827000000E+00 0.  1.
     999902    2    1    2    0    0  0.22663832097E-01 -0.52792952630E-02 -0.42758114844E-02  0.10202698477E+01  0.10199954702E+01 0.  0.
     999903    2    3    3    0    0 -0.79885986708E-01 -0.87629959088E-01 -0.48239947313E-01  0.12941018286E+00  0.18950522657E-01 0.  0.
         14    1    1    2    0    0 -0.22663832097E-01  0.52792952630E-02  0.42758114844E-02  0.23660152317E-01  0.00000000000E+00 0.  1.
     999901    1    3    3    0    0  0.10254981881E+00  0.82350663825E-01  0.43964135829E-01  0.89085966482E+00  0.88000000000E+00 0. -1.
        -11    1    4    4    0    0 -0.20371095610E-01 -0.11342514655E-01 -0.89729241038E-02  0.24988170462E-01  0.51100000000E-03 0. -1.
         11    1    4    4    0    0 -0.59514891098E-01 -0.76287444433E-01 -0.39267023209E-01  0.10442201240E+00  0.51100000000E-03 0.  1.
</event>
<event>
 8    1  0.1066842E+005  0.1043930E+01  0.7957747E-01            NaN
         13   -1    0    0    0    0  0.00000000000E+00  0.00000000000E+00  0.74505805969E-08  0.10566000000E+00  0.10566000000E+00 0. -1.
     999900   -1    0    0    0    0 -0.00000000000E+00 -0.00000000000E+00 -0.74505805969E-08  0.93827000000E+00  0.93827000000E+00 0. -1.
     999902    2    1    2    0    0 -0.21185120013E-02  0.16015870977E-01  0.17754211239E-01  0.10199256622E+01  0.10196431475E+01 0.  0.
     999903    2    3    3    0    0  0.21840453687E-01 -0.99300128165E-01 -0.74217589320E-01  0.12732797915E+00  0.19147919980E-01 0.  0.
         14    1    1    2    0    0  0.21185120013E-02 -0.16015870977E-01 -0.17754211239E-01  0.24004337795E-01  0.00000000000E+00 0. -1.
     999901    1    3    3    0    0 -0.23958965688E-01  0.11531599914E+00  0.91971800559E-01  0.89259768305E+00  0.88000000000E+00 0. -1.
        -11    1    4    4    0    0  0.14230860291E-01 -0.52961859785E-01 -0.51203659482E-01  0.75030339476E-01  0.51100000000E-03 0.  1.
         11    1    4    4    0    0  0.76095933955E-02 -0.46338268379E-01 -0.23013929838E-01  0.52297639675E-01  0.51100000000E-03 0. -1.
</event>
<event>
 8    1  0.1066842E+005  0.1043930E+01  0.7957747E-01            NaN
         13   -1    0    0    0    0  0.00000000000E+00  0.00000000000E+00  0.74505805969E-08  0.10566000000E+00  0.10566000000E+00 0. -1.
     999900   -1    0    0    0    0 -0.00000000000E+00 -0.00000000000E+00 -0.74505805969E-08  0.93827000000E+00  0.93827000000E+00 0. -1.
     999902    2    1    2    0    0  0.59704581210E-02  0.19973006498E-01 -0.10848235979E-01  0.10204299663E+01  0.10201593329E+01 0.  0.
     999903    2    3    3    0    0  0.12055144122E+00  0.35510172965E-01  0.34177265158E-01  0.13172444649E+00  0.19738844589E-01 0.  0.
         14    1    1    2    0    0 -0.59704581210E-02 -0.19973006498E-01  0.10848235979E-01  0.23500033672E-01  0.00000000000E+00 0.  1.
     999901    1    3    3    0    0 -0.11458098310E+00 -0.15537166467E-01 -0.45025501137E-01  0.88870551983E+00  0.88000000000E+00 0. -1.
        -11    1    4    4    0    0  0.75107297869E-01  0.31273915976E-01  0.18252062752E-01  0.83382030015E-01  0.51100000000E-03 0.  1.
         11    1    4    4    0    0  0.45444143353E-01  0.42362569885E-02  0.15925202407E-01  0.48342416479E-01  0.51100000000E-03 0. -1.
</event>
<event>
 8    1  0.1066842E+005  0.1043930E+01  0.7957747E-01            NaN
         13   -1    0    0    0    0  0.00000000000E+00  0.00000000000E+00  0.74505805969E-08  0.10566000000E+00  0.10566000000E+00 0. -1.
     999900   -1    0    0    0    0 -0.00000000000E+00 -0.00000000000E+00 -0.74505805969E-08  0.93827000000E+00  0.93827000000E+00 0.  1.
     999902    2    1    2    0    0  0.10790254433E-01  0.77821976100E-02 -0.17624507748E-01  0.10218479833E+01  0.10216093605E+01 0.  0.
     999903    2    3    3    0    0  0.12940838597E+00  0.10842910415E-01 -0.25440544005E-01  0.13384983037E+00  0.20111110017E-01 0.  0.
         14    1    1    2    0    0 -0.10790254433E-01 -0.77821976100E-02  0.17624507748E-01  0.22082016750E-01  0.00000000000E+00 0. -1.
     999901    1    3    3    0    0 -0.11861813154E+00 -0.30607128054E-02  0.78160362574E-02  0.88799815288E+00  0.88000000000E+00 0. -1.
        -11    1    4    4    0    0  0.73831915563E-01  0.63257961453E-02 -0.43472650014E-02  0.74231578769E-01  0.51100000000E-03 0. -1.
         11    1    4    4    0    0  0.55576470406E-01  0.45171142702E-02 -0.21093279004E-01  0.59618251603E-01  0.51100000000E-03 0.  1.
</event>
<event>
 8    1  0.1066842E+005  0.1043930E+01  0.7957747E-01            NaN
         13   -1    0    0    0    0  0.00000000000E+00  0.00000000000E+00  0.74505805969E-08  0.10566000000E+00  0.10566000000E+00 0.  1.
     999900   -1    0    0    0    0 -0.00000000000E+00 -0.00000000000E+00 -0.74505805969E-08  0.93827000000E+00  0.93827000000E+00 0.  1.
     999902    2    1    2    0    0  0.22094747183E-01 -0.85210168400E-02  0.30834384513E-02  0.10200491882E+01  0.10197696079E+01 0.  0.
     999903    2    3    3    0    0 -0.44635681969E-01  0.85209969476E-01 -0.82675639807E-01  0.12842535074E+00  0.20117810307E-01 0.  0.
         14    1    1    2    0    0 -0.22094747183E-01  0.85210168400E-02 -0.30834384513E-02  0.23880811832E-01  0.00000000000E+00 0. -1.
     999901    1    3    3    0    0  0.66730429152E-01 -0.93730986316E-01  0.85759078258E-01  0.89162383743E+00  0.88000000000E+00 0. -1.
        -11    1    4    4    0    0 -0.16433372209E-01  0.14048859907E-01 -0.20666654607E-01  0.29913173026E-01  0.51100000000E-03 0. -1.
         11    1    4    4    0    0 -0.28202309761E-01  0.71161109569E-01 -0.62008985200E-01  0.98512177712E-01  0.51100000000E-03 0.  1.
</event>
<event>
 8    1  0.1066842E+005  0.1043930E+01  0.7957747E-01            NaN
         13   -1    0    0    0    0  0.00000000000E+00  0.00000000000E+00  0.74505805969E-08  0.10566000000E+00  0.10566000000E+00 0. -1.
     999900   -1    0    0    0    0 -0.00000000000E+00 -0.00000000000E+00 -0.74505805969E-08  0.93827000000E+00  0.93827000000E+00 0.  1.
     999902    2    1    2    0    0  0.19499271191E-01 -0.10919952842E-01 -0.20101682323E-02  0.10214910222E+01  0.10212445352E+01 0.  0.
     999903    2    3    3    0    0 -0.31998722482E-01  0.54100938052E-01 -0.11275606814E+00  0.13067992331E+00  0.20309645916E-01 0.  0.
         14    1    1    2    0    0 -0.19499271191E-01  0.10919952842E-01  0.20101682323E-02  0.22438977771E-01  0.00000000000E+00 0. -1.
     999901    1    3    3    0    0  0.51497993673E-01 -0.65020890894E-01  0.11074589990E+00  0.89081109892E+00  0.88000000000E+00 0. -1.
        -11    1    4    4    0    0 -0.71953008516E-02  0.18516292284E-01 -0.54770565381E-01  0.58264066005E-01  0.51100000000E-03 0.  1.
         11    1    4    4    0    0 -0.24803421630E-01  0.35584645768E-01 -0.57985502755E-01  0.72415857309E-01  0.51100000000E-03 0. -1.
</event>
<event>
 8    1  0.1066842E+005  0.1043930E+01  0.7957747E-01            NaN
         13   -1    0    0    0    0  0.00000000000E+00  0.00000000000E+00  0.74505805969E-08  0.10566000000E+00  0.10566000000E+00 0. -1.
     999900   -1    0    0    0    0 -0.00000000000E+00 -0.00000000000E+00 -0.74505805969E-08  0.93827000000E+00  0.93827000000E+00 0. -1.
     999902    2    1    2    0    0 -0.13943023121E-01  0.17698254004E-01 -0.10212016426E-01  0.10191929556E+01  0.10188927123E+01 0.  0.
     999903    2    3    3    0    0  0.10769108863E-01  0.11272940373E+00 -0.62496793396E-01  0.13218940044E+00  0.27281793067E-01 0.  0.
         14    1    1    2    0    0  0.13943023121E-01 -0.17698254004E-01  0.10212016426E-01  0.24737044448E-01  0.00000000000E+00 0.  1.
     999901    1    3    3    0    0 -0.24712131984E-01 -0.95031149721E-01  0.52284776970E-01  0.88700355512E+00  0.88000000000E+00 0. -1.
        -11    1    4    4    0    0  0.10331892562E-01  0.10305805501E+00 -0.46614575217E-01  0.11358208684E+00  0.51100000000E-03 0. -1.
         11    1    4    4    0    0  0.43721630163E-03  0.96713487104E-02 -0.15882218179E-01  0.18607313596E-01  0.51100000000E-03 0.  1.
</event>
<event>
 8    1  0.1066842E+005  0.1043930E+01  0.7957747E-01            NaN
         13   -1    0    0    0    0  0.00000000000E+00  0.00000000000E+00  0.74505805969E-08  0.10566000000E+00  0.10566000000E+00 0.  1.
     999900   -1    0    0    0    0 -0.00000000000E+00 -0.00000000000E+00 -0.74505805969E-08  0.93827000000E+00  0.93827000000E+00 0.  1.
     999902    2    1    2    0    0 -0.20526035039E-01  0.28116853979E-02 -0.12096589706E-01  0.10199393524E+01  0.10196571637E+01 0.  0.
     999903    2    3    3    0    0  0.96822358237E-01  0.81024680266E-01  0.12917938156E-01  0.12836005444E+00  0.19231811730E-01 0.  0.
         14    1    1    2    0    0  0.20526035039E-01 -0.28116853979E-02  0.12096589706E-01  0.23990647589E-01  0.00000000000E+00 0.  1.
     999901    1    3    3    0    0 -0.11734839328E+00 -0.78212994868E-01 -0.25014527862E-01  0.89157929797E+00  0.88000000000E+00 0.  1.
        -11    1    4    4    0    0  0.44136054065E-01  0.34563168812E-01 -0.36662185504E-02  0.56181012684E-01  0.51100000000E-03 0. -1.
         11    1    4    4    0    0  0.52686304172E-01  0.46461511454E-01  0.16584156706E-01  0.72179041754E-01  0.51100000000E-03 0.  1.
</event>
<event>
 8    1  0.1066842E+005  0.1043930E+01  0.7957747E-01            NaN
         13   -1    0    0    0    0  0.00000000000E+00  0.00000000000E+00  0.74505805969E-08  0.10566000000E+00  0.10566000000E+00 0. -1.
     999900   -1    0    0    0    0 -0.00000000000E+00 -0.00000000000E+00 -0.74505805969E-08  0.93827000000E+00  0.93827000000E+00 0. -1.
     999902    2    1    2    0    0  0.24069295981E-01  0.35465364275E-02 -0.18251085208E-01  0.10135160058E+01  0.10130595654E+01 0.  0.
     999903    2    3    3    0    0  0.31911597894E-01  0.69020657059E-01 -0.10003816615E+00  0.12726689369E+00  0.20174894327E-01 0.  0.
         14    1    1    2    0    0 -0.24069295981E-01 -0.35465364275E-02  0.18251085208E-01  0.30413994163E-01  0.00000000000E+00 0. -1.
     999901    1    3    3    0    0 -0.78423019123E-02 -0.65474120631E-01  0.81787080946E-01  0.88624911215E+00  0.88000000000E+00 0.  1.
        -11    1    4    4    0    0 -0.40483442915E-04  0.17728719434E-01 -0.29082327641E-01  0.34063940373E-01  0.51100000000E-03 0.  1.
         11    1    4    4    0    0  0.31952081337E-01  0.51291937625E-01 -0.70955838513E-01  0.93202953318E-01  0.51100000000E-03 0. -1.
</event>
<event>
 8    1  0.1066842E+005  0.1043930E+01  0.7957747E-01            NaN
         13   -1    0    0    0    0  0.00000000000E+00  0.00000000000E+00  0.74505805969E-08  0.10566000000E+00  0.10566000000E+00 0. -1.
     999900   -1    0    0    0    0 -0.00000000000E+00 -0.00000000000E+00 -0.74505805969E-08  0.93827000000E+00  0.93827000000E+00 0. -1.
     999902    2    1    2    0    0 -0.16296376795E-01  0.16940943197E-01  0.19736802650E-02  0.10203405348E+01  0.10200678135E+01 0.  0.
     999903    2    3    3    0    0  0.10542065176E-01  0.14553548718E-01 -0.12773054606E+00  0.13042526474E+00  0.19305863551E-01 0.  0.
         14    1    1    2    0    0  0.16296376795E-01 -0.16940943197E-01 -0.19736802650E-02  0.23589465167E-01  0.00000000000E+00 0.  1.
     999901    1    3    3    0    0 -0.26838441972E-01  0.23873944790E-02  0.12970422632E+00  0.88991527009E+00  0.88000000000E+00 0.  1.
        -11    1    4    4    0    0  0.33892293291E-02 -0.37431206952E-02 -0.49686702080E-01  0.49945243143E-01  0.51100000000E-03 0. -1.
         11    1    4    4    0    0  0.71528358472E-02  0.18296669413E-01 -0.78043843978E-01  0.80480021597E-01  0.51100000000E-03 0.  1.
</event>
<event>
 8    1  0.1066842E+005  0.1043930E+01  0.7957747E-01            NaN
         13   -1    0    0    0    0  0.00000000000E+00  0.00000000000E+00  0.74505805969E-08  0.10566000000E+00  0.10566000000E+00 0.  1.
     999900   -1    0    0    0    0 -0.00000000000E+00 -0.00000000000E+00 -0.74505805969E-08  0.93827000000E+00  0.93827000000E+00 0.  1.
     999902    2    1    2    0    0 -0.14907427070E-01  0.14148616010E-01 -0.11808222637E-01  0.10202266492E+01  0.10199512571E+01 0.  0.
     999903    2    3    3    0    0  0.14757818023E-01  0.12900600921E+00 -0.15967210964E-01  0.13225731149E+00  0.19408787029E-01 0.  0.
         14    1    1    2    0    0  0.14907427070E-01 -0.14148616010E-01  0.11808222637E-01  0.23703350790E-01  0.00000000000E+00 0.  1.
     999901    1    3    3    0    0 -0.29665245093E-01 -0.11485739320E+00  0.41589883266E-02  0.88796933771E+00  0.88000000000E+00 0.  1.
        -11    1    4    4    0    0 -0.45042065973E-02  0.37790244686E-01 -0.46470731188E-02  0.38343798457E-01  0.51100000000E-03 0.  1.
         11    1    4    4    0    0  0.19262024621E-01  0.91215764519E-01 -0.11320137845E-01  0.93913513038E-01  0.51100000000E-03 0. -1.
</event>
<event>
 8    1  0.1066842E+005  0.1043930E+01  0.7957747E-01            NaN
         13   -1    0    0    0    0  0.00000000000E+00  0.00000000000E+00  0.74505805969E-08  0.10566000000E+00  0.10566000000E+00 0. -1.
     999900   -1    0    0    0    0 -0.00000000000E+00 -0.00000000000E+00 -0.74505805969E-08  0.93827000000E+00  0.93827000000E+00 0. -1.
     999902    2    1    2    0    0 -0.19160396822E-02 -0.12962769005E-01 -0.19178767583E-01  0.10207022211E+01  0.10204378934E+01 0.  0.
     999903    2    3    3    0    0 -0.22424029295E-01  0.12538361255E+00 -0.13062340925E-01  0.12963672987E+00  0.20277317212E-01 0.  0.
         14    1    1    2    0    0  0.19160396822E-02  0.12962769005E-01  0.19178767583E-01  0.23227778937E-01  0.00000000000E+00 0. -1.
     999901    1    3    3    0    0  0.20507989613E-01 -0.13834638156E+00 -0.61164266587E-02  0.89106549120E+00  0.88000000000E+00 0. -1.
        -11    1    4    4    0    0 -0.39222480366E-02  0.55830727907E-01 -0.13850564889E-01  0.57658940998E-01  0.51100000000E-03 0.  1.
         11    1    4    4    0    0 -0.18501781259E-01  0.69552884646E-01  0.78822396449E-03  0.71977788868E-01  0.51100000000E-03 0. -1.
</event>
<event>
 8    1  0.1066842E+005  0.1043930E+01  0.7957747E-01            NaN
         13   -1    0    0    0    0  0.00000000000E+00  0.00000000000E+00  0.74505805969E-08  0.10566000000E+00  0.10566000000E+00 0.  1.
     999900   -1    0    0    0    0 -0.00000000000E+00 -0.00000000000E+00 -0.74505805969E-08  0.93827000000E+00  0.93827000000E+00 0. -1.
     999902    2    1    2    0    0 -0.24166525196E-01 -0.85250604759E-02 -0.14396786620E-01  0.10145367174E+01  0.10141108351E+01 0.  0.
     999903    2    3    3    0    0 -0.66113783827E-01  0.59884342876E-01 -0.89064972377E-01  0.12773642595E+00  0.20660548806E-01 0.  0.
         14    1    1    2    0    0  0.24166525196E-01  0.85250604759E-02  0.14396786620E-01  0.29393282585E-01  0.00000000000E+00 0.  1.
     999901    1    3    3    0    0  0.41947258631E-01 -0.68409403352E-01  0.74668185756E-01  0.88680029146E+00  0.88000000000E+00 0. -1.
        -11    1    4    4    0    0 -0.13187507291E-01  0.10410647770E-01 -0.68443199889E-02  0.18149318793E-01  0.51100000000E-03 0.  1.
         11    1    4    4    0    0 -0.52926276536E-01  0.49473695106E-01 -0.82220652388E-01  0.10958710716E+00  0.51100000000E-03 0. -1.
</event>
<event>
 8    1  0.1066842E+005  0.1043930E+01  0.7957747E-01            NaN
         13   -1    0    0    0    0  0.00000000000E+00  0.00000000000E+00  0.74505805969E-08  0.10566000000E+00  0.10566000000E+00 0. -1.
     999900   -1    0    0    0    0 -0.00000000000E+00 -0.00000000000E+00 -0.74505805969E-08  0.93827000000E+00  0.93827000000E+00 0.  1.
     999902    2    1    2    0    0 -0.19647508981E-01 -0.58113923700E-02  0.10666295412E-01  0.10208309362E+01  0.10205695633E+01 0.  0.
     999903    2    3    3    0    0  0.87786259414E-01  0.62422109084E-01 -0.67694402063E-01  0.12822899568E+00  0.16037338277E-01 0.  0.
         14    1    1    2    0    0  0.19647508981E-01  0.58113923700E-02 -0.10666295412E-01  0.23099063796E-01  0.00000000000E+00 0.  1.
     999901    1    3    3    0    0 -0.10743376840E+00 -0.68233501454E-01  0.78360697475E-01  0.89260194052E+00  0.88000000000E+00 0. -1.
        -11    1    4    4    0    0  0.17889506452E-01  0.72307814540E-02 -0.73737004130E-02  0.20662797978E-01  0.51100000000E-03 0. -1.
         11    1    4    4    0    0  0.69896752963E-01  0.55191327630E-01 -0.60320701650E-01  0.10756619771E+00  0.51100000000E-03 0.  1.
</event>
<event>
 8    1  0.1066842E+005  0.1043930E+01  0.7957747E-01            NaN
         13   -1    0    0    0    0  0.00000000000E+00  0.00000000000E+00  0.74505805969E-08  0.10566000000E+00  0.10566000000E+00 0. -1.
     999900   -1    0    0    0    0 -0.00000000000E+00 -0.00000000000E+00 -0.74505805969E-08  0.93827000000E+00  0.93827000000E+00 0.  1.
     999902    2    1    2    0    0  0.23127054286E-01  0.35345598095E-02 -0.35404653714E-02  0.10202680337E+01  0.10199936137E+01 0.  0.
     999903    2    3    3    0    0  0.63035636655E-01  0.35478317903E-01  0.10795471486E+00  0.13176126738E+00  0.21785513333E-01 0.  0.
         14    1    1    2    0    0 -0.23127054286E-01 -0.35345598095E-02  0.35404653714E-02  0.23661966276E-01  0.00000000000E+00 0. -1.
     999901    1    3    3    0    0 -0.39908582369E-01 -0.31943758093E-01 -0.11149518023E+00  0.88850676635E+00  0.88000000000E+00 0.  1.
        -11    1    4    4    0    0  0.26257258921E-01  0.89392115858E-02  0.57964852031E-01  0.64261484124E-01  0.51100000000E-03 0. -1.
         11    1    4    4    0    0  0.36778377734E-01  0.26539106317E-01  0.49989862827E-01  0.67499783254E-01  0.51100000000E-03 0.  1.
</event>
<event>
 8    1  0.1066842E+005  0.1043930E+01  0.7957747E-01            NaN
         13   -1    0    0    0    0  0.00000000000E+00  0.00000000000E+00  0.74505805969E-08  0.10566000000E+00  0.10566000000E+00 0. -1.
     999900   -1    0    0    0    0 -0.00000000000E+00 -0.00000000000E+00 -0.74505805969E-08  0.93827000000E+00  0.93827000000E+00 0.  1.
     999902    2    1    2    0    0 -0.10677753909E-01  0.21601203999E-01  0.29086564469E-03  0.10198320531E+01  0.10195473042E+01 0.  0.
     999903    2    3    3    0    0 -0.10422990236E+00 -0.71803001028E-01 -0.19752339481E-01  0.12973201372E+00  0.20510898768E-01 0.  0.
         14    1    1    2    0    0  0.10677753909E-01 -0.21601203999E-01 -0.29086564469E-03  0.24097946916E-01  0.00000000000E+00 0. -1.
     999901    1    3    3    0    0  0.93552148447E-01  0.93404205027E-01  0.20043205125E-01  0.89010003936E+00  0.88000000000E+00 0.  1.
        -11    1    4    4    0    0 -0.76922228460E-01 -0.43581845597E-01 -0.19108354372E-01  0.90453285317E-01  0.51100000000E-03 0. -1.
         11    1    4    4    0    0 -0.27307673896E-01 -0.28221155431E-01 -0.64398510875E-03  0.39278728407E-01  0.51100000000E-03 0.  1.
</event>
<event>
 8    1  0.1066842E+005  0.1043930E+01  0.7957747E-01            NaN
         13   -1    0    0    0    0  0.00000000000E+00  0.00000000000E+00  0.74505805969E-08  0.10566000000E+00  0.10566000000E+00 0. -1.
     999900   -1    0    0    0    0 -0.00000000000E+00 -0.00000000000E+00 -0.74505805969E-08  0.93827000000E+00  0.93827000000E+00 0.  1.
     999902    2    1    2    0    0  0.20297151314E-01 -0.12417540371E-01  0.30832950526E-02  0.10199367433E+01  0.10196544924E+01 0.  0.
     999903    2    3    3    0    0  0.75528283120E-01  0.16364448889E-01  0.10512817973E+00  0.13185339171E+00  0.19001736571E-01 0.  0.
         14    1    1    2    0    0 -0.20297151314E-01  0.12417540371E-01 -0.30832950526E-02  0.23993256735E-01  0.00000000000E+00 0. -1.
     999901    1    3    3    0    0 -0.55231131806E-01 -0.28781989261E-01 -0.10204488468E+00  0.88808335156E+00  0.88000000000E+00 0.  1.
        -11    1    4    4    0    0  0.31084205936E-01  0.98765618240E-02  0.29978924995E-01  0.44303175925E-01  0.51100000000E-03 0.  1.
         11    1    4    4    0    0  0.44444077184E-01  0.64878870653E-02  0.75149254735E-01  0.87550215782E-01  0.51100000000E-03 0. -1.
</event>
<event>
 8    1  0.1066842E+005  0.1043930E+01  0.7957747E-01            NaN
         13   -1    0    0    0    0  0.00000000000E+00  0.00000000000E+00  0.74505805969E-08  0.10566000000E+00  0.10566000000E+00 0. -1.
     999900   -1    0    0    0    0 -0.00000000000E+00 -0.00000000000E+00 -0.74505805969E-08  0.93827000000E+00  0.93827000000E+00 0. -1.
     999902    2    1    2    0    0  0.13681645742E-01 -0.57232520380E-02 -0.18330806596E-01  0.10203511638E+01  0.10200786911E+01 0.  0.
     999903    2    3    3    0    0  0.13363558008E-01  0.11981109254E+00 -0.47043246312E-01  0.13097870135E+00  0.20225493949E-01 0.  0.
         14    1    1    2    0    0 -0.13681645742E-01  0.57232520380E-02  0.18330806596E-01  0.23578836158E-01  0.00000000000E+00 0. -1.
     999901    1    3    3    0    0  0.31808773412E-03 -0.12553434458E+00  0.28712439716E-01  0.88937246249E+00  0.88000000000E+00 0.  1.
        -11    1    4    4    0    0  0.96136740860E-02  0.47927136313E-01 -0.28731037950E-01  0.56702440752E-01  0.51100000000E-03 0. -1.
         11    1    4    4    0    0  0.37498839217E-02  0.71883956226E-01 -0.18312208362E-01  0.74276260596E-01  0.51100000000E-03 0.  1.
</event>
<event>
 8    1  0.1066842E+005  0.1043930E+01  0.7957747E-01            NaN
         13   -1    0    0    0    0  0.00000000000E+00  0.00000000000E+00  0.74505805969E-08  0.10566000000E+00  0.10566000000E+00 0. -1.
     999900   -1    0    0    0    0 -0.00000000000E+00 -0.00000000000E+00 -0.74505805969E-08  0.93827000000E+00  0.93827000000E+00 0. -1.
     999902    2    1    2    0    0  0.44288789699E-02  0.43096901407E-02 -0.23119344832E-01  0.10199990054E+01  0.10197182348E+01 0.  0.
     999903    2    3    3    0    0  0.44788817133E-03 -0.77330934020E-01 -0.10576012578E+00  0.13235575583E+00  0.18776792453E-01 0.  0.
         14    1    1    2    0    0 -0.44288789699E-02 -0.43096901407E-02  0.23119344832E-01  0.23930994620E-01  0.00000000000E+00 0. -1.
     999901    1    3    3    0    0  0.39809907985E-02  0.81640624160E-01  0.82640780951E-01  0.88764324955E+00  0.88000000000E+00 0.  1.
        -11    1    4    4    0    0  0.81099851990E-02 -0.19538766314E-01 -0.31421917973E-01  0.37883153235E-01  0.51100000000E-03 0. -1.
         11    1    4    4    0    0 -0.76620970277E-02 -0.57792167706E-01 -0.74338207810E-01  0.94472602592E-01  0.51100000000E-03 0.  1.
</event>
<event>
 8    1  0.1066842E+005  0.1043930E+01  0.7957747E-01            NaN
         13   -1    0    0    0    0  0.00000000000E+00  0.00000000000E+00  0.74505805969E-08  0.10566000000E+00  0.10566000000E+00 0. -1.
     999900   -1    0    0    0    0 -0.00000000000E+00 -0.00000000000E+00 -0.74505805969E-08  0.93827000000E+00  0.93827000000E+00 0. -1.
     999902    2    1    2    0    0  0.17005732491E-01  0.30017916277E-02  0.40035855688E-02  0.10262033424E+01  0.10260502257E+01 0.  0.
     999903    2    3    3    0    0  0.38353886646E-01  0.18668474998E-01 -0.12762474367E+00  0.13601953800E+00  0.19842049818E-01 0.  0.
         14    1    1    2    0    0 -0.17005732491E-01 -0.30017916277E-02 -0.40035855688E-02  0.17726657551E-01  0.00000000000E+00 0. -1.
     999901    1    3    3    0    0 -0.21348154156E-01 -0.15666683370E-01  0.13162832924E+00  0.89018380445E+00  0.88000000000E+00 0.  1.
        -11    1    4    4    0    0  0.28463646674E-01  0.58194144322E-02 -0.62811482567E-01  0.69206851031E-01  0.51100000000E-03 0. -1.
         11    1    4    4    0    0  0.98902399725E-02  0.12849060565E-01 -0.64813261100E-01  0.66812686965E-01  0.51100000000E-03 0.  1.
</event>
<event>
 8    1  0.1066842E+005  0.1043930E+01  0.7957747E-01            NaN
         13   -1    0    0    0    0  0.00000000000E+00  0.00000000000E+00  0.74505805969E-08  0.10566000000E+00  0.10566000000E+00 0.  1.
     999900   -1    0    0    0    0 -0.00000000000E+00 -0.00000000000E+00 -0.74505805969E-08  0.93827000000E+00  0.93827000000E+00 0.  1.
     999902    2    1    2    0    0 -0.22334479435E-01  0.65531024674E-02  0.34652085984E-02  0.10203974737E+01  0.10201260827E+01 0.  0.
     999903    2    3    3    0    0  0.97938441534E-01 -0.45962454887E-01 -0.65257075661E-01  0.12801515001E+00  0.20613275283E-01 0.  0.
         14    1    1    2    0    0  0.22334479435E-01 -0.65531024674E-02 -0.34652085984E-02  0.23532526303E-01  0.00000000000E+00 0. -1.
     999901    1    3    3    0    0 -0.12027292097E+00  0.52515557354E-01  0.68722284259E-01  0.89238232369E+00  0.88000000000E+00 0.  1.
        -11    1    4    4    0    0  0.31562815489E-01 -0.13130429037E-01 -0.32030580655E-01  0.46849105716E-01  0.51100000000E-03 0. -1.
         11    1    4    4    0    0  0.66375626046E-01 -0.32832025850E-01 -0.33226495005E-01  0.81166044290E-01  0.51100000000E-03 0.  1.
</event>
<event>
 8    1  0.1066842E+005  0.1043930E+01  0.7957747E-01            NaN
         13   -1    0    0    0    0  0.00000000000E+00  0.00000000000E+00  0.74505805969E-08  0.10566000000E+00  0.10566000000E+00 0.  1.
     999900   -1    0    0    0    0 -0.00000000000E+00 -0.00000000000E+00 -0.74505805969E-08  0.93827000000E+00  0.93827000000E+00 0. -1.
     999902    2    1    2    0    0  0.35384130889E-02 -0.23494752472E-01  0.20904765720E-02  0.10200785042E+01  0.10197996180E+01 0.  0.
     999903    2    3    3    0    0  0.64490531848E-01 -0.66462388099E-01  0.92348819204E-01  0.13232406351E+00  0.20126491173E-01 0.  0.
         14    1    1    2    0    0 -0.35384130889E-02  0.23494752472E-01 -0.20904765720E-02  0.23851495828E-01  0.00000000000E+00 0.  1.
     999901    1    3    3    0    0 -0.60952118759E-01  0.42967635627E-01 -0.90258342632E-01  0.88775444066E+00  0.88000000000E+00 0. -1.
        -11    1    4    4    0    0  0.15790616661E-01 -0.28296928105E-01  0.25530246979E-01  0.41256688507E-01  0.51100000000E-03 0. -1.
         11    1    4    4    0    0  0.48699915187E-01 -0.38165459993E-01  0.66818572225E-01  0.91067375008E-01  0.51100000000E-03 0.  1.
</event>
<event>
 8    1  0.1066842E+005  0.1043930E+01  0.7957747E-01            NaN
         13   -1    0    0    0    0  0.00000000000E+00  0.00000000000E+00  0.74505805969E-08  0.10566000000E+00  0.10566000000E+00 0. -1.
     999900   -1    0    0    0    0 -0.00000000000E+00 -0.00000000000E+00 -0.74505805969E-08  0.93827000000E+00  0.93827000000E+00 0.  1.
     999902    2    1    2    0    0  0.11889922350E-01  0.16865726335E-01 -0.12662750381E-01  0.10197190887E+01  0.10194316317E+01 0.  0.
     999903    2    3    3    0    0 -0.92942488121E-02  0.82857559558E-01 -0.10113611219E+00  0.13257128428E+00  0.19871436521E-01 0.  0.
         14    1    1    2    0    0 -0.11889922350E-01 -0.16865726335E-01  0.12662750381E-01  0.24210911290E-01  0.00000000000E+00 0.  1.
     999901    1    3    3    0    0  0.21184171162E-01 -0.65991833222E-01  0.88473361808E-01  0.88714780443E+00  0.88000000000E+00 0. -1.
        -11    1    4    4    0    0 -0.68083107103E-02  0.65102310465E-01 -0.65106845010E-01  0.92324570461E-01  0.51100000000E-03 0.  1.
         11    1    4    4    0    0 -0.24859381018E-02  0.17755249092E-01 -0.36029267178E-01  0.40246713816E-01  0.51100000000E-03 0. -1.
</event>
<event>
 8    1  0.1066842E+005  0.1043930E+01  0.7957747E-01            NaN
         13   -1    0    0    0    0  0.00000000000E+00  0.00000000000E+00  0.74505805969E-08  0.10566000000E+00  0.10566000000E+00 0.  1.
     999900   -1    0    0    0    0 -0.00000000000E+00 -0.00000000000E+00 -0.74505805969E-08  0.93827000000E+00  0.93827000000E+00 0. -1.
     999902    2    1    2    0    0  0.14709165940E-01 -0.12560576876E-01 -0.13461306924E-01  0.10203644650E+01  0.10200923032E+01 0.  0.
     999903    2    3    3    0    0  0.92234633844E-01  0.90566979874E-01  0.51023349631E-03  0.13084735161E+00  0.20277168460E-01 0.  0.
         14    1    1    2    0    0 -0.14709165940E-01  0.12560576876E-01  0.13461306924E-01  0.23565534966E-01  0.00000000000E+00 0. -1.
     999901    1    3    3    0    0 -0.77525467904E-01 -0.10312755675E+00 -0.13971540421E-01  0.88951711343E+00  0.88000000000E+00 0.  1.
        -11    1    4    4    0    0  0.79530992614E-01  0.70799477989E-01  0.62166260208E-02  0.10666139147E+00  0.51100000000E-03 0. -1.
         11    1    4    4    0    0  0.12703641230E-01  0.19767501885E-01 -0.57063925245E-02  0.24185960141E-01  0.51100000000E-03 0.  1.
</event>
<event>
 8    1  0.1066842E+005  0.1043930E+01  0.7957747E-01            NaN
         13   -1    0    0    0    0  0.00000000000E+00  0.00000000000E+00  0.74505805969E-08  0.10566000000E+00  0.10566000000E+00 0. -1.
     999900   -1    0    0    0    0 -0.00000000000E+00 -0.00000000000E+00 -0.74505805969E-08  0.93827000000E+00  0.93827000000E+00 0. -1.
     999902    2    1    2    0    0 -0.60329652140E-02 -0.60369639204E-02 -0.23693652847E-01  0.10187460609E+01  0.10184347332E+01 0.  0.
     999903    2    3    3    0    0  0.97192487423E-01 -0.18125356735E-01  0.76318622840E-01  0.12700390165E+00  0.23033685654E-01 0.  0.
         14    1    1    2    0    0  0.60329652140E-02  0.60369639204E-02  0.23693652847E-01  0.25183939086E-01  0.00000000000E+00 0. -1.
     999901    1    3    3    0    0 -0.10322545264E+00  0.12088392815E-01 -0.10001227569E+00  0.89174215926E+00  0.88000000000E+00 0.  1.
        -11    1    4    4    0    0  0.81091620386E-01 -0.22830204437E-01  0.58748736268E-01  0.10270707992E+00  0.51100000000E-03 0. -1.
         11    1    4    4    0    0  0.16100867037E-01  0.47048477017E-02  0.17569886572E-01  0.24296821734E-01  0.51100000000E-03 0.  1.
</event>
<event>
 8    1  0.1066842E+005  0.1043930E+01  0.7957747E-01            NaN
         13   -1    0    0    0    0  0.00000000000E+00  0.00000000000E+00  0.74505805969E-08  0.10566000000E+00  0.10566000000E+00 0.  1.
     999900   -1    0    0    0    0 -0.00000000000E+00 -0.00000000000E+00 -0.74505805969E-08  0.93827000000E+00  0.93827000000E+00 0.  1.
     999902    2    1    2    0    0  0.11446306948E-01 -0.80479841124E-02 -0.19650094660E-01  0.10198071019E+01  0.10195217560E+01 0.  0.
     999903    2    3    3    0    0  0.39570629778E-01 -0.11968938205E+00 -0.34208296299E-01  0.13218853492E+00  0.20303160134E-01 0.  0.
         14    1    1    2    0    0 -0.11446306948E-01  0.80479841124E-02  0.19650094660E-01  0.24122898068E-01  0.00000000000E+00 0.  1.
     999901    1    3    3    0    0 -0.28124322830E-01  0.11164139794E+00  0.14558201639E-01  0.88761856701E+00  0.88000000000E+00 0. -1.
        -11    1    4    4    0    0  0.40721453540E-01 -0.10092291036E+00 -0.30430986385E-01  0.11300432146E+00  0.51100000000E-03 0. -1.
         11    1    4    4    0    0 -0.11508237623E-02 -0.18766471688E-01 -0.37773099140E-02  0.19184213462E-01  0.51100000000E-03 0.  1.
</event>
<event>
 8    1  0.1066842E+005  0.1043930E+01  0.7957747E-01            NaN
         13   -1    0    0    0    0  0.00000000000E+00  0.00000000000E+00  0.74505805969E-08  0.10566000000E+00  0.10566000000E+00 0. -1.
     999900   -1    0    0    0    0 -0.00000000000E+00 -0.00000000000E+00 -0.74505805969E-08  0.93827000000E+00  0.93827000000E+00 0. -1.
     999902    2    1    2    0    0  0.34709973376E-03  0.11922974422E-01  0.20900580213E-01  0.10198652530E+01  0.10195812975E+01 0.  0.
     999903    2    3    3    0    0 -0.10505706517E+00 -0.23826916651E-01 -0.67181985055E-01  0.12849180091E+00  0.19799365817E-01 0.  0.
         14    1    1    2    0    0 -0.34709973376E-03 -0.11922974422E-01 -0.20900580213E-01  0.24064747049E-01  0.00000000000E+00 0.  1.
     999901    1    3    3    0    0  0.10540416491E+00  0.35749891073E-01  0.88082565268E-01  0.89137345204E+00  0.88000000000E+00 0. -1.
        -11    1    4    4    0    0 -0.58491524404E-01 -0.19765918155E-01 -0.29391987037E-01  0.68382014964E-01  0.51100000000E-03 0.  1.
         11    1    4    4    0    0 -0.46565540768E-01 -0.40609984964E-02 -0.37789998018E-01  0.60109785950E-01  0.51100000000E-03 0. -1.
</event>
<event>
 8    1  0.1066842E+005  0.1043930E+01  0.7957747E-01            NaN
         13   -1    0    0    0    0  0.00000000000E+00  0.00000000000E+00  0.74505805969E-08  0.10566000000E+00  0.10566000000E+00 0.  1.
     999900   -1    0    0    0    0 -0.00000000000E+00 -0.00000000000E+00 -0.74505805969E-08  0.93827000000E+00  0.93827000000E+00 0. -1.
     999902    2    1    2    0    0 -0.76356400303E-02 -0.17064799328E-01 -0.14521251440E-01  0.10202577141E+01  0.10199830519E+01 0.  0.
     999903    2    3    3    0    0  0.58358616978E-01  0.10567544465E+00 -0.40487096134E-01  0.12891342906E+00  0.20160343742E-01 0.  0.
         14    1    1    2    0    0  0.76356400303E-02  0.17064799328E-01  0.14521251440E-01  0.23672285867E-01  0.00000000000E+00 0.  1.
     999901    1    3    3    0    0 -0.65994257009E-01 -0.12274024398E+00  0.25965844694E-01  0.89134428508E+00  0.88000000000E+00 0.  1.
        -11    1    4    4    0    0  0.43732267404E-01  0.66462725363E-01 -0.34151825569E-01  0.86581830575E-01  0.51100000000E-03 0. -1.
         11    1    4    4    0    0  0.14626349574E-01  0.39212719288E-01 -0.63352705645E-02  0.42331598481E-01  0.51100000000E-03 0.  1.
</event>
<event>
 8    1  0.1066842E+005  0.1043930E+01  0.7957747E-01            NaN
         13   -1    0    0    0    0  0.00000000000E+00  0.00000000000E+00  0.74505805969E-08  0.10566000000E+00  0.10566000000E+00 0.  1.
     999900   -1    0    0    0    0 -0.00000000000E+00 -0.00000000000E+00 -0.74505805969E-08  0.93827000000E+00  0.93827000000E+00 0. -1.
     999902    2    1    2    0    0  0.16750669637E-01 -0.25225574427E-02  0.17292429398E-01  0.10197230517E+01  0.10194356899E+01 0.  0.
     999903    2    3    3    0    0 -0.56979931273E-01 -0.72330955503E-01 -0.86285011206E-01  0.12784991046E+00  0.20543046342E-01 0.  0.
         14    1    1    2    0    0 -0.16750669637E-01  0.25225574427E-02 -0.17292429398E-01  0.24206948255E-01  0.00000000000E+00 0. -1.
     999901    1    3    3    0    0  0.73730600910E-01  0.69808398061E-01  0.10357744060E+00  0.89187314129E+00  0.88000000000E+00 0.  1.
        -11    1    4    4    0    0 -0.79018793626E-02 -0.10729525500E-01 -0.23919240236E-01  0.27385280524E-01  0.51100000000E-03 0. -1.
         11    1    4    4    0    0 -0.49078051910E-01 -0.61601430004E-01 -0.62365770970E-01  0.10046462993E+00  0.51100000000E-03 0.  1.
</event>
<event>
 8    1  0.1066842E+005  0.1043930E+01  0.7957747E-01            NaN
         13   -1    0    0    0    0  0.00000000000E+00  0.00000000000E+00  0.74505805969E-08  0.10566000000E+00  0.10566000000E+00 0.  1.
     999900   -1    0    0    0    0 -0.00000000000E+00 -0.00000000000E+00 -0.74505805969E-08  0.93827000000E+00  0.93827000000E+00 0.  1.
     999902    2    1    2    0    0  0.15282560074E-01 -0.12982488630E-01 -0.13155643774E-01  0.10199472433E+01  0.10196652424E+01 0.  0.
     999903    2    3    3    0    0 -0.98587096229E-02 -0.17150116855E-01 -0.12900661539E+00  0.13198840411E+00  0.19670062053E-01 0.  0.
         14    1    1    2    0    0 -0.15282560074E-01  0.12982488630E-01  0.13155643774E-01  0.23982756650E-01  0.00000000000E+00 0.  1.
     999901    1    3    3    0    0  0.25141269696E-01  0.41676282247E-02  0.11585097161E+00  0.88795883924E+00  0.88000000000E+00 0. -1.
        -11    1    4    4    0    0 -0.14649035679E-01 -0.17309394698E-01 -0.96721645578E-01  0.99345594947E-01  0.51100000000E-03 0.  1.
         11    1    4    4    0    0  0.47903260565E-02  0.15927784348E-03 -0.32284969810E-01  0.32642809159E-01  0.51100000000E-03 0. -1.
</event>
<event>
 8    1  0.1066842E+005  0.1043930E+01  0.7957747E-01            NaN
         13   -1    0    0    0    0  0.00000000000E+00  0.00000000000E+00  0.74505805969E-08  0.10566000000E+00  0.10566000000E+00 0. -1.
     999900   -1    0    0    0    0 -0.00000000000E+00 -0.00000000000E+00 -0.74505805969E-08  0.93827000000E+00  0.93827000000E+00 0.  1.
     999902    2    1    2    0    0 -0.13001472826E-01  0.46779008191E-02 -0.19151515707E-01  0.10203142932E+01  0.10200409577E+01 0.  0.
     999903    2    3    3    0    0  0.59125099764E-01 -0.94980538151E-01  0.59151546844E-01  0.12831349922E+00  0.21174714613E-01 0.  0.
         14    1    1    2    0    0  0.13001472826E-01 -0.46779008191E-02  0.19151515707E-01  0.23615706756E-01  0.00000000000E+00 0. -1.
     999901    1    3    3    0    0 -0.72126572590E-01  0.99658438970E-01 -0.78303062551E-01  0.89200079402E+00  0.88000000000E+00 0. -1.
        -11    1    4    4    0    0  0.36753785939E-01 -0.73078846215E-01  0.49201384757E-01  0.95458870347E-01  0.51100000000E-03 0.  1.
         11    1    4    4    0    0  0.22371313825E-01 -0.21901691935E-01  0.99501620867E-02  0.32854628874E-01  0.51100000000E-03 0. -1.
</event>
<event>
 8    1  0.1066842E+005  0.1043930E+01  0.7957747E-01            NaN
         13   -1    0    0    0    0  0.00000000000E+00  0.00000000000E+00  0.74505805969E-08  0.10566000000E+00  0.10566000000E+00 0.  1.
     999900   -1    0    0    0    0 -0.00000000000E+00 -0.00000000000E+00 -0.74505805969E-08  0.93827000000E+00  0.93827000000E+00 0. -1.
     999902    2    1    2    0    0 -0.72794299026E-02 -0.29865763474E-02  0.22503781515E-01  0.10200903289E+01  0.10198117224E+01 0.  0.
     999903    2    3    3    0    0  0.45478485269E-01 -0.11363695721E-01 -0.11699868855E+00  0.12750167057E+00  0.19249848647E-01 0.  0.
         14    1    1    2    0    0  0.72794299026E-02  0.29865763474E-02 -0.22503781515E-01  0.23839671149E-01  0.00000000000E+00 0. -1.
     999901    1    3    3    0    0 -0.52757915171E-01  0.83771193737E-02  0.13950247006E+00  0.89258865828E+00  0.88000000000E+00 0.  1.
        -11    1    4    4    0    0  0.25208834614E-01  0.24742360343E-02 -0.48167614992E-01  0.54424143922E-01  0.51100000000E-03 0.  1.
         11    1    4    4    0    0  0.20269650654E-01 -0.13837931755E-01 -0.68831073556E-01  0.73077526647E-01  0.51100000000E-03 0. -1.
</event>
<event>
 8    1  0.1066842E+005  0.1043930E+01  0.7957747E-01            NaN
         13   -1    0    0    0    0  0.00000000000E+00  0.00000000000E+00  0.74505805969E-08  0.10566000000E+00  0.10566000000E+00 0.  1.
     999900   -1    0    0    0    0 -0.00000000000E+00 -0.00000000000E+00 -0.74505805969E-08  0.93827000000E+00  0.93827000000E+00 0.  1.
     999902    2    1    2    0    0 -0.17829100055E-01 -0.13681531788E-01 -0.77418816419E-02  0.10201603165E+01  0.10198833627E+01 0.  0.
     999903    2    3    3    0    0 -0.67015435696E-01  0.15432898566E-01 -0.11168323462E+00  0.13220156156E+00  0.16579053176E-01 0.  0.
         14    1    1    2    0    0  0.17829100055E-01  0.13681531788E-01  0.77418816419E-02  0.23769683468E-01  0.00000000000E+00 0.  1.
     999901    1    3    3    0    0  0.49186335641E-01 -0.29114430354E-01  0.10394135298E+00  0.88795875497E+00  0.88000000000E+00 0. -1.
        -11    1    4    4    0    0 -0.24369658212E-01  0.81412081537E-02 -0.28073252127E-01  0.38059533859E-01  0.51100000000E-03 0. -1.
         11    1    4    4    0    0 -0.42645777483E-01  0.72916904121E-02 -0.83609982495E-01  0.94142027703E-01  0.51100000000E-03 0.  1.
</event>
<event>
 8    1  0.1066842E+005  0.1043930E+01  0.7957747E-01            NaN
         13   -1    0    0    0    0  0.00000000000E+00  0.00000000000E+00  0.74505805969E-08  0.10566000000E+00  0.10566000000E+00 0. -1.
     999900   -1    0    0    0    0 -0.00000000000E+00 -0.00000000000E+00 -0.74505805969E-08  0.93827000000E+00  0.93827000000E+00 0.  1.
     999902    2    1    2    0    0 -0.16458540882E-01 -0.14852288717E-01 -0.97043495132E-02  0.10197298255E+01  0.10194426264E+01 0.  0.
     999903    2    3    3    0    0  0.10055098078E+00  0.75404299619E-01  0.14286223941E-02  0.12733897894E+00  0.20417307825E-01 0.  0.
         14    1    1    2    0    0  0.16458540882E-01  0.14852288717E-01  0.97043495132E-02  0.24200174536E-01  0.00000000000E+00 0. -1.
     999901    1    3    3    0    0 -0.11700952166E+00 -0.90256588336E-01 -0.11132971907E-01  0.89239084652E+00  0.88000000000E+00 0.  1.
        -11    1    4    4    0    0  0.53612538179E-01  0.37436970930E-01 -0.92028861986E-02  0.66036242154E-01  0.51100000000E-03 0.  1.
         11    1    4    4    0    0  0.46938442599E-01  0.37967328689E-01  0.10631508593E-01  0.61302736786E-01  0.51100000000E-03 0. -1.
</event>
<event>
 8    1  0.1066842E+005  0.1043930E+01  0.7957747E-01            NaN
         13   -1    0    0    0    0  0.00000000000E+00  0.00000000000E+00  0.74505805969E-08  0.10566000000E+00  0.10566000000E+00 0.  1.
     999900   -1    0    0    0    0 -0.00000000000E+00 -0.00000000000E+00 -0.74505805969E-08  0.93827000000E+00  0.93827000000E+00 0. -1.
     999902    2    1    2    0    0 -0.15778882421E-01  0.68856388331E-02 -0.15760770119E-01  0.10205893268E+01  0.10203223936E+01 0.  0.
     999903    2    3    3    0    0 -0.56792091295E-02  0.12613184417E+00  0.29718704297E-01  0.13132556191E+00  0.20535488653E-01 0.  0.
         14    1    1    2    0    0  0.15778882421E-01 -0.68856388331E-02  0.15760770119E-01  0.23340673241E-01  0.00000000000E+00 0.  1.
     999901    1    3    3    0    0 -0.10099673291E-01 -0.11924620534E+00 -0.45479474416E-01  0.88926376485E+00  0.88000000000E+00 0. -1.
        -11    1    4    4    0    0  0.77139523846E-02  0.44252904674E-01  0.91537437833E-02  0.45846229722E-01  0.51100000000E-03 0. -1.
         11    1    4    4    0    0 -0.13393161514E-01  0.81878939498E-01  0.20564960513E-01  0.85479332184E-01  0.51100000000E-03 0.  1.
</event>
<event>
 8    1  0.1066842E+005  0.1043930E+01  0.7957747E-01            NaN
         13   -1    0    0    0    0  0.00000000000E+00  0.00000000000E+00  0.74505805969E-08  0.10566000000E+00  0.10566000000E+00 0.  1.
     999900   -1    0    0    0    0 -0.00000000000E+00 -0.00000000000E+00 -0.74505805969E-08  0.93827000000E+00  0.93827000000E+00 0.  1.
     999902    2    1    2    0    0  0.16706758183E-01  0.57659476772E-02 -0.15139237718E-01  0.10206585918E+01  0.10203932588E+01 0.  0.
     999903    2    3    3    0    0 -0.45465326661E-01  0.72119186703E-01  0.94937434471E-01  0.12915144418E+00  0.19967625096E-01 0.  0.
         14    1    1    2    0    0 -0.16706758183E-01 -0.57659476772E-02  0.15139237718E-01  0.23271408214E-01  0.00000000000E+00 0.  1.
     999901    1    3    3    0    0  0.62172084843E-01 -0.66353239026E-01 -0.11007667219E+00  0.89150714760E+00  0.88000000000E+00 0.  1.
        -11    1    4    4    0    0 -0.26398920329E-01  0.44948157854E-01  0.71622764223E-01  0.88585108032E-01  0.51100000000E-03 0. -1.
         11    1    4    4    0    0 -0.19066406332E-01  0.27171028849E-01  0.23314670248E-01  0.40566336153E-01  0.51100000000E-03 0.  1.
</event>
<event>
 8    1  0.1066842E+005  0.1043930E+01  0.7957747E-01            NaN
         13   -1    0    0    0    0  0.00000000000E+00  0.00000000000E+00  0.74505805969E-08  0.10566000000E+00  0.10566000000E+00 0.  1.
     999900   -1    0    0    0    0 -0.00000000000E+00 -0.00000000000E+00 -0.74505805969E-08  0.93827000000E+00  0.93827000000E+00 0.  1.
     999902    2    1    2    0    0 -0.58611576820E-02  0.22976464790E-01  0.49291123202E-02  0.10197108495E+01  0.10194231944E+01 0.  0.
     999903    2    3    3    0    0  0.97914367042E-01  0.35261988041E-01  0.76518020536E-01  0.13064096168E+00  0.19530036568E-01 0.  0.
         14    1    1    2    0    0  0.58611576820E-02 -0.22976464790E-01 -0.49291123202E-02  0.24219150519E-01  0.00000000000E+00 0.  1.
     999901    1    3    3    0    0 -0.10377552472E+00 -0.12285523251E-01 -0.71588908216E-01  0.88906988780E+00  0.88000000000E+00 0.  1.
        -11    1    4    4    0    0  0.75212995075E-02 -0.23111048572E-02  0.73372797583E-02  0.10770698547E-01  0.51100000000E-03 0.  1.
         11    1    4    4    0    0  0.90393067534E-01  0.37573092898E-01  0.69180740777E-01  0.11987026313E+00  0.51100000000E-03 0. -1.
</event>
<event>
 8    1  0.1066842E+005  0.1043930E+01  0.7957747E-01            NaN
         13   -1    0    0    0    0  0.00000000000E+00  0.00000000000E+00  0.74505805969E-08  0.10566000000E+00  0.10566000000E+00 0.  1.
     999900   -1    0    0    0    0 -0.00000000000E+00 -0.00000000000E+00 -0.74505805969E-08  0.93827000000E+00  0.93827000000E+00 0. -1.
     999902    2    1    2    0    0 -0.17122220423E-01 -0.15422699256E-01  0.53738828565E-02  0.10202676100E+01  0.10199931800E+01 0.  0.
     999903    2    3    3    0    0 -0.26254382376E-01  0.12452179778E+00 -0.90192670660E-02  0.12904652551E+00  0.19408447987E-01 0.  0.
         14    1    1    2    0    0  0.17122220423E-01  0.15422699256E-01 -0.53738828565E-02  0.23662390021E-01  0.00000000000E+00 0. -1.
     999901    1    3    3    0    0  0.91321619536E-02 -0.13994449703E+00  0.14393149922E-01  0.89122108447E+00  0.88000000000E+00 0.  1.
        -11    1    4    4    0    0 -0.14541424908E-01  0.10185475998E+00 -0.10861603735E-01  0.10346052738E+00  0.51100000000E-03 0. -1.
         11    1    4    4    0    0 -0.11712957468E-01  0.22667037798E-01  0.18423366693E-02  0.25585998135E-01  0.51100000000E-03 0.  1.
</event>
<event>
 8    1  0.1066842E+005  0.1043930E+01  0.7957747E-01            NaN
         13   -1    0    0    0    0  0.00000000000E+00  0.00000000000E+00  0.74505805969E-08  0.10566000000E+00  0.10566000000E+00 0.  1.
     999900   -1    0    0    0    0 -0.00000000000E+00 -0.00000000000E+00 -0.74505805969E-08  0.93827000000E+00  0.93827000000E+00 0.  1.
     999902    2    1    2    0    0 -0.14741659036E-02 -0.18489783179E-01  0.14580641591E-01  0.10203367731E+01  0.10200639638E+01 0.  0.
     999903    2    3    3    0    0  0.67817371844E-01  0.86032579058E-01  0.66975764749E-01  0.12990345703E+00  0.19706712080E-01 0.  0.
         14    1    1    2    0    0  0.14741659036E-02  0.18489783179E-01 -0.14580641591E-01  0.23593226916E-01  0.00000000000E+00 0.  1.
     999901    1    3    3    0    0 -0.69291537747E-01 -0.10452236224E+00 -0.52395123158E-01  0.89043331606E+00  0.88000000000E+00 0.  1.
        -11    1    4    4    0    0  0.43772168819E-01  0.41715010059E-01  0.42081867334E-01  0.73670139858E-01  0.51100000000E-03 0.  1.
         11    1    4    4    0    0  0.24045203025E-01  0.44317568999E-01  0.24893897415E-01  0.56233317171E-01  0.51100000000E-03 0. -1.
</event>
<event>
 8    1  0.1066842E+005  0.1043930E+01  0.7957747E-01            NaN
         13   -1    0    0    0    0  0.00000000000E+00  0.00000000000E+00  0.74505805969E-08  0.10566000000E+00  0.10566000000E+00 0.  1.
     999900   -1    0    0    0    0 -0.00000000000E+00 -0.00000000000E+00 -0.74505805969E-08  0.93827000000E+00  0.93827000000E+00 0. -1.
     999902    2    1    2    0    0 -0.10590350414E-01 -0.96006366739E-02  0.21376809547E-01  0.10182143290E+01  0.10178895442E+01 0.  0.
     999903    2    3    3    0    0 -0.57476167191E-02 -0.12829529179E+00  0.82156373529E-02  0.13013489021E+00  0.19361713749E-01 0.  0.
         14    1    1    2    0    0  0.10590350414E-01  0.96006366739E-02 -0.21376809547E-01  0.25715670958E-01  0.00000000000E+00 0. -1.
     999901    1    3    3    0    0 -0.48427336947E-02  0.11869465512E+00  0.13161172194E-01  0.88807943883E+00  0.88000000000E+00 0. -1.
        -11    1    4    4    0    0  0.32600830243E-02 -0.86054551881E-01  0.11176445814E-01  0.86840014410E-01  0.51100000000E-03 0. -1.
         11    1    4    4    0    0 -0.90076997434E-02 -0.42240739910E-01 -0.29608084607E-02  0.43294875800E-01  0.51100000000E-03 0.  1.
</event>
<event>
 8    1  0.1066842E+005  0.1043930E+01  0.7957747E-01            NaN
         13   -1    0    0    0    0  0.00000000000E+00  0.00000000000E+00  0.74505805969E-08  0.10566000000E+00  0.10566000000E+00 0. -1.
     999900   -1    0    0    0    0 -0.00000000000E+00 -0.00000000000E+00 -0.74505805969E-08  0.93827000000E+00  0.93827000000E+00 0. -1.
     999902    2    1    2    0    0 -0.57478406006E-02 -0.70322160271E-02 -0.20806652864E-01  0.10212274332E+01  0.10209750555E+01 0.  0.
     999903    2    3    3    0    0  0.11560036970E+00  0.17797085142E-01 -0.51108301716E-01  0.13203674939E+00  0.33785543792E-01 0.  0.
         14    1    1    2    0    0  0.57478406006E-02  0.70322160271E-02  0.20806652864E-01  0.22702566754E-01  0.00000000000E+00 0. -1.
     999901    1    3    3    0    0 -0.12134821030E+00 -0.24829301170E-01  0.30301648852E-01  0.88919068386E+00  0.88000000000E+00 0.  1.
        -11    1    4    4    0    0  0.71430105065E-01  0.22812667322E-01 -0.44207347909E-01  0.87047276983E-01  0.51100000000E-03 0. -1.
         11    1    4    4    0    0  0.44170264637E-01 -0.50155821790E-02 -0.69009538068E-02  0.44989472403E-01  0.51100000000E-03 0.  1.
</event>
<event>
 8    1  0.1066842E+005  0.1043930E+01  0.7957747E-01            NaN
         13   -1    0    0    0    0  0.00000000000E+00  0.00000000000E+00  0.74505805969E-08  0.10566000000E+00  0.10566000000E+00 0.  1.
     999900   -1    0    0    0    0 -0.00000000000E+00 -0.00000000000E+00 -0.74505805969E-08  0.93827000000E+00  0.93827000000E+00 0. -1.
     999902    2    1    2    0    0  0.15134309713E-01  0.16650308630E-01  0.76245680717E-02  0.10201725981E+01  0.10198959338E+01 0.  0.
     999903    2    3    3    0    0 -0.22821459466E-01 -0.29733974583E-01  0.12346511186E+00  0.13055966329E+00  0.19931472028E-01 0.  0.
         14    1    1    2    0    0 -0.15134309713E-01 -0.16650308630E-01 -0.76245680717E-02  0.23757401925E-01  0.00000000000E+00 0.  1.
     999901    1    3    3    0    0  0.37955769179E-01  0.46384283212E-01 -0.11584054379E+00  0.88961293478E+00  0.88000000000E+00 0. -1.
        -11    1    4    4    0    0 -0.11347771520E-01 -0.97510487331E-03  0.36974156716E-01  0.38692016410E-01  0.51100000000E-03 0.  1.
         11    1    4    4    0    0 -0.11473687946E-01 -0.28758869709E-01  0.86490955141E-01  0.91867646885E-01  0.51100000000E-03 0. -1.
</event>
<event>
 8    1  0.1066842E+005  0.1043930E+01  0.7957747E-01            NaN
         13   -1    0    0    0    0  0.00000000000E+00  0.00000000000E+00  0.74505805969E-08  0.10566000000E+00  0.10566000000E+00 0. -1.
     999900   -1    0    0    0    0 -0.00000000000E+00 -0.00000000000E+00 -0.74505805969E-08  0.93827000000E+00  0.93827000000E+00 0. -1.
     999902    2    1    2    0    0 -0.34239494698E-02  0.10888988927E-01  0.19400564239E-01  0.10214205486E+01  0.10211724936E+01 0.  0.
     999903    2    3    3    0    0 -0.12401575888E-01  0.11891051252E+00  0.57200801724E-01  0.13396457487E+00  0.19520925466E-01 0.  0.
         14    1    1    2    0    0  0.34239494698E-02 -0.10888988927E-01 -0.19400564239E-01  0.22509451406E-01  0.00000000000E+00 0.  1.
     999901    1    3    3    0    0  0.89776264185E-02 -0.10802152359E+00 -0.37800237486E-01  0.88745597372E+00  0.88000000000E+00 0.  1.
        -11    1    4    4    0    0 -0.67673054587E-02  0.10819988358E+00  0.47137753455E-01  0.11821691991E+00  0.51100000000E-03 0.  1.
         11    1    4    4    0    0 -0.56342704296E-02  0.10710628938E-01  0.10063048269E-01  0.15747654968E-01  0.51100000000E-03 0. -1.
</event>
<event>
 8    1  0.1066842E+005  0.1043930E+01  0.7957747E-01            NaN
         13   -1    0    0    0    0  0.00000000000E+00  0.00000000000E+00  0.74505805969E-08  0.10566000000E+00  0.10566000000E+00 0.  1.
     999900   -1    0    0    0    0 -0.00000000000E+00 -0.00000000000E+00 -0.74505805969E-08  0.93827000000E+00  0.93827000000E+00 0.  1.
     999902    2    1    2    0    0 -0.19610508453E-02 -0.23090869131E-01 -0.49341824959E-02  0.10202365386E+01  0.10199613789E+01 0.  0.
     999903    2    3    3    0    0 -0.57919330217E-01  0.99947106544E-01 -0.52809470679E-01  0.12863028259E+00  0.20318378037E-01 0.  0.
         14    1    1    2    0    0  0.19610508453E-02  0.23090869131E-01  0.49341824959E-02  0.23693461430E-01  0.00000000000E+00 0.  1.
     999901    1    3    3    0    0  0.55958279371E-01 -0.12303797567E+00  0.47875288183E-01  0.89160625598E+00  0.88000000000E+00 0. -1.
        -11    1    4    4    0    0 -0.31988559101E-01  0.55325963856E-01 -0.40197379340E-01  0.75500467659E-01  0.51100000000E-03 0.  1.
         11    1    4    4    0    0 -0.25930771115E-01  0.44621142688E-01 -0.12612091339E-01  0.53129814929E-01  0.51100000000E-03 0. -1.
</event>
<event>
 8    1  0.1066842E+005  0.1043930E+01  0.7957747E-01            NaN
         13   -1    0    0    0    0  0.00000000000E+00  0.00000000000E+00  0.74505805969E-08  0.10566000000E+00  0.10566000000E+00 0. -1.
     999900   -1    0    0    0    0 -0.00000000000E+00 -0.00000000000E+00 -0.74505805969E-08  0.93827000000E+00  0.93827000000E+00 0.  1.
     999902    2    1    2    0    0  0.16126359327E-01  0.15772890440E-01  0.44758718488E-02  0.10209326748E+01  0.10206736254E+01 0.  0.
     999903    2    3    3    0    0 -0.44992997108E-01 -0.10240140245E+00 -0.60088041090E-01  0.12859348027E+00  0.20378750503E-01 0.  0.
         14    1    1    2    0    0 -0.16126359327E-01 -0.15772890440E-01 -0.44758718488E-02  0.22997325209E-01  0.00000000000E+00 0. -1.
     999901    1    3    3    0    0  0.61119356435E-01  0.11817429289E+00  0.64563912939E-01  0.89233919452E+00  0.88000000000E+00 0. -1.
        -11    1    4    4    0    0 -0.17458520184E-01 -0.31555627718E-01 -0.29746970479E-01  0.46751480633E-01  0.51100000000E-03 0. -1.
         11    1    4    4    0    0 -0.27534476925E-01 -0.70845774734E-01 -0.30341070611E-01  0.81841999633E-01  0.51100000000E-03 0.  1.
</event>
<event>
 8    1  0.1066842E+005  0.1043930E+01  0.7957747E-01            NaN
         13   -1    0    0    0    0  0.00000000000E+00  0.00000000000E+00  0.74505805969E-08  0.10566000000E+00  0.10566000000E+00 0. -1.
     999900   -1    0    0    0    0 -0.00000000000E+00 -0.00000000000E+00 -0.74505805969E-08  0.93827000000E+00  0.93827000000E+00 0.  1.
     999902    2    1    2    0    0 -0.33527997337E-02 -0.22846573626E-01  0.48997634498E-02  0.10203246007E+01  0.10200515065E+01 0.  0.
     999903    2    3    3    0    0 -0.10921241449E+00 -0.65775123740E-02 -0.68944618375E-01  0.13076070021E+00  0.19349035335E-01 0.  0.
         14    1    1    2    0    0  0.33527997337E-02  0.22846573626E-01 -0.48997634498E-02  0.23605399263E-01  0.00000000000E+00 0.  1.
     999901    1    3    3    0    0  0.10585961476E+00 -0.16269061252E-01  0.73844381825E-01  0.88956390053E+00  0.88000000000E+00 0. -1.
        -11    1    4    4    0    0 -0.88804552292E-01 -0.19057992937E-02 -0.47267146466E-01  0.10061970401E+00  0.51100000000E-03 0. -1.
         11    1    4    4    0    0 -0.20407862201E-01 -0.46717130802E-02 -0.21677471909E-01  0.30140996202E-01  0.51100000000E-03 0.  1.
</event>
<event>
 8    1  0.1066842E+005  0.1043930E+01  0.7957747E-01            NaN
         13   -1    0    0    0    0  0.00000000000E+00  0.00000000000E+00  0.74505805969E-08  0.10566000000E+00  0.10566000000E+00 0.  1.
     999900   -1    0    0    0    0 -0.00000000000E+00 -0.00000000000E+00 -0.74505805969E-08  0.93827000000E+00  0.93827000000E+00 0. -1.
     999902    2    1    2    0    0 -0.10560013519E-01  0.17273508219E-01  0.97718889782E-02  0.10214493909E+01  0.10212019782E+01 0.  0.
     999903    2    3    3    0    0 -0.11324067702E+00  0.67808659475E-01  0.11029924619E-01  0.13403815430E+00  0.20569451602E-01 0.  0.
         14    1    1    2    0    0  0.10560013519E-01 -0.17273508219E-01 -0.97718889782E-02  0.22480609109E-01  0.00000000000E+00 0. -1.
     999901    1    3    3    0    0  0.10268066350E+00 -0.50535151256E-01 -0.12580356405E-02  0.88741123659E+00  0.88000000000E+00 0.  1.
        -11    1    4    4    0    0 -0.12639375325E-01  0.15571406037E-01  0.40545302645E-02  0.20467604433E-01  0.51100000000E-03 0. -1.
         11    1    4    4    0    0 -0.10060130170E+00  0.52237253438E-01  0.69753943542E-02  0.11357054987E+00  0.51100000000E-03 0.  1.
</event>
<event>
 8    1  0.1066842E+005  0.1043930E+01  0.7957747E-01            NaN
         13   -1    0    0    0    0  0.00000000000E+00  0.00000000000E+00  0.74505805969E-08  0.10566000000E+00  0.10566000000E+00 0.  1.
     999900   -1    0    0    0    0 -0.00000000000E+00 -0.00000000000E+00 -0.74505805969E-08  0.93827000000E+00  0.93827000000E+00 0. -1.
     999902    2    1    2    0    0  0.16640742376E-01  0.16323452629E-01 -0.41180142643E-02  0.10202587631E+01  0.10199841255E+01 0.  0.
     999903    2    3    3    0    0  0.10648353733E+00  0.48684943257E-01 -0.60659628126E-01  0.13328866896E+00  0.19424504305E-01 0.  0.
         14    1    1    2    0    0 -0.16640742376E-01 -0.16323452629E-01  0.41180142643E-02  0.23671236851E-01  0.00000000000E+00 0.  1.
     999901    1    3    3    0    0 -0.89842794954E-01 -0.32361490627E-01  0.56541613861E-01  0.88697009419E+00  0.88000000000E+00 0.  1.
        -11    1    4    4    0    0  0.19648093800E-01  0.16419917300E-01 -0.17981206837E-01  0.31292909651E-01  0.51100000000E-03 0.  1.
         11    1    4    4    0    0  0.86835443530E-01  0.32265025957E-01 -0.42678421289E-01  0.10199575931E+00  0.51100000000E-03 0. -1.
</event>
<event>
 8    1  0.1066842E+005  0.1043930E+01  0.7957747E-01            NaN
         13   -1    0    0    0    0  0.00000000000E+00  0.00000000000E+00  0.74505805969E-08  0.10566000000E+00  0.10566000000E+00 0. -1.
     999900   -1    0    0    0    0 -0.00000000000E+00 -0.00000000000E+00 -0.74505805969E-08  0.93827000000E+00  0.93827000000E+00 0.  1.
     999902    2    1    2    0    0  0.13264833108E-01  0.14155015184E-01 -0.11223938288E-01  0.10215180156E+01  0.10212721279E+01 0.  0.
     999903    2    3    3    0    0  0.31566258940E-01  0.52299940101E-01 -0.11755073940E+00  0.13410865908E+00  0.20862494302E-01 0.  0.
         14    1    1    2    0    0 -0.13264833108E-01 -0.14155015184E-01  0.11223938288E-01  0.22411984359E-01  0.00000000000E+00 0.  1.
     999901    1    3    3    0    0 -0.18301425833E-01 -0.38144924918E-01  0.10632680111E+00  0.88740935656E+00  0.88000000000E+00 0. -1.
        -11    1    4    4    0    0  0.13482467059E-01  0.37248953520E-01 -0.59643765633E-01  0.71602383733E-01  0.51100000000E-03 0. -1.
         11    1    4    4    0    0  0.18083791882E-01  0.15050986582E-01 -0.57906973763E-01  0.62506275343E-01  0.51100000000E-03 0.  1.
</event>
<event>
 8    1  0.1066842E+005  0.1043930E+01  0.7957747E-01            NaN
         13   -1    0    0    0    0  0.00000000000E+00  0.00000000000E+00  0.74505805969E-08  0.10566000000E+00  0.10566000000E+00 0.  1.
     999900   -1    0    0    0    0 -0.00000000000E+00 -0.00000000000E+00 -0.74505805969E-08  0.93827000000E+00  0.93827000000E+00 0.  1.
     999902    2    1    2    0    0 -0.11365985354E-01 -0.19580494830E-01 -0.48249301835E-02  0.10207813207E+01  0.10205188109E+01 0.  0.
     999903    2    3    3    0    0  0.90811752177E-01 -0.49589398970E-01  0.77089721819E-01  0.13058424446E+00  0.20088227106E-01 0.  0.
         14    1    1    2    0    0  0.11365985354E-01  0.19580494830E-01  0.48249301835E-02  0.23148679274E-01  0.00000000000E+00 0. -1.
     999901    1    3    3    0    0 -0.10217773753E+00  0.30008904140E-01 -0.81914652003E-01  0.89019707626E+00  0.88000000000E+00 0.  1.
        -11    1    4    4    0    0  0.73409613429E-01 -0.31896338626E-01  0.53024458350E-01  0.96011468407E-01  0.51100000000E-03 0.  1.
         11    1    4    4    0    0  0.17402138748E-01 -0.17693060344E-01  0.24065263469E-01  0.34572776056E-01  0.51100000000E-03 0. -1.
</event>
<event>
 8    1  0.1066842E+005  0.1043930E+01  0.7957747E-01            NaN
         13   -1    0    0    0    0  0.00000000000E+00  0.00000000000E+00  0.74505805969E-08  0.10566000000E+00  0.10566000000E+00 0.  1.
     999900   -1    0    0    0    0 -0.00000000000E+00 -0.00000000000E+00 -0.74505805969E-08  0.93827000000E+00  0.93827000000E+00 0.  1.
     999902    2    1    2    0    0  0.92885397545E-02 -0.21224869279E-01  0.13219051462E-02  0.10207239775E+01  0.10204601505E+01 0.  0.
     999903    2    3    3    0    0  0.51800232731E-01  0.39017685067E-01 -0.11139520093E+00  0.13047594724E+00  0.20234578309E-01 0.  0.
         14    1    1    2    0    0 -0.92885397545E-02  0.21224869279E-01 -0.13219051462E-02  0.23206022492E-01  0.00000000000E+00 0.  1.
     999901    1    3    3    0    0 -0.42511692976E-01 -0.60242554347E-01  0.11271710607E+00  0.89024803027E+00  0.88000000000E+00 0. -1.
        -11    1    4    4    0    0  0.19354159669E-01  0.36331607396E-02 -0.27745952718E-01  0.34027670603E-01  0.51100000000E-03 0.  1.
         11    1    4    4    0    0  0.32446073061E-01  0.35384524328E-01 -0.83649248210E-01  0.96448276637E-01  0.51100000000E-03 0. -1.
</event>
<event>
 8    1  0.1066842E+005  0.1043930E+01  0.7957747E-01            NaN
         13   -1    0    0    0    0  0.00000000000E+00  0.00000000000E+00  0.74505805969E-08  0.10566000000E+00  0.10566000000E+00 0. -1.
     999900   -1    0    0    0    0 -0.00000000000E+00 -0.00000000000E+00 -0.74505805969E-08  0.93827000000E+00  0.93827000000E+00 0.  1.
     999902    2    1    2    0    0  0.17247588820E-01 -0.43760895072E-02 -0.84310833972E-02  0.10242395798E+01  0.10240502938E+01 0.  0.
     999903    2    3    3    0    0  0.12876011270E+00  0.39484663238E-01 -0.44518700044E-02  0.13610972290E+00  0.19178953784E-01 0.  0.
         14    1    1    2    0    0 -0.17247588820E-01  0.43760895072E-02  0.84310833972E-02  0.19690420176E-01  0.00000000000E+00 0. -1.
     999901    1    3    3    0    0 -0.11151252388E+00 -0.43860752745E-01 -0.39792133927E-02  0.88812985692E+00  0.88000000000E+00 0. -1.
        -11    1    4    4    0    0  0.60649827226E-01  0.14551738307E-01  0.66736534131E-02  0.62729206923E-01  0.51100000000E-03 0.  1.
         11    1    4    4    0    0  0.68110285476E-01  0.24932924931E-01 -0.11125523418E-01  0.73380515980E-01  0.51100000000E-03 0. -1.
</event>
<event>
 8    1  0.1066842E+005  0.1043930E+01  0.7957747E-01            NaN
         13   -1    0    0    0    0  0.00000000000E+00  0.00000000000E+00  0.74505805969E-08  0.10566000000E+00  0.10566000000E+00 0. -1.
     999900   -1    0    0    0    0 -0.00000000000E+00 -0.00000000000E+00 -0.74505805969E-08  0.93827000000E+00  0.93827000000E+00 0.  1.
     999902    2    1    2    0    0  0.22532458257E-01 -0.62635697387E-02 -0.15761729515E-02  0.10204901130E+01  0.10202208792E+01 0.  0.
     999903    2    3    3    0    0  0.16041492320E-01 -0.12941084623E+00  0.11891226887E-02  0.13188725953E+00  0.19706309040E-01 0.  0.
         14    1    1    2    0    0 -0.22532458257E-01  0.62635697387E-02  0.15761729515E-02  0.23439886991E-01  0.00000000000E+00 0. -1.
     999901    1    3    3    0    0  0.64909659369E-02  0.12314727649E+00 -0.27652956402E-02  0.88860285348E+00  0.88000000000E+00 0. -1.
        -11    1    4    4    0    0  0.14441832951E-01 -0.84415843592E-01  0.92612086550E-02  0.86143091975E-01  0.51100000000E-03 0.  1.
         11    1    4    4    0    0  0.15996593690E-02 -0.44995002640E-01 -0.80720859662E-02  0.45744167557E-01  0.51100000000E-03 0. -1.
</event>
<event>
 8    1  0.1066842E+005  0.1043930E+01  0.7957747E-01            NaN
         13   -1    0    0    0    0  0.00000000000E+00  0.00000000000E+00  0.74505805969E-08  0.10566000000E+00  0.10566000000E+00 0.  1.
     999900   -1    0    0    0    0 -0.00000000000E+00 -0.00000000000E+00 -0.74505805969E-08  0.93827000000E+00  0.93827000000E+00 0. -1.
     999902    2    1    2    0    0 -0.18975910105E-01 -0.46034651906E-02 -0.90784134337E-02  0.10223964298E+01  0.10221696361E+01 0.  0.
     999903    2    3    3    0    0 -0.73539716825E-01 -0.22498356908E-01 -0.10887486912E+00  0.13489613754E+00  0.20711465005E-01 0.  0.
         14    1    1    2    0    0  0.18975910105E-01  0.46034651906E-02  0.90784134337E-02  0.21533570223E-01  0.00000000000E+00 0.  1.
     999901    1    3    3    0    0  0.54563806720E-01  0.17894891717E-01  0.99796455688E-01  0.88750029224E+00  0.88000000000E+00 0.  1.
        -11    1    4    4    0    0 -0.56402767054E-01 -0.25488710111E-01 -0.89913120158E-01  0.10915849382E+00  0.51100000000E-03 0. -1.
         11    1    4    4    0    0 -0.17136949772E-01  0.29903532027E-02 -0.18961748963E-01  0.25737643725E-01  0.51100000000E-03 0.  1.
</event>
<event>
 8    1  0.1066842E+005  0.1043930E+01  0.7957747E-01            NaN
         13   -1    0    0    0    0  0.00000000000E+00  0.00000000000E+00  0.74505805969E-08  0.10566000000E+00  0.10566000000E+00 0.  1.
     999900   -1    0    0    0    0 -0.00000000000E+00 -0.00000000000E+00 -0.74505805969E-08  0.93827000000E+00  0.93827000000E+00 0.  1.
     999902    2    1    2    0    0 -0.11202216429E-01 -0.17269220907E-01  0.11234832567E-01  0.10204792621E+01  0.10202097761E+01 0.  0.
     999903    2    3    3    0    0 -0.83345055254E-01 -0.95544240828E-01  0.37071343771E-01  0.13368780229E+00  0.20568027667E-01 0.  0.
         14    1    1    2    0    0  0.11202216429E-01  0.17269220907E-01 -0.11234832567E-01  0.23450737865E-01  0.00000000000E+00 0.  1.
     999901    1    3    3    0    0  0.72142838825E-01  0.78275019922E-01 -0.25836511204E-01  0.88679145984E+00  0.88000000000E+00 0.  1.
        -11    1    4    4    0    0 -0.62760855397E-01 -0.83036984225E-01  0.26695192180E-01  0.10745678260E+00  0.51100000000E-03 0. -1.
         11    1    4    4    0    0 -0.20584199857E-01 -0.12507256604E-01  0.10376151591E-01  0.26231019697E-01  0.51100000000E-03 0.  1.
</event>
<event>
 8    1  0.1066842E+005  0.1043930E+01  0.7957747E-01            NaN
         13   -1    0    0    0    0  0.00000000000E+00  0.00000000000E+00  0.74505805969E-08  0.10566000000E+00  0.10566000000E+00 0.  1.
     999900   -1    0    0    0    0 -0.00000000000E+00 -0.00000000000E+00 -0.74505805969E-08  0.93827000000E+00  0.93827000000E+00 0. -1.
     999902    2    1    2    0    0 -0.85642813255E-04  0.13112144926E-01 -0.19826846788E-01  0.10201594398E+01  0.10198824653E+01 0.  0.
     999903    2    3    3    0    0  0.69212613652E-01  0.24858158481E-01 -0.10883853247E+00  0.13288084917E+00  0.20079342496E-01 0.  0.
         14    1    1    2    0    0  0.85642813255E-04 -0.13112144926E-01  0.19826846788E-01  0.23770560212E-01  0.00000000000E+00 0.  1.
     999901    1    3    3    0    0 -0.69298256465E-01 -0.11746013555E-01  0.89011685678E-01  0.88727859062E+00  0.88000000000E+00 0.  1.
        -11    1    4    4    0    0  0.40081662462E-01  0.19562257339E-01 -0.79722133668E-01  0.91351525962E-01  0.51100000000E-03 0.  1.
         11    1    4    4    0    0  0.29130951190E-01  0.52959011418E-02 -0.29116398797E-01  0.41529323207E-01  0.51100000000E-03 0. -1.
</event>
<event>
 8    1  0.1066842E+005  0.1043930E+01  0.7957747E-01            NaN
         13   -1    0    0    0    0  0.00000000000E+00  0.00000000000E+00  0.74505805969E-08  0.10566000000E+00  0.10566000000E+00 0.  1.
     999900   -1    0    0    0    0 -0.00000000000E+00 -0.00000000000E+00 -0.74505805969E-08  0.93827000000E+00  0.93827000000E+00 0.  1.
     999902    2    1    2    0    0  0.71952885263E-02 -0.12622322620E-01 -0.26010017143E-01  0.10141371116E+01  0.10136993958E+01 0.  0.
     999903    2    3    3    0    0 -0.51578992869E-01 -0.16660098607E-01  0.10758433738E+00  0.12210674705E+00  0.19942834153E-01 0.  0.
         14    1    1    2    0    0 -0.71952885263E-02  0.12622322620E-01  0.26010017143E-01  0.29792888365E-01  0.00000000000E+00 0.  1.
     999901    1    3    3    0    0  0.58774281395E-01  0.40377759865E-02 -0.13359435452E+00  0.89203036459E+00  0.88000000000E+00 0.  1.
        -11    1    4    4    0    0 -0.24351296866E-01 -0.18238629052E-01  0.54225304396E-01  0.62179401787E-01  0.51100000000E-03 0.  1.
         11    1    4    4    0    0 -0.27227696002E-01  0.15785304446E-02  0.53359032983E-01  0.59927345260E-01  0.51100000000E-03 0. -1.
</event>
<event>
 8    1  0.1066842E+005  0.1043930E+01  0.7957747E-01            NaN
         13   -1    0    0    0    0  0.00000000000E+00  0.00000000000E+00  0.74505805969E-08  0.10566000000E+00  0.10566000000E+00 0. -1.
     999900   -1    0    0    0    0 -0.00000000000E+00 -0.00000000000E+00 -0.74505805969E-08  0.93827000000E+00  0.93827000000E+00 0. -1.
     999902    2    1    2    0    0 -0.61798273077E-02  0.17597526793E-01  0.14917895271E-01  0.10200468090E+01  0.10197671723E+01 0.  0.
     999903    2    3    3    0    0  0.42027144373E-01 -0.11710199379E+00 -0.21770752541E-01  0.12773860557E+00  0.19079514524E-01 0.  0.
         14    1    1    2    0    0  0.61798273077E-02 -0.17597526793E-01 -0.14917895271E-01  0.23883191037E-01  0.00000000000E+00 0.  1.
     999901    1    3    3    0    0 -0.48206971681E-01  0.13469952058E+00  0.36688647812E-01  0.89230820339E+00  0.88000000000E+00 0.  1.
        -11    1    4    4    0    0  0.12506581282E-01 -0.24699265597E-01 -0.12213553111E-01  0.30263844717E-01  0.51100000000E-03 0.  1.
         11    1    4    4    0    0  0.29520563091E-01 -0.92402728188E-01 -0.95571994291E-02  0.97474760854E-01  0.51100000000E-03 0. -1.
</event>
<event>
 8    1  0.1066842E+005  0.1043930E+01  0.7957747E-01            NaN
         13   -1    0    0    0    0  0.00000000000E+00  0.00000000000E+00  0.74505805969E-08  0.10566000000E+00  0.10566000000E+00 0.  1.
     999900   -1    0    0    0    0 -0.00000000000E+00 -0.00000000000E+00 -0.74505805969E-08  0.93827000000E+00  0.93827000000E+00 0. -1.
     999902    2    1    2    0    0 -0.15031433653E-01 -0.19564650536E-01  0.24759084080E-02  0.10191338376E+01  0.10188321399E+01 0.  0.
     999903    2    3    3    0    0 -0.71055323515E-01  0.10552428109E+00  0.42236017245E-02  0.12852226597E+00  0.17773607951E-01 0.  0.
         14    1    1    2    0    0  0.15031433653E-01  0.19564650536E-01 -0.24759084080E-02  0.24796162419E-01  0.00000000000E+00 0. -1.
     999901    1    3    3    0    0  0.56023889862E-01 -0.12508893163E+00 -0.17476933165E-02  0.89061157161E+00  0.88000000000E+00 0. -1.
        -11    1    4    4    0    0 -0.50076417558E-01  0.59828425314E-01  0.55714871248E-02  0.78220142295E-01  0.51100000000E-03 0. -1.
         11    1    4    4    0    0 -0.20978905958E-01  0.45695855777E-01 -0.13478854002E-02  0.50302123677E-01  0.51100000000E-03 0.  1.
</event>
<event>
 8    1  0.1066842E+005  0.1043930E+01  0.7957747E-01            NaN
         13   -1    0    0    0    0  0.00000000000E+00  0.00000000000E+00  0.74505805969E-08  0.10566000000E+00  0.10566000000E+00 0. -1.
     999900   -1    0    0    0    0 -0.00000000000E+00 -0.00000000000E+00 -0.74505805969E-08  0.93827000000E+00  0.93827000000E+00 0.  1.
     999902    2    1    2    0    0  0.97324250362E-02 -0.18908669222E-01  0.11014736808E-01  0.10199804218E+01  0.10196992098E+01 0.  0.
     999903    2    3    3    0    0  0.79249185958E-01  0.46450055835E-02  0.10354585438E+00  0.13209002127E+00  0.20591750975E-01 0.  0.
         14    1    1    2    0    0 -0.97324250362E-02  0.18908669222E-01 -0.11014736808E-01  0.23949578196E-01  0.00000000000E+00 0.  1.
     999901    1    3    3    0    0 -0.69516760921E-01 -0.23553674805E-01 -0.92531117569E-01  0.88789040054E+00  0.88000000000E+00 0.  1.
        -11    1    4    4    0    0  0.31711038351E-01 -0.79429799156E-02  0.37625806452E-01  0.49846196599E-01  0.51100000000E-03 0.  1.
         11    1    4    4    0    0  0.47538147607E-01  0.12587985499E-01  0.65920047924E-01  0.82243824669E-01  0.51100000000E-03 0. -1.
</event>
<event>
 8    1  0.1066842E+005  0.1043930E+01  0.7957747E-01            NaN
         13   -1    0    0    0    0  0.00000000000E+00  0.00000000000E+00  0.74505805969E-08  0.10566000000E+00  0.10566000000E+00 0. -1.
     999900   -1    0    0    0    0 -0.00000000000E+00 -0.00000000000E+00 -0.74505805969E-08  0.93827000000E+00  0.93827000000E+00 0.  1.
     999902    2    1    2    0    0  0.16357488050E-01  0.11858469886E-01  0.12914406469E-01  0.10199514133E+01  0.10196695116E+01 0.  0.
     999903    2    3    3    0    0  0.17273902897E-01 -0.12563272392E+00  0.15599695682E-01  0.12927084268E+00  0.19637495260E-01 0.  0.
         14    1    1    2    0    0 -0.16357488050E-01 -0.11858469886E-01 -0.12914406469E-01  0.23978586651E-01  0.00000000000E+00 0. -1.
     999901    1    3    3    0    0 -0.91641484690E-03  0.13749119381E+00 -0.26852892132E-02  0.89068057067E+00  0.88000000000E+00 0.  1.
        -11    1    4    4    0    0  0.62309123732E-03 -0.58399366267E-01  0.64515949997E-03  0.58408488894E-01  0.51100000000E-03 0. -1.
         11    1    4    4    0    0  0.16650811660E-01 -0.67233357655E-01  0.14954536182E-01  0.70862353785E-01  0.51100000000E-03 0.  1.
</event>
<event>
 8    1  0.1066842E+005  0.1043930E+01  0.7957747E-01            NaN
         13   -1    0    0    0    0  0.00000000000E+00  0.00000000000E+00  0.74505805969E-08  0.10566000000E+00  0.10566000000E+00 0.  1.
     999900   -1    0    0    0    0 -0.00000000000E+00 -0.00000000000E+00 -0.74505805969E-08  0.93827000000E+00  0.93827000000E+00 0. -1.
     999902    2    1    2    0    0  0.10016158212E-01  0.19110834178E-01  0.95444563353E-02  0.10203366947E+01  0.10200638835E+01 0.  0.
     999903    2    3    3    0    0  0.12647374700E-01  0.72373417292E-03 -0.12741417187E+00  0.12954902382E+00  0.19700215752E-01 0.  0.
         14    1    1    2    0    0 -0.10016158212E-01 -0.19110834178E-01 -0.95444563353E-02  0.23593305301E-01  0.00000000000E+00 0. -1.
     999901    1    3    3    0    0 -0.26312164884E-02  0.18387100005E-01  0.13695862821E+00  0.89078767088E+00  0.88000000000E+00 0.  1.
        -11    1    4    4    0    0  0.35624251567E-02  0.66548579806E-03 -0.10848074522E+00  0.10854246611E+00  0.51100000000E-03 0. -1.
         11    1    4    4    0    0  0.90849495438E-02  0.58248374860E-04 -0.18933426655E-01  0.21006557714E-01  0.51100000000E-03 0.  1.
</event>
<event>
 8    1  0.1066842E+005  0.1043930E+01  0.7957747E-01            NaN
         13   -1    0    0    0    0  0.00000000000E+00  0.00000000000E+00  0.74505805969E-08  0.10566000000E+00  0.10566000000E+00 0. -1.
     999900   -1    0    0    0    0 -0.00000000000E+00 -0.00000000000E+00 -0.74505805969E-08  0.93827000000E+00  0.93827000000E+00 0.  1.
     999902    2    1    2    0    0  0.80122567158E-02  0.93045309614E-02  0.19519053299E-01  0.10208699914E+01  0.10206095117E+01 0.  0.
     999903    2    3    3    0    0  0.75771704872E-01  0.58350104390E-01 -0.86517441471E-01  0.13056636382E+00  0.20401513217E-01 0.  0.
         14    1    1    2    0    0 -0.80122567158E-02 -0.93045309614E-02 -0.19519053299E-01  0.23060008582E-01  0.00000000000E+00 0.  1.
     999901    1    3    3    0    0 -0.67759448156E-01 -0.49045573428E-01  0.10603649477E+00  0.89030362760E+00  0.88000000000E+00 0. -1.
        -11    1    4    4    0    0  0.49031556219E-01  0.27726160638E-01 -0.41918195292E-01  0.70215594468E-01  0.51100000000E-03 0. -1.
         11    1    4    4    0    0  0.26740148653E-01  0.30623943751E-01 -0.44599246179E-01  0.60350769354E-01  0.51100000000E-03 0.  1.
</event>
<event>
 8    1  0.1066842E+005  0.1043930E+01  0.7957747E-01            NaN
         13   -1    0    0    0    0  0.00000000000E+00  0.00000000000E+00  0.74505805969E-08  0.10566000000E+00  0.10566000000E+00 0.  1.
     999900   -1    0    0    0    0 -0.00000000000E+00 -0.00000000000E+00 -0.74505805969E-08  0.93827000000E+00  0.93827000000E+00 0. -1.
     999902    2    1    2    0    0 -0.11663670311E-01  0.35847744045E-02 -0.20520599612E-01  0.10200556032E+01  0.10197761749E+01 0.  0.
     999903    2    3    3    0    0  0.78860152523E-01 -0.87290458015E-01  0.46861215746E-01  0.12820742141E+00  0.20065434161E-01 0.  0.
         14    1    1    2    0    0  0.11663670311E-01 -0.35847744045E-02  0.20520599612E-01  0.23874396769E-01  0.00000000000E+00 0.  1.
     999901    1    3    3    0    0 -0.90523822834E-01  0.90875232419E-01 -0.67381815359E-01  0.89184818182E+00  0.88000000000E+00 0.  1.
        -11    1    4    4    0    0  0.26656579966E-01 -0.16719771153E-01  0.14500940881E-01  0.34650575902E-01  0.51100000000E-03 0. -1.
         11    1    4    4    0    0  0.52203572557E-01 -0.70570686862E-01  0.32360274865E-01  0.93556845512E-01  0.51100000000E-03 0.  1.
</event>
<event>
 8    1  0.1066842E+005  0.1043930E+01  0.7957747E-01            NaN
         13   -1    0    0    0    0  0.00000000000E+00  0.00000000000E+00  0.74505805969E-08  0.10566000000E+00  0.10566000000E+00 0.  1.
     999900   -1    0    0    0    0 -0.00000000000E+00 -0.00000000000E+00 -0.74505805969E-08  0.93827000000E+00  0.93827000000E+00 0. -1.
     999902    2    1    2    0    0  0.20945279489E-01 -0.29387787203E-02  0.10263795759E-01  0.10204207113E+01  0.10201498622E+01 0.  0.
     999903    2    3    3    0    0  0.31836041346E-01  0.12373747424E+00  0.20478948238E-01  0.13122453995E+00  0.21817344108E-01 0.  0.
         14    1    1    2    0    0 -0.20945279489E-01  0.29387787203E-02 -0.10263795759E-01  0.23509288730E-01  0.00000000000E+00 0.  1.
     999901    1    3    3    0    0 -0.10890761857E-01 -0.12667625296E+00 -0.10215152479E-01  0.88919617132E+00  0.88000000000E+00 0. -1.
        -11    1    4    4    0    0  0.23940205049E-01  0.49813717669E-01  0.85589418751E-02  0.55929030859E-01  0.51100000000E-03 0.  1.
         11    1    4    4    0    0  0.78958362969E-02  0.73923756568E-01  0.11920006363E-01  0.75295509087E-01  0.51100000000E-03 0. -1.
</event>
<event>
 8    1  0.1066842E+005  0.1043930E+01  0.7957747E-01            NaN
         13   -1    0    0    0    0  0.00000000000E+00  0.00000000000E+00  0.74505805969E-08  0.10566000000E+00  0.10566000000E+00 0. -1.
     999900   -1    0    0    0    0 -0.00000000000E+00 -0.00000000000E+00 -0.74505805969E-08  0.93827000000E+00  0.93827000000E+00 0.  1.
     999902    2    1    2    0    0 -0.21077627023E-01 -0.63283715609E-02  0.10503281300E-01  0.10195448905E+01  0.10192532316E+01 0.  0.
     999903    2    3    3    0    0  0.82472017315E-01 -0.37556453136E-01 -0.87566737314E-01  0.12751605101E+00  0.19500999180E-01 0.  0.
         14    1    1    2    0    0  0.21077627023E-01  0.63283715609E-02 -0.10503281300E-01  0.24385109506E-01  0.00000000000E+00 0.  1.
     999901    1    3    3    0    0 -0.10354964434E+00  0.31228081576E-01  0.98070018614E-01  0.89202883948E+00  0.88000000000E+00 0. -1.
        -11    1    4    4    0    0  0.58133055100E-01 -0.32306906472E-01 -0.72607335875E-01  0.98464585740E-01  0.51100000000E-03 0. -1.
         11    1    4    4    0    0  0.24338962215E-01 -0.52495466645E-02 -0.14959401439E-01  0.29051465270E-01  0.51100000000E-03 0.  1.
</event>
<event>
 8    1  0.1066842E+005  0.1043930E+01  0.7957747E-01            NaN
         13   -1    0    0    0    0  0.00000000000E+00  0.00000000000E+00  0.74505805969E-08  0.10566000000E+00  0.10566000000E+00 0. -1.
     999900   -1    0    0    0    0 -0.00000000000E+00 -0.00000000000E+00 -0.74505805969E-08  0.93827000000E+00  0.93827000000E+00 0. -1.
     999902    2    1    2    0    0 -0.69369211322E-02 -0.30065843408E-02  0.22509414917E-01  0.10201848071E+01  0.10199084305E+01 0.  0.
     999903    2    3    3    0    0  0.97899157083E-01 -0.29736582651E-01 -0.74922020072E-01  0.12822181428E+00  0.18947698007E-01 0.  0.
         14    1    1    2    0    0  0.69369211322E-02  0.30065843408E-02 -0.22509414917E-01  0.23745192863E-01  0.00000000000E+00 0.  1.
     999901    1    3    3    0    0 -0.10483607822E+00  0.26729998310E-01  0.97431434989E-01  0.89196299286E+00  0.88000000000E+00 0.  1.
        -11    1    4    4    0    0  0.28082876891E-01 -0.15427625485E-01 -0.30511936759E-01  0.44248152598E-01  0.51100000000E-03 0.  1.
         11    1    4    4    0    0  0.69816280192E-01 -0.14308957166E-01 -0.44410083313E-01  0.83973661680E-01  0.51100000000E-03 0. -1.
</event>
<event>
 8    1  0.1066842E+005  0.1043930E+01  0.7957747E-01            NaN
         13   -1    0    0    0    0  0.00000000000E+00  0.00000000000E+00  0.74505805969E-08  0.10566000000E+00  0.10566000000E+00 0.  1.
     999900   -1    0    0    0    0 -0.00000000000E+00 -0.00000000000E+00 -0.74505805969E-08  0.93827000000E+00  0.93827000000E+00 0. -1.
     999902    2    1    2    0    0 -0.19666865556E-01 -0.89492463667E-02  0.60309144385E-02  0.10214968428E+01  0.10212504851E+01 0.  0.
     999903    2    3    3    0    0 -0.47459599803E-01  0.11494402845E+00 -0.37482788959E-01  0.13131965710E+00  0.19373940816E-01 0.  0.
         14    1    1    2    0    0  0.19666865556E-01  0.89492463667E-02 -0.60309144385E-02  0.22433157163E-01  0.00000000000E+00 0.  1.
     999901    1    3    3    0    0  0.27792734247E-01 -0.12389327482E+00  0.43513703397E-01  0.89017718574E+00  0.88000000000E+00 0.  1.
        -11    1    4    4    0    0 -0.84184540675E-02  0.44430297146E-01 -0.12074062419E-01  0.46807753393E-01  0.51100000000E-03 0. -1.
         11    1    4    4    0    0 -0.39041145735E-01  0.70513731306E-01 -0.25408726540E-01  0.84511903708E-01  0.51100000000E-03 0.  1.
</event>
<event>
 8    1  0.1066842E+005  0.1043930E+01  0.7957747E-01            NaN
         13   -1    0    0    0    0  0.00000000000E+00  0.00000000000E+00  0.74505805969E-08  0.10566000000E+00  0.10566000000E+00 0. -1.
     999900   -1    0    0    0    0 -0.00000000000E+00 -0.00000000000E+00 -0.74505805969E-08  0.93827000000E+00  0.93827000000E+00 0.  1.
     999902    2    1    2    0    0 -0.88591082373E-02 -0.13941434497E-01 -0.15337037798E-01  0.10213895447E+01  0.10211407983E+01 0.  0.
     999903    2    3    3    0    0 -0.12084272608E+00  0.20424352171E-01 -0.48760734968E-01  0.13299859393E+00  0.17055735233E-01 0.  0.
         14    1    1    2    0    0  0.88591082373E-02  0.13941434497E-01  0.15337037798E-01  0.22540455253E-01  0.00000000000E+00 0. -1.
     999901    1    3    3    0    0  0.11198361785E+00 -0.34365786668E-01  0.33423697170E-01  0.88839095082E+00  0.88000000000E+00 0.  1.
        -11    1    4    4    0    0 -0.34216975836E-01  0.10262790439E-01 -0.21120541314E-01  0.41502586538E-01  0.51100000000E-03 0. -1.
         11    1    4    4    0    0 -0.86625750247E-01  0.10161561732E-01 -0.27640193654E-01  0.91496007393E-01  0.51100000000E-03 0.  1.
</event>
<event>
 8    1  0.1066842E+005  0.1043930E+01  0.7957747E-01            NaN
         13   -1    0    0    0    0  0.00000000000E+00  0.00000000000E+00  0.74505805969E-08  0.10566000000E+00  0.10566000000E+00 0. -1.
     999900   -1    0    0    0    0 -0.00000000000E+00 -0.00000000000E+00 -0.74505805969E-08  0.93827000000E+00  0.93827000000E+00 0. -1.
     999902    2    1    2    0    0 -0.45026098869E-02  0.98974475638E-02 -0.21517227640E-01  0.10198214113E+01  0.10195364078E+01 0.  0.
     999903    2    3    3    0    0 -0.45779229216E-01 -0.44455050247E-01 -0.11420459634E+00  0.13232555123E+00  0.19883972460E-01 0.  0.
         14    1    1    2    0    0  0.45026098869E-02 -0.98974475638E-02  0.21517227640E-01  0.24108588706E-01  0.00000000000E+00 0. -1.
     999901    1    3    3    0    0  0.41276619329E-01  0.54352497811E-01  0.92687368704E-01  0.88749586007E+00  0.88000000000E+00 0.  1.
        -11    1    4    4    0    0 -0.30712254308E-01 -0.17831133422E-01 -0.51565299673E-01  0.62613362273E-01  0.51100000000E-03 0. -1.
         11    1    4    4    0    0 -0.15066974908E-01 -0.26623916825E-01 -0.62639296672E-01  0.69712188952E-01  0.51100000000E-03 0.  1.
</event>
<event>
 8    1  0.1176008E+005  0.1043930E+01  0.7957747E-01            NaN
         13   -1    0    0    0    0  0.00000000000E+00  0.00000000000E+00  0.74505805969E-08  0.10566000000E+00  0.10566000000E+00 0.  1.
     999900   -1    0    0    0    0 -0.00000000000E+00 -0.00000000000E+00 -0.74505805969E-08  0.93827000000E+00  0.93827000000E+00 0. -1.
     999902    2    1    2    0    0  0.20175231740E-01  0.71154331353E-02  0.10695593930E-01  0.10200121177E+01  0.10197316584E+01 0.  0.
     999903    2    3    3    0    0 -0.11643394285E+00  0.31991610799E-01  0.39803784264E-01  0.12864901685E+00  0.19644390736E-01 0.  0.
         14    1    1    2    0    0 -0.20175231740E-01 -0.71154331353E-02 -0.10695593930E-01  0.23917882305E-01  0.00000000000E+00 0.  1.
     999901    1    3    3    0    0  0.13660917459E+00 -0.24876177664E-01 -0.29108190335E-01  0.89136310084E+00  0.88000000000E+00 0. -1.
        -11    1    4    4    0    0 -0.67282727699E-01  0.10101051957E-01  0.27919488185E-01  0.73544242730E-01  0.51100000000E-03 0.  1.
         11    1    4    4    0    0 -0.49151215147E-01  0.21890558842E-01  0.11884296079E-01  0.55104774123E-01  0.51100000000E-03 0. -1.
</event>
<event>
 8    1  0.1066842E+005  0.1043930E+01  0.7957747E-01            NaN
         13   -1    0    0    0    0  0.00000000000E+00  0.00000000000E+00  0.74505805969E-08  0.10566000000E+00  0.10566000000E+00 0. -1.
     999900   -1    0    0    0    0 -0.00000000000E+00 -0.00000000000E+00 -0.74505805969E-08  0.93827000000E+00  0.93827000000E+00 0. -1.
     999902    2    1    2    0    0  0.16465368910E-01  0.17128015998E-02  0.14216016054E-01  0.10221094323E+01  0.10218764869E+01 0.  0.
     999903    2    3    3    0    0  0.32214865098E-02  0.12471327910E+00  0.41050112819E-01  0.13305117400E+00  0.21300778868E-01 0.  0.
         14    1    1    2    0    0 -0.16465368910E-01 -0.17128015998E-02 -0.14216016054E-01  0.21820567708E-01  0.00000000000E+00 0. -1.
     999901    1    3    3    0    0  0.13243882400E-01 -0.12300047750E+00 -0.26834096765E-01  0.88905825829E+00  0.88000000000E+00 0.  1.
        -11    1    4    4    0    0  0.54862391657E-02  0.10361059942E+00  0.41670491596E-01  0.11181210187E+00  0.51100000000E-03 0. -1.
         11    1    4    4    0    0 -0.22647526559E-02  0.21102679678E-01 -0.62037877695E-03  0.21239072132E-01  0.51100000000E-03 0.  1.
</event>
<event>
 8    1  0.1066842E+005  0.1043930E+01  0.7957747E-01            NaN
         13   -1    0    0    0    0  0.00000000000E+00  0.00000000000E+00  0.74505805969E-08  0.10566000000E+00  0.10566000000E+00 0. -1.
     999900   -1    0    0    0    0 -0.00000000000E+00 -0.00000000000E+00 -0.74505805969E-08  0.93827000000E+00  0.93827000000E+00 0. -1.
     999902    2    1    2    0    0  0.18205985944E-01  0.15564268508E-01 -0.19024242169E-03  0.10199771177E+01  0.10196958272E+01 0.  0.
     999903    2    3    3    0    0 -0.98505124691E-01  0.42258579588E-01 -0.69347200261E-01  0.12918154384E+00  0.19743098680E-01 0.  0.
         14    1    1    2    0    0 -0.18205985944E-01 -0.15564268508E-01  0.19024242169E-03  0.23952882302E-01  0.00000000000E+00 0.  1.
     999901    1    3    3    0    0  0.11671111064E+00 -0.26694311080E-01  0.69156957839E-01  0.89079557386E+00  0.88000000000E+00 0. -1.
        -11    1    4    4    0    0 -0.67464590662E-01  0.23450741099E-01 -0.36424855597E-01  0.80177549710E-01  0.51100000000E-03 0. -1.
         11    1    4    4    0    0 -0.31040534029E-01  0.18807838489E-01 -0.32922344663E-01  0.49003994129E-01  0.51100000000E-03 0.  1.
</event>
<event>
 8    1  0.1066842E+005  0.1043930E+01  0.7957747E-01            NaN
         13   -1    0    0    0    0  0.00000000000E+00  0.00000000000E+00  0.74505805969E-08  0.10566000000E+00  0.10566000000E+00 0. -1.
     999900   -1    0    0    0    0 -0.00000000000E+00 -0.00000000000E+00 -0.74505805969E-08  0.93827000000E+00  0.93827000000E+00 0. -1.
     999902    2    1    2    0    0 -0.22775106413E-02  0.12447289370E-02  0.21976624912E-01  0.10218006429E+01  0.10215609846E+01 0.  0.
     999903    2    3    3    0    0  0.11101519458E+00 -0.55910283177E-01  0.41345096174E-01  0.13248794749E+00  0.19831945463E-01 0.  0.
         14    1    1    2    0    0  0.22775106413E-02 -0.12447289370E-02 -0.21976624912E-01  0.22129357139E-01  0.00000000000E+00 0.  1.
     999901    1    3    3    0    0 -0.11329270522E+00  0.57155012114E-01 -0.19368471262E-01  0.88931269537E+00  0.88000000000E+00 0. -1.
        -11    1    4    4    0    0  0.34555089816E-01 -0.27068135103E-01  0.10467720164E-01  0.45128399668E-01  0.51100000000E-03 0. -1.
         11    1    4    4    0    0  0.76460104762E-01 -0.28842148074E-01  0.30877376010E-01  0.87359547824E-01  0.51100000000E-03 0.  1.
</event>
<event>
 8    1  0.1066842E+005  0.1043930E+01  0.7957747E-01            NaN
         13   -1    0    0    0    0  0.00000000000E+00  0.00000000000E+00  0.74505805969E-08  0.10566000000E+00  0.10566000000E+00 0. -1.
     999900   -1    0    0    0    0 -0.00000000000E+00 -0.00000000000E+00 -0.74505805969E-08  0.93827000000E+00  0.93827000000E+00 0. -1.
     999902    2    1    2    0    0 -0.44638538793E-02  0.10068760852E-01  0.19874242503E-01  0.10212079523E+01  0.10209551363E+01 0.  0.
     999903    2    3    3    0    0  0.23401822638E-01  0.10636096437E+00 -0.70401521584E-01  0.13092799747E+00  0.18040682847E-01 0.  0.
         14    1    1    2    0    0  0.44638538793E-02 -0.10068760852E-01 -0.19874242503E-01  0.22722047698E-01  0.00000000000E+00 0.  1.
     999901    1    3    3    0    0 -0.27865676518E-01 -0.96292203515E-01  0.90275764087E-01  0.89027995483E+00  0.88000000000E+00 0.  1.
        -11    1    4    4    0    0  0.16968781515E-01  0.49722479846E-01 -0.25717338262E-01  0.58497069639E-01  0.51100000000E-03 0. -1.
         11    1    4    4    0    0  0.64330411233E-02  0.56638484521E-01 -0.44684183322E-01  0.72430927836E-01  0.51100000000E-03 0.  1.
</event>
<event>
 8    1  0.1066842E+005  0.1043930E+01  0.7957747E-01            NaN
         13   -1    0    0    0    0  0.00000000000E+00  0.00000000000E+00  0.74505805969E-08  0.10566000000E+00  0.10566000000E+00 0. -1.
     999900   -1    0    0    0    0 -0.00000000000E+00 -0.00000000000E+00 -0.74505805969E-08  0.93827000000E+00  0.93827000000E+00 0.  1.
     999902    2    1    2    0    0  0.53755803157E-02  0.13577110040E-01  0.19084649287E-01  0.10198996313E+01  0.10196164962E+01 0.  0.
     999903    2    3    3    0    0 -0.35627680454E-01 -0.12130925037E+00 -0.78394137863E-02  0.12827162436E+00  0.20171449285E-01 0.  0.
         14    1    1    2    0    0 -0.53755803157E-02 -0.13577110040E-01 -0.19084649287E-01  0.24030368686E-01  0.00000000000E+00 0.  1.
     999901    1    3    3    0    0  0.41003260770E-01  0.13488636041E+00  0.26924063074E-01  0.89162800696E+00  0.88000000000E+00 0. -1.
        -11    1    4    4    0    0 -0.24947944347E-01 -0.68071693328E-01  0.43074750515E-02  0.72628994362E-01  0.51100000000E-03 0.  1.
         11    1    4    4    0    0 -0.10679736107E-01 -0.53237557043E-01 -0.12146888838E-01  0.55642629994E-01  0.51100000000E-03 0. -1.
</event>
<event>
 8    1  0.1066842E+005  0.1043930E+01  0.7957747E-01            NaN
         13   -1    0    0    0    0  0.00000000000E+00  0.00000000000E+00  0.74505805969E-08  0.10566000000E+00  0.10566000000E+00 0. -1.
     999900   -1    0    0    0    0 -0.00000000000E+00 -0.00000000000E+00 -0.74505805969E-08  0.93827000000E+00  0.93827000000E+00 0. -1.
     999902    2    1    2    0    0  0.13611468562E-01  0.19856687803E-01  0.29405255305E-03  0.10198541492E+01  0.10195699284E+01 0.  0.
     999903    2    3    3    0    0 -0.39686439809E-01 -0.45662043429E-02 -0.12166191755E+00  0.12951129197E+00  0.19382694289E-01 0.  0.
         14    1    1    2    0    0 -0.13611468562E-01 -0.19856687803E-01 -0.29405255305E-03  0.24075850843E-01  0.00000000000E+00 0. -1.
     999901    1    3    3    0    0  0.53297908371E-01  0.24422892146E-01  0.12195597011E+00  0.89034285719E+00  0.88000000000E+00 0.  1.
        -11    1    4    4    0    0 -0.16089063609E-01 -0.11447785980E-01 -0.50770188647E-01  0.54477361793E-01  0.51100000000E-03 0.  1.
         11    1    4    4    0    0 -0.23597376200E-01  0.68815816371E-02 -0.70891728908E-01  0.75033930177E-01  0.51100000000E-03 0. -1.
</event>
<event>
 8    1  0.1066842E+005  0.1043930E+01  0.7957747E-01            NaN
         13   -1    0    0    0    0  0.00000000000E+00  0.00000000000E+00  0.74505805969E-08  0.10566000000E+00  0.10566000000E+00 0.  1.
     999900   -1    0    0    0    0 -0.00000000000E+00 -0.00000000000E+00 -0.74505805969E-08  0.93827000000E+00  0.93827000000E+00 0. -1.
     999902    2    1    2    0    0  0.18224026119E-01  0.13331831760E-01  0.50354822102E-02  0.10207954166E+01  0.10205332301E+01 0.  0.
     999903    2    3    3    0    0  0.10879478869E+00 -0.53858200416E-02  0.74296615271E-01  0.13324230946E+00  0.19188874008E-01 0.  0.
         14    1    1    2    0    0 -0.18224026119E-01 -0.13331831760E-01 -0.50354822102E-02  0.23134583358E-01  0.00000000000E+00 0.  1.
     999901    1    3    3    0    0 -0.90570762568E-01  0.18717651802E-01 -0.69261133061E-01  0.88755310719E+00  0.88000000000E+00 0. -1.
        -11    1    4    4    0    0  0.81324786790E-01  0.16705871745E-02  0.62223258939E-01  0.10241341163E+00  0.51100000000E-03 0.  1.
         11    1    4    4    0    0  0.27470001897E-01 -0.70564072161E-02  0.12073356332E-01  0.30828897826E-01  0.51100000000E-03 0. -1.
</event>
<event>
 8    1  0.1066842E+005  0.1043930E+01  0.7957747E-01            NaN
         13   -1    0    0    0    0  0.00000000000E+00  0.00000000000E+00  0.74505805969E-08  0.10566000000E+00  0.10566000000E+00 0. -1.
     999900   -1    0    0    0    0 -0.00000000000E+00 -0.00000000000E+00 -0.74505805969E-08  0.93827000000E+00  0.93827000000E+00 0.  1.
     999902    2    1    2    0    0 -0.12080197921E-01 -0.20755233959E-01  0.70185012824E-03  0.10199049399E+01  0.10196219314E+01 0.  0.
     999903    2    3    3    0    0 -0.97853067304E-01  0.17999894859E-01  0.82962470720E-01  0.13107101008E+00  0.19940389633E-01 0.  0.
         14    1    1    2    0    0  0.12080197921E-01  0.20755233959E-01 -0.70185012824E-03  0.24025060085E-01  0.00000000000E+00 0. -1.
     999901    1    3    3    0    0  0.85772869383E-01 -0.38755128819E-01 -0.82260620592E-01  0.88883392984E+00  0.88000000000E+00 0.  1.
        -11    1    4    4    0    0 -0.89703144616E-01  0.11452017572E-01  0.69701370805E-01  0.11417681496E+00  0.51100000000E-03 0.  1.
         11    1    4    4    0    0 -0.81499226876E-02  0.65478772879E-02  0.13261099915E-01  0.16894195119E-01  0.51100000000E-03 0. -1.
</event>
<event>
 8    1  0.1066842E+005  0.1043930E+01  0.7957747E-01            NaN
         13   -1    0    0    0    0  0.00000000000E+00  0.00000000000E+00  0.74505805969E-08  0.10566000000E+00  0.10566000000E+00 0.  1.
     999900   -1    0    0    0    0 -0.00000000000E+00 -0.00000000000E+00 -0.74505805969E-08  0.93827000000E+00  0.93827000000E+00 0. -1.
     999902    2    1    2    0    0  0.16532654757E-01 -0.17921809223E-01  0.57571269998E-02  0.10188767681E+01  0.10185687037E+01 0.  0.
     999903    2    3    3    0    0 -0.56510640316E-01 -0.95870257352E-01 -0.63673753303E-01  0.12970190862E+00  0.19587739213E-01 0.  0.
         14    1    1    2    0    0 -0.16532654757E-01  0.17921809223E-01 -0.57571269998E-02  0.25053231936E-01  0.00000000000E+00 0.  1.
     999901    1    3    3    0    0  0.73043295073E-01  0.77948448129E-01  0.69430880303E-01  0.88917485944E+00  0.88000000000E+00 0.  1.
        -11    1    4    4    0    0 -0.17166760583E-01 -0.42677507281E-01 -0.18482616291E-01  0.49577570761E-01  0.51100000000E-03 0. -1.
         11    1    4    4    0    0 -0.39343879733E-01 -0.53192750070E-01 -0.45191137012E-01  0.80124337863E-01  0.51100000000E-03 0.  1.
</event>
<event>
 8    1  0.1066842E+005  0.1043930E+01  0.7957747E-01            NaN
         13   -1    0    0    0    0  0.00000000000E+00  0.00000000000E+00  0.74505805969E-08  0.10566000000E+00  0.10566000000E+00 0. -1.
     999900   -1    0    0    0    0 -0.00000000000E+00 -0.00000000000E+00 -0.74505805969E-08  0.93827000000E+00  0.93827000000E+00 0.  1.
     999902    2    1    2    0    0  0.43780443264E-02 -0.23448933110E-01  0.11508388925E-01  0.10174448579E+01  0.10171000817E+01 0.  0.
     999903    2    3    3    0    0 -0.74252827199E-01  0.67446575609E-01  0.75572351171E-01  0.12696802007E+00  0.18632631336E-01 0.  0.
         14    1    1    2    0    0 -0.43780443264E-02  0.23448933110E-01 -0.11508388925E-01  0.26485142095E-01  0.00000000000E+00 0. -1.
     999901    1    3    3    0    0  0.78630871526E-01 -0.90895508720E-01 -0.64063962246E-01  0.89047683784E+00  0.88000000000E+00 0.  1.
        -11    1    4    4    0    0 -0.28810078842E-01  0.24890143644E-01  0.17794828664E-01  0.42029239128E-01  0.51100000000E-03 0. -1.
         11    1    4    4    0    0 -0.45442748357E-01  0.42556431966E-01  0.57777522507E-01  0.84938780942E-01  0.51100000000E-03 0.  1.
</event>
<event>
 8    1  0.1066842E+005  0.1043930E+01  0.7957747E-01            NaN
         13   -1    0    0    0    0  0.00000000000E+00  0.00000000000E+00  0.74505805969E-08  0.10566000000E+00  0.10566000000E+00 0.  1.
     999900   -1    0    0    0    0 -0.00000000000E+00 -0.00000000000E+00 -0.74505805969E-08  0.93827000000E+00  0.93827000000E+00 0. -1.
     999902    2    1    2    0    0 -0.18895661620E-01  0.14543562735E-01  0.78153527023E-02  0.10188373520E+01  0.10185283054E+01 0.  0.
     999903    2    3    3    0    0  0.26610755386E-01 -0.92394785157E-01  0.82177086783E-01  0.12808693145E+00  0.20205439610E-01 0.  0.
         14    1    1    2    0    0  0.18895661620E-01 -0.14543562735E-01 -0.78153527023E-02  0.25092647986E-01  0.00000000000E+00 0.  1.
     999901    1    3    3    0    0 -0.45506417005E-01  0.10693834789E+00 -0.74361734081E-01  0.89075042056E+00  0.88000000000E+00 0. -1.
        -11    1    4    4    0    0  0.26989821684E-01 -0.74562278736E-01  0.59014677247E-01  0.98848253077E-01  0.51100000000E-03 0.  1.
         11    1    4    4    0    0 -0.37906629804E-03 -0.17832506421E-01  0.23162409536E-01  0.29238678373E-01  0.51100000000E-03 0. -1.
</event>
<event>
 8    1  0.1066842E+005  0.1043930E+01  0.7957747E-01            NaN
         13   -1    0    0    0    0  0.00000000000E+00  0.00000000000E+00  0.74505805969E-08  0.10566000000E+00  0.10566000000E+00 0. -1.
     999900   -1    0    0    0    0 -0.00000000000E+00 -0.00000000000E+00 -0.74505805969E-08  0.93827000000E+00  0.93827000000E+00 0. -1.
     999902    2    1    2    0    0 -0.18899219726E-01  0.72126165603E-02 -0.12344209741E-01  0.10202322816E+01  0.10199570219E+01 0.  0.
     999903    2    3    3    0    0  0.64139224428E-01  0.84287192556E-01  0.71022985471E-01  0.12906116294E+00  0.19858206734E-01 0.  0.
         14    1    1    2    0    0  0.18899219726E-01 -0.72126165603E-02  0.12344209741E-01  0.23697718414E-01  0.00000000000E+00 0. -1.
     999901    1    3    3    0    0 -0.83038444154E-01 -0.77074575996E-01 -0.83367195212E-01  0.89117111865E+00  0.88000000000E+00 0. -1.
        -11    1    4    4    0    0  0.31655478876E-01  0.44470088818E-01  0.48234989623E-01  0.72845957247E-01  0.51100000000E-03 0.  1.
         11    1    4    4    0    0  0.32483745552E-01  0.39817103738E-01  0.22787995848E-01  0.56215205692E-01  0.51100000000E-03 0. -1.
</event>
<event>
 8    1  0.1066842E+005  0.1043930E+01  0.7957747E-01            NaN
         13   -1    0    0    0    0  0.00000000000E+00  0.00000000000E+00  0.74505805969E-08  0.10566000000E+00  0.10566000000E+00 0.  1.
     999900   -1    0    0    0    0 -0.00000000000E+00 -0.00000000000E+00 -0.74505805969E-08  0.93827000000E+00  0.93827000000E+00 0.  1.
     999902    2    1    2    0    0  0.53975671459E-02 -0.21681941099E-01  0.70553837676E-02  0.10204988511E+01  0.10202298203E+01 0.  0.
     999903    2    3    3    0    0 -0.40239868132E-01  0.11596016578E+00 -0.30243071635E-01  0.12785149635E+00  0.19114253873E-01 0.  0.
         14    1    1    2    0    0 -0.53975671459E-02  0.21681941099E-01 -0.70553837676E-02  0.23431148948E-01  0.00000000000E+00 0.  1.
     999901    1    3    3    0    0  0.45637435278E-01 -0.13764210688E+00  0.37298455403E-01  0.89264735470E+00  0.88000000000E+00 0. -1.
        -11    1    4    4    0    0 -0.23782549091E-01  0.41662582777E-01 -0.86692232837E-02  0.48752405051E-01  0.51100000000E-03 0.  1.
         11    1    4    4    0    0 -0.16457319041E-01  0.74297583004E-01 -0.21573848352E-01  0.79099091296E-01  0.51100000000E-03 0. -1.
</event>
<event>
 8    1  0.1066842E+005  0.1043930E+01  0.7957747E-01            NaN
         13   -1    0    0    0    0  0.00000000000E+00  0.00000000000E+00  0.74505805969E-08  0.10566000000E+00  0.10566000000E+00 0.  1.
     999900   -1    0    0    0    0 -0.00000000000E+00 -0.00000000000E+00 -0.74505805969E-08  0.93827000000E+00  0.93827000000E+00 0. -1.
     999902    2    1    2    0    0 -0.72816454847E-04 -0.11450472901E-01  0.19092043337E-01  0.10216673687E+01  0.10214247831E+01 0.  0.
     999903    2    3    3    0    0  0.60320613269E-01  0.15568230599E-01  0.11678616616E+00  0.13379264879E+00  0.19506872487E-01 0.  0.
         14    1    1    2    0    0  0.72816454847E-04  0.11450472901E-01 -0.19092043337E-01  0.22262631261E-01  0.00000000000E+00 0. -1.
     999901    1    3    3    0    0 -0.60393429724E-01 -0.27018703500E-01 -0.97694122824E-01  0.88787471995E+00  0.88000000000E+00 0.  1.
        -11    1    4    4    0    0  0.55280626923E-01  0.17383329848E-01  0.94400823029E-01  0.11076960043E+00  0.51100000000E-03 0. -1.
         11    1    4    4    0    0  0.50399863458E-02 -0.18150992492E-02  0.22385343132E-01  0.23023048360E-01  0.51100000000E-03 0.  1.
</event>
<event>
 8    1  0.1066842E+005  0.1043930E+01  0.7957747E-01            NaN
         13   -1    0    0    0    0  0.00000000000E+00  0.00000000000E+00  0.74505805969E-08  0.10566000000E+00  0.10566000000E+00 0.  1.
     999900   -1    0    0    0    0 -0.00000000000E+00 -0.00000000000E+00 -0.74505805969E-08  0.93827000000E+00  0.93827000000E+00 0. -1.
     999902    2    1    2    0    0 -0.17557398849E-01 -0.14040367034E-01  0.47251484594E-02  0.10209578171E+01  0.10206993402E+01 0.  0.
     999903    2    3    3    0    0 -0.12190981627E+00 -0.47008047134E-01  0.22493033551E-01  0.13400122698E+00  0.19458480842E-01 0.  0.
         14    1    1    2    0    0  0.17557398849E-01  0.14040367034E-01 -0.47251484594E-02  0.22972182934E-01  0.00000000000E+00 0. -1.
     999901    1    3    3    0    0  0.10435241742E+00  0.32967680100E-01 -0.17767885091E-01  0.88695659008E+00  0.88000000000E+00 0. -1.
        -11    1    4    4    0    0 -0.38350851724E-01 -0.69734662297E-02  0.15832707817E-02  0.39015188409E-01  0.51100000000E-03 0. -1.
         11    1    4    4    0    0 -0.83558964543E-01 -0.40034580904E-01  0.20909762769E-01  0.94986038573E-01  0.51100000000E-03 0.  1.
</event>
<event>
 8    1  0.1066842E+005  0.1043930E+01  0.7957747E-01            NaN
         13   -1    0    0    0    0  0.00000000000E+00  0.00000000000E+00  0.74505805969E-08  0.10566000000E+00  0.10566000000E+00 0.  1.
     999900   -1    0    0    0    0 -0.00000000000E+00 -0.00000000000E+00 -0.74505805969E-08  0.93827000000E+00  0.93827000000E+00 0. -1.
     999902    2    1    2    0    0  0.12219632859E-01 -0.17076569861E-02 -0.20216418513E-01  0.10202458471E+01  0.10199709062E+01 0.  0.
     999903    2    3    3    0    0 -0.61765047324E-01  0.78460172109E-01  0.77746857566E-01  0.12811501750E+00  0.19949039295E-01 0.  0.
         14    1    1    2    0    0 -0.12219632859E-01  0.17076569861E-02  0.20216418513E-01  0.23684152868E-01  0.00000000000E+00 0.  1.
     999901    1    3    3    0    0  0.73984680183E-01 -0.80167829095E-01 -0.97963276079E-01  0.89213082963E+00  0.88000000000E+00 0. -1.
        -11    1    4    4    0    0 -0.43790306277E-01  0.48745053779E-01  0.61120015415E-01  0.89607971728E-01  0.51100000000E-03 0.  1.
         11    1    4    4    0    0 -0.17974741047E-01  0.29715118330E-01  0.16626842151E-01  0.38507045770E-01  0.51100000000E-03 0. -1.
</event>
<event>
 8    1  0.1066842E+005  0.1043930E+01  0.7957747E-01            NaN
         13   -1    0    0    0    0  0.00000000000E+00  0.00000000000E+00  0.74505805969E-08  0.10566000000E+00  0.10566000000E+00 0. -1.
     999900   -1    0    0    0    0 -0.00000000000E+00 -0.00000000000E+00 -0.74505805969E-08  0.93827000000E+00  0.93827000000E+00 0. -1.
     999902    2    1    2    0    0  0.13002022428E-01  0.17185192814E-01  0.43463551426E-02  0.10219465007E+01  0.10217100254E+01 0.  0.
     999903    2    3    3    0    0 -0.80317311010E-01 -0.86620543323E-01  0.49982805536E-01  0.12977677778E+00  0.19741890220E-01 0.  0.
         14    1    1    2    0    0 -0.13002022428E-01 -0.17185192814E-01 -0.43463551426E-02  0.21983499319E-01  0.00000000000E+00 0.  1.
     999901    1    3    3    0    0  0.93319333438E-01  0.10380573614E+00 -0.45636450393E-01  0.89216972290E+00  0.88000000000E+00 0.  1.
        -11    1    4    4    0    0 -0.31786080306E-01 -0.48124994614E-01  0.20953236426E-01  0.61365049055E-01  0.51100000000E-03 0.  1.
         11    1    4    4    0    0 -0.48531230704E-01 -0.38495548710E-01  0.29029569109E-01  0.68411728730E-01  0.51100000000E-03 0. -1.
</event>
<event>
 8    1  0.1066842E+005  0.1043930E+01  0.7957747E-01            NaN
         13   -1    0    0    0    0  0.00000000000E+00  0.00000000000E+00  0.74505805969E-08  0.10566000000E+00  0.10566000000E+00 0.  1.
     999900   -1    0    0    0    0 -0.00000000000E+00 -0.00000000000E+00 -0.74505805969E-08  0.93827000000E+00  0.93827000000E+00 0.  1.
     999902    2    1    2    0    0  0.10586907296E-01  0.12891368583E-01  0.14045985700E-01  0.10221226686E+01  0.10218900087E+01 0.  0.
     999903    2    3    3    0    0 -0.20200599614E-01  0.29084936156E-01  0.12800004362E+00  0.13409359836E+00  0.18522532742E-01 0.  0.
         14    1    1    2    0    0 -0.10586907296E-01 -0.12891368583E-01 -0.14045985700E-01  0.21807331435E-01  0.00000000000E+00 0. -1.
     999901    1    3    3    0    0  0.30787506910E-01 -0.16193567573E-01 -0.11395405792E+00  0.88802907020E+00  0.88000000000E+00 0.  1.
        -11    1    4    4    0    0 -0.72386727397E-02  0.24579050793E-01  0.71682668928E-01  0.76126173334E-01  0.51100000000E-03 0.  1.
         11    1    4    4    0    0 -0.12961926874E-01  0.45058853626E-02  0.56317374690E-01  0.57967425026E-01  0.51100000000E-03 0. -1.
</event>
<event>
 8    1  0.1066842E+005  0.1043930E+01  0.7957747E-01            NaN
         13   -1    0    0    0    0  0.00000000000E+00  0.00000000000E+00  0.74505805969E-08  0.10566000000E+00  0.10566000000E+00 0. -1.
     999900   -1    0    0    0    0 -0.00000000000E+00 -0.00000000000E+00 -0.74505805969E-08  0.93827000000E+00  0.93827000000E+00 0.  1.
     999902    2    1    2    0    0 -0.26633689373E-01 -0.15528463494E-01  0.15251986292E-01  0.10095336387E+01  0.10089475001E+01 0.  0.
     999903    2    3    3    0    0 -0.83136162549E-01 -0.88400491722E-01  0.21199622123E-01  0.12469566685E+00  0.19321410210E-01 0.  0.
         14    1    1    2    0    0  0.26633689373E-01  0.15528463494E-01 -0.15251986292E-01  0.34396361348E-01  0.00000000000E+00 0. -1.
     999901    1    3    3    0    0  0.56502473175E-01  0.72872028228E-01 -0.59476358311E-02  0.88483797180E+00  0.88000000000E+00 0. -1.
        -11    1    4    4    0    0 -0.50650610180E-01 -0.44780157242E-01  0.19140481777E-01  0.70266392805E-01  0.51100000000E-03 0. -1.
         11    1    4    4    0    0 -0.32485552369E-01 -0.43620334481E-01  0.20591403462E-02  0.54429274043E-01  0.51100000000E-03 0.  1.
</event>
<event>
 8    1  0.1066842E+005  0.1043930E+01  0.7957747E-01            NaN
         13   -1    0    0    0    0  0.00000000000E+00  0.00000000000E+00  0.74505805969E-08  0.10566000000E+00  0.10566000000E+00 0.  1.
     999900   -1    0    0    0    0 -0.00000000000E+00 -0.00000000000E+00 -0.74505805969E-08  0.93827000000E+00  0.93827000000E+00 0. -1.
     999902    2    1    2    0    0 -0.14915709497E-01 -0.21062182488E-01  0.10090715719E-01  0.10162186943E+01  0.10158407937E+01 0.  0.
     999903    2    3    3    0    0  0.10098954518E+00  0.18642265306E-01 -0.67429504435E-01  0.12435555693E+00  0.19265102632E-01 0.  0.
         14    1    1    2    0    0  0.14915709497E-01  0.21062182488E-01 -0.10090715719E-01  0.27711305719E-01  0.00000000000E+00 0. -1.
     999901    1    3    3    0    0 -0.11590525468E+00 -0.39704447793E-01  0.77520220154E-01  0.89186313735E+00  0.88000000000E+00 0.  1.
        -11    1    4    4    0    0  0.32900211446E-01  0.43017003089E-02 -0.32687928493E-01  0.46579934832E-01  0.51100000000E-03 0. -1.
         11    1    4    4    0    0  0.68089333733E-01  0.14340564997E-01 -0.34741575942E-01  0.77775622097E-01  0.51100000000E-03 0.  1.
</event>
<event>
 8    1  0.1066842E+005  0.1043930E+01  0.7957747E-01            NaN
         13   -1    0    0    0    0  0.00000000000E+00  0.00000000000E+00  0.74505805969E-08  0.10566000000E+00  0.10566000000E+00 0.  1.
     999900   -1    0    0    0    0 -0.00000000000E+00 -0.00000000000E+00 -0.74505805969E-08  0.93827000000E+00  0.93827000000E+00 0.  1.
     999902    2    1    2    0    0  0.61467569179E-02  0.23427144866E-01  0.40675914724E-02  0.10193707036E+01  0.10190748120E+01 0.  0.
     999903    2    3    3    0    0  0.52385952772E-01  0.30292210223E-01  0.11465281410E+00  0.13121852985E+00  0.20276309998E-01 0.  0.
         14    1    1    2    0    0 -0.61467569179E-02 -0.23427144866E-01 -0.40675914724E-02  0.24559296357E-01  0.00000000000E+00 0. -1.
     999901    1    3    3    0    0 -0.46239195854E-01 -0.68650653573E-02 -0.11058522262E+00  0.88815217380E+00  0.88000000000E+00 0.  1.
        -11    1    4    4    0    0  0.30918551474E-01  0.13616809223E-01  0.82255680722E-01  0.88924869697E-01  0.51100000000E-03 0.  1.
         11    1    4    4    0    0  0.21467401299E-01  0.16675401001E-01  0.32397133373E-01  0.42293660150E-01  0.51100000000E-03 0. -1.
</event>
<event>
 8    1  0.1066842E+005  0.1043930E+01  0.7957747E-01            NaN
         13   -1    0    0    0    0  0.00000000000E+00  0.00000000000E+00  0.74505805969E-08  0.10566000000E+00  0.10566000000E+00 0.  1.
     999900   -1    0    0    0    0 -0.00000000000E+00 -0.00000000000E+00 -0.74505805969E-08  0.93827000000E+00  0.93827000000E+00 0. -1.
     999902    2    1    2    0    0 -0.84695034464E-02 -0.14955967458E-01  0.16159080222E-01  0.10203391262E+01  0.10200663720E+01 0.  0.
     999903    2    3    3    0    0  0.11093520647E+00 -0.50460315511E-01 -0.40315622608E-01  0.12977333106E+00  0.19050053846E-01 0.  0.
         14    1    1    2    0    0  0.84695034464E-02  0.14955967458E-01 -0.16159080222E-01  0.23590873762E-01  0.00000000000E+00 0. -1.
     999901    1    3    3    0    0 -0.11940470992E+00  0.35504348053E-01  0.56474702830E-01  0.89056579518E+00  0.88000000000E+00 0. -1.
        -11    1    4    4    0    0  0.70722386020E-01 -0.41734089217E-01 -0.24636504678E-01  0.85735690181E-01  0.51100000000E-03 0.  1.
         11    1    4    4    0    0  0.40212820453E-01 -0.87262262944E-02 -0.15679117930E-01  0.44037640879E-01  0.51100000000E-03 0. -1.
</event>
<event>
 8    1  0.1066842E+005  0.1043930E+01  0.7957747E-01            NaN
         13   -1    0    0    0    0  0.00000000000E+00  0.00000000000E+00  0.74505805969E-08  0.10566000000E+00  0.10566000000E+00 0. -1.
     999900   -1    0    0    0    0 -0.00000000000E+00 -0.00000000000E+00 -0.74505805969E-08  0.93827000000E+00  0.93827000000E+00 0. -1.
     999902    2    1    2    0    0  0.67492398585E-02  0.22329850452E-01 -0.56388851481E-02  0.10199305941E+01  0.10196481968E+01 0.  0.
     999903    2    3    3    0    0 -0.12174255537E+00  0.35414628103E-01 -0.24232477008E-01  0.13030872241E+00  0.17824267797E-01 0.  0.
         14    1    1    2    0    0 -0.67492398585E-02 -0.22329850452E-01  0.56388851481E-02  0.23999405942E-01  0.00000000000E+00 0. -1.
     999901    1    3    3    0    0  0.12849179523E+00 -0.13084777651E-01  0.18593591860E-01  0.88962187164E+00  0.88000000000E+00 0. -1.
        -11    1    4    4    0    0 -0.49602477106E-01  0.23184013205E-01 -0.77159331685E-02  0.55296482248E-01  0.51100000000E-03 0.  1.
         11    1    4    4    0    0 -0.72140078268E-01  0.12230614899E-01 -0.16516543840E-01  0.75012240166E-01  0.51100000000E-03 0. -1.
</event>
<event>
 8    1  0.1066842E+005  0.1043930E+01  0.7957747E-01            NaN
         13   -1    0    0    0    0  0.00000000000E+00  0.00000000000E+00  0.74505805969E-08  0.10566000000E+00  0.10566000000E+00 0. -1.
     999900   -1    0    0    0    0 -0.00000000000E+00 -0.00000000000E+00 -0.74505805969E-08  0.93827000000E+00  0.93827000000E+00 0.  1.
     999902    2    1    2    0    0  0.21292719368E-01 -0.17400621252E-02 -0.11123974867E-01  0.10198436858E+01  0.10195592150E+01 0.  0.
     999903    2    3    3    0    0  0.79128860655E-01 -0.10307328057E+00  0.10456404009E-01  0.13188019943E+00  0.19939229166E-01 0.  0.
         14    1    1    2    0    0 -0.21292719368E-01  0.17400621252E-02  0.11123974867E-01  0.24086314187E-01  0.00000000000E+00 0. -1.
     999901    1    3    3    0    0 -0.57836141286E-01  0.10133321845E+00 -0.21580378876E-01  0.88796348638E+00  0.88000000000E+00 0. -1.
        -11    1    4    4    0    0  0.35193867877E-01 -0.30247942815E-01  0.40818099625E-02  0.46588289025E-01  0.51100000000E-03 0.  1.
         11    1    4    4    0    0  0.43934992778E-01 -0.72825337758E-01  0.63745940463E-02  0.85291910403E-01  0.51100000000E-03 0. -1.
</event>
<event>
 8    1  0.1066842E+005  0.1043930E+01  0.7957747E-01            NaN
         13   -1    0    0    0    0  0.00000000000E+00  0.00000000000E+00  0.74505805969E-08  0.10566000000E+00  0.10566000000E+00 0.  1.
     999900   -1    0    0    0    0 -0.00000000000E+00 -0.00000000000E+00 -0.74505805969E-08  0.93827000000E+00  0.93827000000E+00 0.  1.
     999902    2    1    2    0    0 -0.17066096530E-01 -0.64470045841E-02  0.15284188140E-01  0.10201303797E+01  0.10198527196E+01 0.  0.
     999903    2    3    3    0    0  0.11722613422E+00 -0.75779452801E-02 -0.45639671498E-01  0.12785945732E+00  0.21579374740E-01 0.  0.
         14    1    1    2    0    0  0.17066096530E-01  0.64470045841E-02 -0.15284188140E-01  0.23799620291E-01  0.00000000000E+00 0. -1.
     999901    1    3    3    0    0 -0.13429223075E+00  0.11309406960E-02  0.60923859638E-01  0.89227092239E+00  0.88000000000E+00 0.  1.
        -11    1    4    4    0    0  0.17431441567E-01  0.75493684804E-03  0.79726887850E-03  0.17473461117E-01  0.51100000000E-03 0. -1.
         11    1    4    4    0    0  0.99794692649E-01 -0.83328821282E-02 -0.46436940377E-01  0.11038599620E+00  0.51100000000E-03 0.  1.
</event>
<event>
 8    1  0.1066842E+005  0.1043930E+01  0.7957747E-01            NaN
         13   -1    0    0    0    0  0.00000000000E+00  0.00000000000E+00  0.74505805969E-08  0.10566000000E+00  0.10566000000E+00 0.  1.
     999900   -1    0    0    0    0 -0.00000000000E+00 -0.00000000000E+00 -0.74505805969E-08  0.93827000000E+00  0.93827000000E+00 0. -1.
     999902    2    1    2    0    0 -0.17291562503E-01  0.86602784837E-02  0.13888603188E-01  0.10201205091E+01  0.10198426159E+01 0.  0.
     999903    2    3    3    0    0 -0.10769985283E+00  0.34767826891E-01 -0.64547139574E-01  0.13163447728E+00  0.18794741143E-01 0.  0.
         14    1    1    2    0    0  0.17291562503E-01 -0.86602784837E-02 -0.13888603188E-01  0.23809490875E-01  0.00000000000E+00 0. -1.
     999901    1    3    3    0    0  0.90408290328E-01 -0.26107548407E-01  0.78435742763E-01  0.88848603185E+00  0.88000000000E+00 0. -1.
        -11    1    4    4    0    0 -0.68529262076E-01  0.20269252324E-01 -0.30319683282E-01  0.77631479863E-01  0.51100000000E-03 0. -1.
         11    1    4    4    0    0 -0.39170590755E-01  0.14498574568E-01 -0.34227456293E-01  0.54002997415E-01  0.51100000000E-03 0.  1.
</event>
<event>
 8    1  0.1066842E+005  0.1043930E+01  0.7957747E-01            NaN
         13   -1    0    0    0    0  0.00000000000E+00  0.00000000000E+00  0.74505805969E-08  0.10566000000E+00  0.10566000000E+00 0.  1.
     999900   -1    0    0    0    0 -0.00000000000E+00 -0.00000000000E+00 -0.74505805969E-08  0.93827000000E+00  0.93827000000E+00 0.  1.
     999902    2    1    2    0    0  0.18370647450E-01 -0.12472388770E-01  0.80823182107E-02  0.10203002510E+01  0.10200265865E+01 0.  0.
     999903    2    3    3    0    0 -0.31275552429E-01 -0.12262165220E+00 -0.27976625280E-01  0.13131326978E+00  0.21124712837E-01 0.  0.
         14    1    1    2    0    0 -0.18370647450E-01  0.12472388770E-01 -0.80823182107E-02  0.23629748983E-01  0.00000000000E+00 0. -1.
     999901    1    3    3    0    0  0.49646199879E-01  0.11014926343E+00  0.36058943491E-01  0.88898698123E+00  0.88000000000E+00 0. -1.
        -11    1    4    4    0    0 -0.27796403209E-01 -0.66742667815E-01 -0.16472990223E-01  0.74154192507E-01  0.51100000000E-03 0.  1.
         11    1    4    4    0    0 -0.34791492201E-02 -0.55878984380E-01 -0.11503635057E-01  0.57159077278E-01  0.51100000000E-03 0. -1.
</event>
<event>
 8    1  0.1066842E+005  0.1043930E+01  0.7957747E-01            NaN
         13   -1    0    0    0    0  0.00000000000E+00  0.00000000000E+00  0.74505805969E-08  0.10566000000E+00  0.10566000000E+00 0.  1.
     999900   -1    0    0    0    0 -0.00000000000E+00 -0.00000000000E+00 -0.74505805969E-08  0.93827000000E+00  0.93827000000E+00 0.  1.
     999902    2    1    2    0    0  0.23161345014E-01 -0.78210194166E-02 -0.10429245847E-01  0.10173520878E+01  0.10170048599E+01 0.  0.
     999903    2    3    3    0    0 -0.10814411624E+00  0.64037835362E-04 -0.61664784928E-01  0.12610106887E+00  0.20094275104E-01 0.  0.
         14    1    1    2    0    0 -0.23161345014E-01  0.78210194166E-02  0.10429245847E-01  0.26577912192E-01  0.00000000000E+00 0. -1.
     999901    1    3    3    0    0  0.13130546126E+00 -0.78850572519E-02  0.51235539082E-01  0.89125101893E+00  0.88000000000E+00 0. -1.
        -11    1    4    4    0    0 -0.78549912493E-01 -0.70700487833E-02 -0.38037392107E-01  0.87562427226E-01  0.51100000000E-03 0.  1.
         11    1    4    4    0    0 -0.29594203751E-01  0.71340866187E-02 -0.23627392821E-01  0.38538641648E-01  0.51100000000E-03 0. -1.
</event>
<event>
 8    1  0.1066842E+005  0.1043930E+01  0.7957747E-01            NaN
         13   -1    0    0    0    0  0.00000000000E+00  0.00000000000E+00  0.74505805969E-08  0.10566000000E+00  0.10566000000E+00 0. -1.
     999900   -1    0    0    0    0 -0.00000000000E+00 -0.00000000000E+00 -0.74505805969E-08  0.93827000000E+00  0.93827000000E+00 0.  1.
     999902    2    1    2    0    0  0.11375540706E-01 -0.26734883904E-01 -0.49605558521E-02  0.10144551962E+01  0.10140269134E+01 0.  0.
     999903    2    3    3    0    0  0.41286635982E-01 -0.85471326838E-01  0.82788176643E-01  0.12763814439E+00  0.20680418034E-01 0.  0.
         14    1    1    2    0    0 -0.11375540706E-01  0.26734883904E-01  0.49605558521E-02  0.29474803784E-01  0.00000000000E+00 0. -1.
     999901    1    3    3    0    0 -0.29911095276E-01  0.58736442934E-01 -0.87748732495E-01  0.88681705182E+00  0.88000000000E+00 0.  1.
        -11    1    4    4    0    0  0.49376709895E-02 -0.32553859097E-01  0.26967387301E-01  0.42563310911E-01  0.51100000000E-03 0.  1.
         11    1    4    4    0    0  0.36348964993E-01 -0.52917467742E-01  0.55820789342E-01  0.85074833482E-01  0.51100000000E-03 0. -1.
</event>
<event>
 8    1  0.1066842E+005  0.1043930E+01  0.7957747E-01            NaN
         13   -1    0    0    0    0  0.00000000000E+00  0.00000000000E+00  0.74505805969E-08  0.10566000000E+00  0.10566000000E+00 0. -1.
     999900   -1    0    0    0    0 -0.00000000000E+00 -0.00000000000E+00 -0.74505805969E-08  0.93827000000E+00  0.93827000000E+00 0. -1.
     999902    2    1    2    0    0  0.24151339336E-01 -0.16097340726E-02  0.35606158060E-03  0.10197224554E+01  0.10194350793E+01 0.  0.
     999903    2    3    3    0    0  0.95463668889E-01 -0.99704133200E-02 -0.89045461491E-01  0.13228345376E+00  0.18897002623E-01 0.  0.
         14    1    1    2    0    0 -0.24151339336E-01  0.16097340726E-02 -0.35606158060E-03  0.24207544596E-01  0.00000000000E+00 0. -1.
     999901    1    3    3    0    0 -0.71312329553E-01  0.83606792474E-02  0.89401523072E-01  0.88743900164E+00  0.88000000000E+00 0.  1.
        -11    1    4    4    0    0  0.64341202411E-01 -0.10508461478E-02 -0.68234576275E-01  0.93792926843E-01  0.51100000000E-03 0.  1.
         11    1    4    4    0    0  0.31122466479E-01 -0.89195671722E-02 -0.20810885216E-01  0.38490526922E-01  0.51100000000E-03 0. -1.
</event>
<event>
 8    1  0.1066842E+005  0.1043930E+01  0.7957747E-01            NaN
         13   -1    0    0    0    0  0.00000000000E+00  0.00000000000E+00  0.74505805969E-08  0.10566000000E+00  0.10566000000E+00 0.  1.
     999900   -1    0    0    0    0 -0.00000000000E+00 -0.00000000000E+00 -0.74505805969E-08  0.93827000000E+00  0.93827000000E+00 0. -1.
     999902    2    1    2    0    0  0.49272097137E-02  0.23570723325E-01 -0.11901954643E-01  0.10170690075E+01  0.10167142436E+01 0.  0.
     999903    2    3    3    0    0 -0.58298733661E-01  0.65989526379E-01  0.90574246996E-01  0.12785685809E+00  0.19756568589E-01 0.  0.
         14    1    1    2    0    0 -0.49272097137E-02 -0.23570723325E-01  0.11901954643E-01  0.26860992498E-01  0.00000000000E+00 0. -1.
     999901    1    3    3    0    0  0.63225943374E-01 -0.42418803054E-01 -0.10247620164E+00  0.88921214942E+00  0.88000000000E+00 0. -1.
        -11    1    4    4    0    0 -0.36726794107E-01  0.30636486640E-01  0.39029424487E-01  0.61733368738E-01  0.51100000000E-03 0. -1.
         11    1    4    4    0    0 -0.21571939553E-01  0.35353039739E-01  0.51544822509E-01  0.66123489347E-01  0.51100000000E-03 0.  1.
</event>
<event>
 8    1  0.1673612E+005  0.1043930E+01  0.7957747E-01            NaN
         13   -1    0    0    0    0  0.00000000000E+00  0.00000000000E+00  0.74505805969E-08  0.10566000000E+00  0.10566000000E+00 0.  1.
     999900   -1    0    0    0    0 -0.00000000000E+00 -0.00000000000E+00 -0.74505805969E-08  0.93827000000E+00  0.93827000000E+00 0.  1.
     999902    2    1    2    0    0 -0.69715655170E-02 -0.12128950478E-01 -0.20972543561E-01  0.10187196500E+01  0.10184076608E+01 0.  0.
     999903    2    3    3    0    0 -0.62393145227E-02 -0.12712739433E+00  0.24309108711E-01  0.13008271268E+00  0.11413848412E-01 0.  0.
         14    1    1    2    0    0  0.69715655170E-02  0.12128950478E-01  0.20972543561E-01  0.25210350035E-01  0.00000000000E+00 0.  1.
     999901    1    3    3    0    0 -0.73225099424E-03  0.11499844386E+00 -0.45281652271E-01  0.88863693729E+00  0.88000000000E+00 0.  1.
        -11    1    4    4    0    0 -0.90603465080E-02 -0.70701203722E-01  0.14406778922E-01  0.72722530804E-01  0.51100000000E-03 0.  1.
         11    1    4    4    0    0  0.28210319853E-02 -0.56426190611E-01  0.99023297888E-02  0.57360181873E-01  0.51100000000E-03 0. -1.
</event>
<event>
 8    1  0.1066842E+005  0.1043930E+01  0.7957747E-01            NaN
         13   -1    0    0    0    0  0.00000000000E+00  0.00000000000E+00  0.74505805969E-08  0.10566000000E+00  0.10566000000E+00 0. -1.
     999900   -1    0    0    0    0 -0.00000000000E+00 -0.00000000000E+00 -0.74505805969E-08  0.93827000000E+00  0.93827000000E+00 0. -1.
     999902    2    1    2    0    0  0.13229855379E-01 -0.11609568526E-01 -0.12281238430E-01  0.10224674752E+01  0.10222421914E+01 0.  0.
     999903    2    3    3    0    0 -0.11320304697E+00 -0.28534209980E-01 -0.58480541923E-01  0.13207087930E+00  0.19839667178E-01 0.  0.
         14    1    1    2    0    0 -0.13229855379E-01  0.11609568526E-01  0.12281238430E-01  0.21462524830E-01  0.00000000000E+00 0.  1.
     999901    1    3    3    0    0  0.12643290235E+00  0.16924641454E-01  0.46199303492E-01  0.89039659587E+00  0.88000000000E+00 0. -1.
        -11    1    4    4    0    0 -0.56792410461E-01 -0.24272085030E-01 -0.32946879654E-01  0.70001928528E-01  0.51100000000E-03 0. -1.
         11    1    4    4    0    0 -0.56410636511E-01 -0.42621249503E-02 -0.25533662268E-01  0.62068950776E-01  0.51100000000E-03 0.  1.
</event>
<event>
 8    1  0.1066842E+005  0.1043930E+01  0.7957747E-01            NaN
         13   -1    0    0    0    0  0.00000000000E+00  0.00000000000E+00  0.74505805969E-08  0.10566000000E+00  0.10566000000E+00 0.  1.
     999900   -1    0    0    0    0 -0.00000000000E+00 -0.00000000000E+00 -0.74505805969E-08  0.93827000000E+00  0.93827000000E+00 0.  1.
     999902    2    1    2    0    0 -0.55921525282E-02 -0.17086121864E-01  0.14895655072E-01  0.10205828745E+01  0.10203157920E+01 0.  0.
     999903    2    3    3    0    0  0.11560113769E+00 -0.58623082426E-01  0.60880801743E-02  0.13126251259E+00  0.19811452838E-01 0.  0.
         14    1    1    2    0    0  0.55921525282E-02  0.17086121864E-01 -0.14895655072E-01  0.23347125525E-01  0.00000000000E+00 0. -1.
     999901    1    3    3    0    0 -0.12119329022E+00  0.41536960562E-01  0.88075748979E-02  0.88932036188E+00  0.88000000000E+00 0. -1.
        -11    1    4    4    0    0  0.90424065893E-01 -0.38465688787E-01  0.99796722699E-02  0.98772343731E-01  0.51100000000E-03 0.  1.
         11    1    4    4    0    0  0.25177071795E-01 -0.20157393640E-01 -0.38915920956E-02  0.32490168860E-01  0.51100000000E-03 0. -1.
</event>
<event>
 8    1  0.1094281E+005  0.1043930E+01  0.7957747E-01            NaN
         13   -1    0    0    0    0  0.00000000000E+00  0.00000000000E+00  0.74505805969E-08  0.10566000000E+00  0.10566000000E+00 0. -1.
     999900   -1    0    0    0    0 -0.00000000000E+00 -0.00000000000E+00 -0.74505805969E-08  0.93827000000E+00  0.93827000000E+00 0. -1.
     999902    2    1    2    0    0  0.77686339833E-02  0.21642388318E-01 -0.81372940560E-02  0.10195381940E+01  0.10192463730E+01 0.  0.
     999903    2    3    3    0    0  0.20634289186E-01 -0.29869817399E-01 -0.12384572276E+00  0.13037708772E+00  0.18505190478E-01 0.  0.
         14    1    1    2    0    0 -0.77686339833E-02 -0.21642388318E-01  0.81372940560E-02  0.24391806014E-01  0.00000000000E+00 0. -1.
     999901    1    3    3    0    0 -0.12865655203E-01  0.51512205717E-01  0.11570842871E+00  0.88916110627E+00  0.88000000000E+00 0.  1.
        -11    1    4    4    0    0 -0.76264336792E-03 -0.12288348042E-01 -0.50329685831E-01  0.51816247638E-01  0.51100000000E-03 0.  1.
         11    1    4    4    0    0  0.21396932554E-01 -0.17581469357E-01 -0.73516036931E-01  0.78560840082E-01  0.51100000000E-03 0. -1.
</event>
<event>
 8    1  0.1066842E+005  0.1043930E+01  0.7957747E-01            NaN
         13   -1    0    0    0    0  0.00000000000E+00  0.00000000000E+00  0.74505805969E-08  0.10566000000E+00  0.10566000000E+00 0.  1.
     999900   -1    0    0    0    0 -0.00000000000E+00 -0.00000000000E+00 -0.74505805969E-08  0.93827000000E+00  0.93827000000E+00 0. -1.
     999902    2    1    2    0    0  0.45753238884E-02 -0.22360926758E-01  0.51224160185E-02  0.10205380403E+01  0.10202699191E+01 0.  0.
     999903    2    3    3    0    0 -0.53188575868E-01  0.10081579009E+00  0.56073945746E-01  0.12862704131E+00  0.20193569018E-01 0.  0.
         14    1    1    2    0    0 -0.45753238884E-02  0.22360926758E-01 -0.51224160185E-02  0.23391959731E-01  0.00000000000E+00 0. -1.
     999901    1    3    3    0    0  0.57763899756E-01 -0.12317671685E+00 -0.50951529728E-01  0.89191099896E+00  0.88000000000E+00 0.  1.
        -11    1    4    4    0    0 -0.32501396422E-01  0.43550048805E-01  0.32582723538E-01  0.63362784933E-01  0.51100000000E-03 0.  1.
         11    1    4    4    0    0 -0.20687179446E-01  0.57265741284E-01  0.23491222209E-01  0.65264256374E-01  0.51100000000E-03 0. -1.
</event>
<event>
 8    1  0.1066842E+005  0.1043930E+01  0.7957747E-01            NaN
         13   -1    0    0    0    0  0.00000000000E+00  0.00000000000E+00  0.74505805969E-08  0.10566000000E+00  0.10566000000E+00 0.  1.
     999900   -1    0    0    0    0 -0.00000000000E+00 -0.00000000000E+00 -0.74505805969E-08  0.93827000000E+00  0.93827000000E+00 0.  1.
     999902    2    1    2    0    0 -0.60972678225E-02 -0.10331838321E-01  0.20247311255E-01  0.10203954048E+01  0.10201239655E+01 0.  0.
     999903    2    3    3    0    0 -0.44233775058E-01 -0.11451972207E+00 -0.41991352029E-01  0.13124797073E+00  0.19782885965E-01 0.  0.
         14    1    1    2    0    0  0.60972678225E-02  0.10331838321E-01 -0.20247311255E-01  0.23534595196E-01  0.00000000000E+00 0. -1.
     999901    1    3    3    0    0  0.38136507236E-01  0.10418788375E+00  0.62238663283E-01  0.88914743407E+00  0.88000000000E+00 0. -1.
        -11    1    4    4    0    0 -0.35413933722E-01 -0.10239237559E+00 -0.31140124709E-01  0.11273115704E+00  0.51100000000E-03 0. -1.
         11    1    4    4    0    0 -0.88198413366E-02 -0.12127346486E-01 -0.10851227320E-01  0.18516813693E-01  0.51100000000E-03 0.  1.
</event>
<event>
 8    1  0.1066842E+005  0.1043930E+01  0.7957747E-01            NaN
         13   -1    0    0    0    0  0.00000000000E+00  0.00000000000E+00  0.74505805969E-08  0.10566000000E+00  0.10566000000E+00 0.  1.
     999900   -1    0    0    0    0 -0.00000000000E+00 -0.00000000000E+00 -0.74505805969E-08  0.93827000000E+00  0.93827000000E+00 0.  1.
     999902    2    1    2    0    0  0.23529662088E-01 -0.20372701529E-03 -0.57388955605E-02  0.10197097311E+01  0.10194220492E+01 0.  0.
     999903    2    3    3    0    0 -0.44144404517E-01  0.11305605693E+00  0.38016187833E-01  0.12879892454E+00  0.20335485403E-01 0.  0.
         14    1    1    2    0    0 -0.23529662088E-01  0.20372701529E-03  0.57388955605E-02  0.24220268887E-01  0.00000000000E+00 0.  1.
     999901    1    3    3    0    0  0.67674066606E-01 -0.11325978394E+00 -0.43755083394E-01  0.89091080658E+00  0.88000000000E+00 0.  1.
        -11    1    4    4    0    0 -0.26473918370E-01  0.54594405356E-01  0.28311179443E-01  0.66956713274E-01  0.51100000000E-03 0. -1.
         11    1    4    4    0    0 -0.17670486148E-01  0.58461651571E-01  0.97050083908E-02  0.61842211264E-01  0.51100000000E-03 0.  1.
</event>
<event>
 8    1  0.1066842E+005  0.1043930E+01  0.7957747E-01            NaN
         13   -1    0    0    0    0  0.00000000000E+00  0.00000000000E+00  0.74505805969E-08  0.10566000000E+00  0.10566000000E+00 0. -1.
     999900   -1    0    0    0    0 -0.00000000000E+00 -0.00000000000E+00 -0.74505805969E-08  0.93827000000E+00  0.93827000000E+00 0. -1.
     999902    2    1    2    0    0 -0.21281045161E-01 -0.11013769709E-01 -0.44999266018E-03  0.10199635964E+01  0.10196819845E+01 0.  0.
     999903    2    3    3    0    0  0.12403503768E+00 -0.23243742293E-01  0.55526605066E-02  0.12794208997E+00  0.20331852313E-01 0.  0.
         14    1    1    2    0    0  0.21281045161E-01  0.11013769709E-01  0.44999266018E-03  0.23966403563E-01  0.00000000000E+00 0. -1.
     999901    1    3    3    0    0 -0.14531608284E+00  0.12229972584E-01 -0.60026531668E-02  0.89202150647E+00  0.88000000000E+00 0.  1.
        -11    1    4    4    0    0  0.11105001225E+00 -0.25535508137E-01  0.90781813640E-03  0.11395285276E+00  0.51100000000E-03 0. -1.
         11    1    4    4    0    0  0.12985025427E-01  0.22917658440E-02  0.46448423702E-02  0.13989237208E-01  0.51100000000E-03 0.  1.
</event>
<event>
 8    1  0.1066842E+005  0.1043930E+01  0.7957747E-01            NaN
         13   -1    0    0    0    0  0.00000000000E+00  0.00000000000E+00  0.74505805969E-08  0.10566000000E+00  0.10566000000E+00 0. -1.
     999900   -1    0    0    0    0 -0.00000000000E+00 -0.00000000000E+00 -0.74505805969E-08  0.93827000000E+00  0.93827000000E+00 0. -1.
     999902    2    1    2    0    0 -0.37884680389E-02  0.19226324892E-01  0.12879857106E-01  0.10204801646E+01  0.10202106996E+01 0.  0.
     999903    2    3    3    0    0 -0.94186864210E-01 -0.35405389519E-01 -0.79000741908E-01  0.12941420821E+00  0.19550270277E-01 0.  0.
         14    1    1    2    0    0  0.37884680389E-02 -0.19226324892E-01 -0.12879857106E-01  0.23449835351E-01  0.00000000000E+00 0.  1.
     999901    1    3    3    0    0  0.90398396171E-01  0.54631714410E-01  0.91880599014E-01  0.89106595644E+00  0.88000000000E+00 0.  1.
        -11    1    4    4    0    0 -0.29589944364E-01 -0.14903994079E-01 -0.15662127128E-01  0.36650473314E-01  0.51100000000E-03 0. -1.
         11    1    4    4    0    0 -0.64596919845E-01 -0.20501395440E-01 -0.63338614781E-01  0.92763734896E-01  0.51100000000E-03 0.  1.
</event>
<event>
 8    1  0.1066842E+005  0.1043930E+01  0.7957747E-01            NaN
         13   -1    0    0    0    0  0.00000000000E+00  0.00000000000E+00  0.74505805969E-08  0.10566000000E+00  0.10566000000E+00 0.  1.
     999900   -1    0    0    0    0 -0.00000000000E+00 -0.00000000000E+00 -0.74505805969E-08  0.93827000000E+00  0.93827000000E+00 0.  1.
     999902    2    1    2    0    0  0.15581663228E-01 -0.39582483514E-02  0.15893398769E-01  0.10213234504E+01  0.10210732267E+01 0.  0.
     999903    2    3    3    0    0 -0.52248482629E-01 -0.10113633866E+00 -0.59815019825E-01  0.13015776742E+00  0.20118272517E-01 0.  0.
         14    1    1    2    0    0 -0.15581663228E-01  0.39582483514E-02 -0.15893398769E-01  0.22606549568E-01  0.00000000000E+00 0. -1.
     999901    1    3    3    0    0  0.67830145856E-01  0.97178090312E-01  0.75708418593E-01  0.89116568301E+00  0.88000000000E+00 0. -1.
        -11    1    4    4    0    0 -0.44420458071E-01 -0.76527058289E-01 -0.37810313716E-01  0.96226029170E-01  0.51100000000E-03 0.  1.
         11    1    4    4    0    0 -0.78280245577E-02 -0.24609280375E-01 -0.22004706108E-01  0.33931738254E-01  0.51100000000E-03 0. -1.
</event>
<event>
 8    1  0.1066842E+005  0.1043930E+01  0.7957747E-01            NaN
         13   -1    0    0    0    0  0.00000000000E+00  0.00000000000E+00  0.74505805969E-08  0.10566000000E+00  0.10566000000E+00 0. -1.
     999900   -1    0    0    0    0 -0.00000000000E+00 -0.00000000000E+00 -0.74505805969E-08  0.93827000000E+00  0.93827000000E+00 0. -1.
     999902    2    1    2    0    0 -0.78471929266E-02 -0.53383782310E-02  0.21738626834E-01  0.10202098690E+01  0.10199340823E+01 0.  0.
     999903    2    3    3    0    0  0.98144838254E-01  0.81084839380E-01  0.98373385728E-02  0.12956688558E+00  0.21991911147E-01 0.  0.
         14    1    1    2    0    0  0.78471929266E-02  0.53383782310E-02 -0.21738626834E-01  0.23720131019E-01  0.00000000000E+00 0.  1.
     999901    1    3    3    0    0 -0.10599203118E+00 -0.86423217611E-01  0.11901288261E-01  0.89064298340E+00  0.88000000000E+00 0.  1.
        -11    1    4    4    0    0  0.28563363373E-01  0.13473713480E-01 -0.28749160529E-02  0.31716445977E-01  0.51100000000E-03 0. -1.
         11    1    4    4    0    0  0.69581474881E-01  0.67611125900E-01  0.12712254626E-01  0.97850439604E-01  0.51100000000E-03 0.  1.
</event>
<event>
 8    1  0.1066842E+005  0.1043930E+01  0.7957747E-01            NaN
         13   -1    0    0    0    0  0.00000000000E+00  0.00000000000E+00  0.74505805969E-08  0.10566000000E+00  0.10566000000E+00 0.  1.
     999900   -1    0    0    0    0 -0.00000000000E+00 -0.00000000000E+00 -0.74505805969E-08  0.93827000000E+00  0.93827000000E+00 0.  1.
     999902    2    1    2    0    0 -0.16877367205E-01 -0.10935260589E-01 -0.10174963944E-01  0.10213921354E+01  0.10211434468E+01 0.  0.
     999903    2    3    3    0    0  0.41797334171E-01  0.91057657011E-01 -0.81504691293E-01  0.13069959262E+00  0.20021357701E-01 0.  0.
         14    1    1    2    0    0  0.16877367205E-01  0.10935260589E-01  0.10174963944E-01  0.22537864565E-01  0.00000000000E+00 0. -1.
     999901    1    3    3    0    0 -0.58674701375E-01 -0.10199291760E+00  0.71329727349E-01  0.89069254281E+00  0.88000000000E+00 0.  1.
        -11    1    4    4    0    0  0.58860111169E-02  0.53859516805E-02 -0.13058954391E-01  0.15311793270E-01  0.51100000000E-03 0.  1.
         11    1    4    4    0    0  0.35911323054E-01  0.85671705330E-01 -0.68445736903E-01  0.11538779935E+00  0.51100000000E-03 0. -1.
</event>
<event>
 8    1  0.1066842E+005  0.1043930E+01  0.7957747E-01            NaN
         13   -1    0    0    0    0  0.00000000000E+00  0.00000000000E+00  0.74505805969E-08  0.10566000000E+00  0.10566000000E+00 0.  1.
     999900   -1    0    0    0    0 -0.00000000000E+00 -0.00000000000E+00 -0.74505805969E-08  0.93827000000E+00  0.93827000000E+00 0. -1.
     999902    2    1    2    0    0  0.15222107618E-01  0.17548166235E-01  0.45411299686E-03  0.10206951788E+01  0.10204306890E+01 0.  0.
     999903    2    3    3    0    0  0.15114031281E-01  0.14430672084E-01  0.12795882876E+00  0.13150049650E+00  0.21959974581E-01 0.  0.
         14    1    1    2    0    0 -0.15222107618E-01 -0.17548166235E-01 -0.45411299686E-03  0.23234821221E-01  0.00000000000E+00 0.  1.
     999901    1    3    3    0    0  0.10807633773E-03  0.31174941510E-02 -0.12750471576E+00  0.88919468228E+00  0.88000000000E+00 0. -1.
        -11    1    4    4    0    0 -0.45703356526E-02  0.35019270435E-03  0.91047940819E-02  0.10206321530E-01  0.51100000000E-03 0.  1.
         11    1    4    4    0    0  0.19684366933E-01  0.14080479380E-01  0.11885403468E+00  0.12129417497E+00  0.51100000000E-03 0. -1.
</event>
<event>
 8    1  0.1066842E+005  0.1043930E+01  0.7957747E-01            NaN
         13   -1    0    0    0    0  0.00000000000E+00  0.00000000000E+00  0.74505805969E-08  0.10566000000E+00  0.10566000000E+00 0.  1.
     999900   -1    0    0    0    0 -0.00000000000E+00 -0.00000000000E+00 -0.74505805969E-08  0.93827000000E+00  0.93827000000E+00 0.  1.
     999902    2    1    2    0    0  0.21562341335E-01  0.85504606564E-02  0.30973235032E-02  0.10205283258E+01  0.10202599793E+01 0.  0.
     999903    2    3    3    0    0  0.10719055345E+00  0.59672559685E-01  0.49061754296E-01  0.13370343408E+00  0.20467618862E-01 0.  0.
         14    1    1    2    0    0 -0.21562341335E-01 -0.85504606564E-02 -0.30973235032E-02  0.23401674175E-01  0.00000000000E+00 0. -1.
     999901    1    3    3    0    0 -0.85628212116E-01 -0.51122099029E-01 -0.45964430793E-01  0.88682489174E+00  0.88000000000E+00 0.  1.
        -11    1    4    4    0    0  0.32668287129E-01  0.22829312871E-01  0.25416904212E-01  0.47272345518E-01  0.51100000000E-03 0. -1.
         11    1    4    4    0    0  0.74522266322E-01  0.36843246814E-01  0.23644850084E-01  0.86431088563E-01  0.51100000000E-03 0.  1.
</event>
<event>
 8    1  0.1066842E+005  0.1043930E+01  0.7957747E-01            NaN
         13   -1    0    0    0    0  0.00000000000E+00  0.00000000000E+00  0.74505805969E-08  0.10566000000E+00  0.10566000000E+00 0.  1.
     999900   -1    0    0    0    0 -0.00000000000E+00 -0.00000000000E+00 -0.74505805969E-08  0.93827000000E+00  0.93827000000E+00 0.  1.
     999902    2    1    2    0    0  0.10169351292E-01 -0.15073824391E-01  0.16730436786E-01  0.10192208235E+01  0.10189212647E+01 0.  0.
     999903    2    3    3    0    0  0.65379121437E-01  0.10337615344E+00 -0.32603200828E-01  0.12820324582E+00  0.20298889475E-01 0.  0.
         14    1    1    2    0    0 -0.10169351292E-01  0.15073824391E-01 -0.16730436786E-01  0.24709176484E-01  0.00000000000E+00 0. -1.
     999901    1    3    3    0    0 -0.55209770145E-01 -0.11844997783E+00  0.49333637614E-01  0.89101757770E+00  0.88000000000E+00 0. -1.
        -11    1    4    4    0    0  0.55290735544E-01  0.88804179145E-01 -0.20144785606E-01  0.10653319285E+00  0.51100000000E-03 0. -1.
         11    1    4    4    0    0  0.10088385893E-01  0.14571974295E-01 -0.12458415222E-01  0.21670052968E-01  0.51100000000E-03 0.  1.
</event>
<event>
 8    1  0.1066842E+005  0.1043930E+01  0.7957747E-01            NaN
         13   -1    0    0    0    0  0.00000000000E+00  0.00000000000E+00  0.74505805969E-08  0.10566000000E+00  0.10566000000E+00 0. -1.
     999900   -1    0    0    0    0 -0.00000000000E+00 -0.00000000000E+00 -0.74505805969E-08  0.93827000000E+00  0.93827000000E+00 0.  1.
     999902    2    1    2    0    0 -0.23486734385E-01  0.21738813431E-03 -0.91196593476E-02  0.10187339262E+01  0.10184222946E+01 0.  0.
     999903    2    3    3    0    0  0.59274477603E-01  0.10206296727E+00  0.43535432623E-01  0.12744581400E+00  0.20415401752E-01 0.  0.
         14    1    1    2    0    0  0.23486734385E-01 -0.21738813431E-03  0.91196593476E-02  0.25196073827E-01  0.00000000000E+00 0. -1.
     999901    1    3    3    0    0 -0.82761211988E-01 -0.10184557913E+00 -0.52655091970E-01  0.89128811218E+00  0.88000000000E+00 0.  1.
        -11    1    4    4    0    0  0.20944953778E-01  0.19272452381E-01  0.84100545482E-02  0.29683474326E-01  0.51100000000E-03 0. -1.
         11    1    4    4    0    0  0.38329523825E-01  0.82790514886E-01  0.35125378074E-01  0.97762339670E-01  0.51100000000E-03 0.  1.
</event>
<event>
 8    1  0.1066842E+005  0.1043930E+01  0.7957747E-01            NaN
         13   -1    0    0    0    0  0.00000000000E+00  0.00000000000E+00  0.74505805969E-08  0.10566000000E+00  0.10566000000E+00 0.  1.
     999900   -1    0    0    0    0 -0.00000000000E+00 -0.00000000000E+00 -0.74505805969E-08  0.93827000000E+00  0.93827000000E+00 0. -1.
     999902    2    1    2    0    0  0.16447579328E-01  0.14263259901E-01 -0.78171544527E-02  0.10207983906E+01  0.10205362722E+01 0.  0.
     999903    2    3    3    0    0 -0.10207109719E+00  0.77317951959E-01  0.13799047475E-01  0.13035477586E+00  0.20134033427E-01 0.  0.
         14    1    1    2    0    0 -0.16447579328E-01 -0.14263259901E-01  0.78171544527E-02  0.23131609380E-01  0.00000000000E+00 0.  1.
     999901    1    3    3    0    0  0.11851867652E+00 -0.63054692058E-01 -0.21616201928E-01  0.89044361476E+00  0.88000000000E+00 0.  1.
        -11    1    4    4    0    0 -0.42363746063E-01  0.25709906754E-01 -0.30624668595E-02  0.49652050411E-01  0.51100000000E-03 0. -1.
         11    1    4    4    0    0 -0.59707351130E-01  0.51608045205E-01  0.16861514335E-01  0.80702725453E-01  0.51100000000E-03 0.  1.
</event>
<event>
 8    1  0.1066842E+005  0.1043930E+01  0.7957747E-01            NaN
         13   -1    0    0    0    0  0.00000000000E+00  0.00000000000E+00  0.74505805969E-08  0.10566000000E+00  0.10566000000E+00 0. -1.
     999900   -1    0    0    0    0 -0.00000000000E+00 -0.00000000000E+00 -0.74505805969E-08  0.93827000000E+00  0.93827000000E+00 0.  1.
     999902    2    1    2    0    0  0.14725148619E-01  0.10604003113E-01 -0.16275094933E-01  0.10195547339E+01  0.10192633133E+01 0.  0.
     999903    2    3    3    0    0 -0.12025162130E+00 -0.37453422375E-01 -0.44031483587E-02  0.12788821118E+00  0.21743862875E-01 0.  0.
         14    1    1    2    0    0 -0.14725148619E-01 -0.10604003113E-01  0.16275094933E-01  0.24375266131E-01  0.00000000000E+00 0. -1.
     999901    1    3    3    0    0  0.13497676991E+00  0.48057425489E-01 -0.11871946574E-01  0.89166652268E+00  0.88000000000E+00 0.  1.
        -11    1    4    4    0    0 -0.40349352310E-01 -0.20970100210E-02 -0.13634279509E-03  0.40407269064E-01  0.51100000000E-03 0. -1.
         11    1    4    4    0    0 -0.79902268986E-01 -0.35356412354E-01 -0.42668055636E-02  0.87480942121E-01  0.51100000000E-03 0.  1.
</event>
<event>
 8    1  0.1066842E+005  0.1043930E+01  0.7957747E-01            NaN
         13   -1    0    0    0    0  0.00000000000E+00  0.00000000000E+00  0.74505805969E-08  0.10566000000E+00  0.10566000000E+00 0. -1.
     999900   -1    0    0    0    0 -0.00000000000E+00 -0.00000000000E+00 -0.74505805969E-08  0.93827000000E+00  0.93827000000E+00 0.  1.
     999902    2    1    2    0    0  0.17192943828E-01 -0.12508328556E-01  0.10264204255E-01  0.10203204788E+01  0.10200472881E+01 0.  0.
     999903    2    3    3    0    0  0.33289444887E-02 -0.75993900391E-01 -0.10418049529E+00  0.13053386533E+00  0.19983984379E-01 0.  0.
         14    1    1    2    0    0 -0.17192943828E-01  0.12508328556E-01 -0.10264204255E-01  0.23609521167E-01  0.00000000000E+00 0. -1.
     999901    1    3    3    0    0  0.13863999340E-01  0.63485571835E-01  0.11444469955E+00  0.88978661350E+00  0.88000000000E+00 0. -1.
        -11    1    4    4    0    0 -0.50377558008E-02 -0.46061576227E-01 -0.73293788601E-01  0.86713830249E-01  0.51100000000E-03 0. -1.
         11    1    4    4    0    0  0.83667002895E-02 -0.29932324164E-01 -0.30886706690E-01  0.43820035084E-01  0.51100000000E-03 0.  1.
</event>
<event>
 8    1  0.1066842E+005  0.1043930E+01  0.7957747E-01            NaN
         13   -1    0    0    0    0  0.00000000000E+00  0.00000000000E+00  0.74505805969E-08  0.10566000000E+00  0.10566000000E+00 0. -1.
     999900   -1    0    0    0    0 -0.00000000000E+00 -0.00000000000E+00 -0.74505805969E-08  0.93827000000E+00  0.93827000000E+00 0.  1.
     999902    2    1    2    0    0 -0.85451211176E-02 -0.17355865423E-02  0.22790705853E-01  0.10195282044E+01  0.10192361414E+01 0.  0.
     999903    2    3    3    0    0  0.82286057260E-01  0.28164750976E-01 -0.90732576421E-01  0.12709788848E+00  0.18900381330E-01 0.  0.
         14    1    1    2    0    0  0.85451211176E-02  0.17355865423E-02 -0.22790705853E-01  0.24401795607E-01  0.00000000000E+00 0. -1.
     999901    1    3    3    0    0 -0.90831178377E-01 -0.29900337518E-01  0.11352328227E+00  0.89243031592E+00  0.88000000000E+00 0. -1.
        -11    1    4    4    0    0  0.91702423233E-02 -0.26337449269E-02 -0.11787776949E-01  0.15173752436E-01  0.51100000000E-03 0. -1.
         11    1    4    4    0    0  0.73115814936E-01  0.30798495903E-01 -0.78944799472E-01  0.11192413604E+00  0.51100000000E-03 0.  1.
</event>
<event>
 8    1  0.1066842E+005  0.1043930E+01  0.7957747E-01            NaN
         13   -1    0    0    0    0  0.00000000000E+00  0.00000000000E+00  0.74505805969E-08  0.10566000000E+00  0.10566000000E+00 0. -1.
     999900   -1    0    0    0    0 -0.00000000000E+00 -0.00000000000E+00 -0.74505805969E-08  0.93827000000E+00  0.93827000000E+00 0. -1.
     999902    2    1    2    0    0  0.16476016703E-01 -0.16238036296E-01 -0.10205290027E-02  0.10207745594E+01  0.10205118945E+01 0.  0.
     999903    2    3    3    0    0 -0.12187487338E+00  0.11305090586E-01  0.35142101702E-01  0.12880632653E+00  0.19360077670E-01 0.  0.
         14    1    1    2    0    0 -0.16476016703E-01  0.16238036296E-01  0.10205290027E-02  0.23155440583E-01  0.00000000000E+00 0.  1.
     999901    1    3    3    0    0  0.13835089008E+00 -0.27543126882E-01 -0.36162630705E-01  0.89196823289E+00  0.88000000000E+00 0. -1.
        -11    1    4    4    0    0 -0.80398203911E-01  0.14379283207E-01  0.16988036397E-01  0.83423554703E-01  0.51100000000E-03 0.  1.
         11    1    4    4    0    0 -0.41476669468E-01 -0.30741926217E-02  0.18154065305E-01  0.45382771825E-01  0.51100000000E-03 0. -1.
</event>
<event>
 8    1  0.1066842E+005  0.1043930E+01  0.7957747E-01            NaN
         13   -1    0    0    0    0  0.00000000000E+00  0.00000000000E+00  0.74505805969E-08  0.10566000000E+00  0.10566000000E+00 0.  1.
     999900   -1    0    0    0    0 -0.00000000000E+00 -0.00000000000E+00 -0.74505805969E-08  0.93827000000E+00  0.93827000000E+00 0.  1.
     999902    2    1    2    0    0 -0.14691419261E-01  0.18266806197E-01  0.27453830987E-02  0.10203280692E+01  0.10200550562E+01 0.  0.
     999903    2    3    3    0    0 -0.93216686953E-01  0.85283866819E-01  0.38318423863E-01  0.13357954493E+00  0.20310208058E-01 0.  0.
         14    1    1    2    0    0  0.14691419261E-01 -0.18266806197E-01 -0.27453830987E-02  0.23601930788E-01  0.00000000000E+00 0.  1.
     999901    1    3    3    0    0  0.78525267692E-01 -0.67017060621E-01 -0.35573040765E-01  0.88674852428E+00  0.88000000000E+00 0.  1.
        -11    1    4    4    0    0 -0.14307247955E-01  0.22479861573E-01  0.12705471737E-01  0.29525102090E-01  0.51100000000E-03 0.  1.
         11    1    4    4    0    0 -0.78909438998E-01  0.62804005246E-01  0.25612952127E-01  0.10405444284E+00  0.51100000000E-03 0. -1.
</event>
<event>
 8    1  0.1066842E+005  0.1043930E+01  0.7957747E-01            NaN
         13   -1    0    0    0    0  0.00000000000E+00  0.00000000000E+00  0.74505805969E-08  0.10566000000E+00  0.10566000000E+00 0. -1.
     999900   -1    0    0    0    0 -0.00000000000E+00 -0.00000000000E+00 -0.74505805969E-08  0.93827000000E+00  0.93827000000E+00 0.  1.
     999902    2    1    2    0    0 -0.96866230778E-02 -0.18696517366E-01  0.10131265754E-01  0.10205626515E+01  0.10202951008E+01 0.  0.
     999903    2    3    3    0    0 -0.46496889713E-01  0.11228109193E+00 -0.38021189199E-01  0.12880663738E+00  0.19404500737E-01 0.  0.
         14    1    1    2    0    0  0.96866230778E-02  0.18696517366E-01 -0.10131265754E-01  0.23367348460E-01  0.00000000000E+00 0.  1.
     999901    1    3    3    0    0  0.36810266635E-01 -0.13097760929E+00  0.48152454953E-01  0.89175601416E+00  0.88000000000E+00 0. -1.
        -11    1    4    4    0    0 -0.51899807077E-02  0.35120903899E-01 -0.12439053889E-01  0.37621868283E-01  0.51100000000E-03 0. -1.
         11    1    4    4    0    0 -0.41306909005E-01  0.77160188027E-01 -0.25582135309E-01  0.91184769100E-01  0.51100000000E-03 0.  1.
</event>
<event>
 8    1  0.1066842E+005  0.1043930E+01  0.7957747E-01            NaN
         13   -1    0    0    0    0  0.00000000000E+00  0.00000000000E+00  0.74505805969E-08  0.10566000000E+00  0.10566000000E+00 0.  1.
     999900   -1    0    0    0    0 -0.00000000000E+00 -0.00000000000E+00 -0.74505805969E-08  0.93827000000E+00  0.93827000000E+00 0. -1.
     999902    2    1    2    0    0  0.14277655538E-01 -0.34008476289E-02  0.19509884502E-01  0.10195158073E+01  0.10192234439E+01 0.  0.
     999903    2    3    3    0    0 -0.11841433913E+00  0.42802825180E-01  0.12625347217E-01  0.12834279284E+00  0.21411107597E-01 0.  0.
         14    1    1    2    0    0 -0.14277655538E-01  0.34008476289E-02 -0.19509884502E-01  0.24414192707E-01  0.00000000000E+00 0. -1.
     999901    1    3    3    0    0  0.13269199466E+00 -0.46203672809E-01  0.68845372853E-02  0.89117301445E+00  0.88000000000E+00 0. -1.
        -11    1    4    4    0    0 -0.64927695426E-01  0.34350897357E-01  0.99113999127E-02  0.74122107038E-01  0.51100000000E-03 0. -1.
         11    1    4    4    0    0 -0.53486643701E-01  0.84519278228E-02  0.27139473038E-02  0.54220685806E-01  0.51100000000E-03 0.  1.
</event>
<event>
 7    1  0.1066842E+005  0.1043930E+01  0.7957747E-01            NaN
         13   -1    0    0    0    0  0.00000000000E+00  0.00000000000E+00  0.74505805969E-08  0.10566000000E+00  0.10566000000E+00 0. -1.
     999900   -1    0    0    0    0 -0.00000000000E+00 -0.00000000000E+00 -0.74505805969E-08  0.93827000000E+00  0.93827000000E+00 0. -1.
     999903    2    1    2    0    0  0.22924614377E-01  0.10448821485E+00  0.18598461402E-01  0.11074018236E+00  0.21775220682E-01 0.  0.
         14    1    1    2    0    0 -0.34688124755E-01  0.21151960837E-01  0.15625720983E-01  0.43529697937E-01  0.00000000000E+00 0.  1.
     999901    1    1    2    0    0  0.11763510378E-01 -0.12564017569E+00 -0.34224182386E-01  0.88966011970E+00  0.88000000000E+00 0.  1.
        -11    1    3    3    0    0  0.10355117659E-01  0.53343363853E-01 -0.15109423306E-02  0.54362551417E-01  0.51100000000E-03 0.  1.
         11    1    3    3    0    0  0.12569496717E-01  0.51144851001E-01  0.20109403733E-01  0.56377630946E-01  0.51100000000E-03 0. -1.
</event>
<event>
 8    1  0.1066842E+005  0.1043930E+01  0.7957747E-01            NaN
         13   -1    0    0    0    0  0.00000000000E+00  0.00000000000E+00  0.74505805969E-08  0.10566000000E+00  0.10566000000E+00 0. -1.
     999900   -1    0    0    0    0 -0.00000000000E+00 -0.00000000000E+00 -0.74505805969E-08  0.93827000000E+00  0.93827000000E+00 0. -1.
     999902    2    1    2    0    0 -0.17497768876E-01 -0.15613204415E-01  0.69217007345E-03  0.10204689010E+01  0.10201991740E+01 0.  0.
     999903    2    3    3    0    0  0.80194955794E-01  0.18274609210E-02  0.99571906332E-01  0.12938795769E+00  0.19801730115E-01 0.  0.
         14    1    1    2    0    0  0.17497768876E-01  0.15613204415E-01 -0.69217007345E-03  0.23461099018E-01  0.00000000000E+00 0. -1.
     999901    1    3    3    0    0 -0.97692724670E-01 -0.17440665336E-01 -0.98879736258E-01  0.89108094329E+00  0.88000000000E+00 0. -1.
        -11    1    4    4    0    0  0.26666841248E-01 -0.84521703717E-02  0.30310609425E-01  0.41249894192E-01  0.51100000000E-03 0.  1.
         11    1    4    4    0    0  0.53528114546E-01  0.10279631293E-01  0.69261296907E-01  0.88138063495E-01  0.51100000000E-03 0. -1.
</event>
<event>
 8    1  0.1066842E+005  0.1043930E+01  0.7957747E-01            NaN
         13   -1    0    0    0    0  0.00000000000E+00  0.00000000000E+00  0.74505805969E-08  0.10566000000E+00  0.10566000000E+00 0. -1.
     999900   -1    0    0    0    0 -0.00000000000E+00 -0.00000000000E+00 -0.74505805969E-08  0.93827000000E+00  0.93827000000E+00 0.  1.
     999902    2    1    2    0    0 -0.14073887745E-01  0.20969958284E-01 -0.18707067800E-04  0.10186750239E+01  0.10183619153E+01 0.  0.
     999903    2    3    3    0    0 -0.46843312105E-01  0.72135195176E-01  0.97246755896E-01  0.13123359660E+00  0.19171412909E-01 0.  0.
         14    1    1    2    0    0  0.14073887745E-01 -0.20969958284E-01  0.18707067800E-04  0.25254976077E-01  0.00000000000E+00 0. -1.
     999901    1    3    3    0    0  0.32769424361E-01 -0.51165236892E-01 -0.97265462964E-01  0.88744142732E+00  0.88000000000E+00 0. -1.
        -11    1    4    4    0    0 -0.38751760723E-01  0.57571376767E-01  0.65762778321E-01  0.95609447836E-01  0.51100000000E-03 0.  1.
         11    1    4    4    0    0 -0.80915513820E-02  0.14563818409E-01  0.31483977575E-01  0.35624148766E-01  0.51100000000E-03 0. -1.
</event>
<event>
 8    1  0.1066842E+005  0.1043930E+01  0.7957747E-01            NaN
         13   -1    0    0    0    0  0.00000000000E+00  0.00000000000E+00  0.74505805969E-08  0.10566000000E+00  0.10566000000E+00 0.  1.
     999900   -1    0    0    0    0 -0.00000000000E+00 -0.00000000000E+00 -0.74505805969E-08  0.93827000000E+00  0.93827000000E+00 0. -1.
     999902    2    1    2    0    0 -0.12425197539E-01 -0.11181482445E-01 -0.15571541680E-01  0.10210852195E+01  0.10208296340E+01 0.  0.
     999903    2    3    3    0    0 -0.33089153350E-01  0.35054068888E-01 -0.12236383514E+00  0.13318358129E+00  0.21006626615E-01 0.  0.
         14    1    1    2    0    0  0.12425197539E-01  0.11181482445E-01  0.15571541680E-01  0.22844780451E-01  0.00000000000E+00 0.  1.
     999901    1    3    3    0    0  0.20663955811E-01 -0.46235551333E-01  0.10679229346E+00  0.88790163826E+00  0.88000000000E+00 0.  1.
        -11    1    4    4    0    0 -0.31622750246E-01  0.35955777182E-01 -0.10135111241E+00  0.11209426994E+00  0.51100000000E-03 0. -1.
         11    1    4    4    0    0 -0.14664031042E-02 -0.90170829390E-03 -0.21012722730E-01  0.21089311355E-01  0.51100000000E-03 0.  1.
</event>
<event>
 8    1  0.1066842E+005  0.1043930E+01  0.7957747E-01            NaN
         13   -1    0    0    0    0  0.00000000000E+00  0.00000000000E+00  0.74505805969E-08  0.10566000000E+00  0.10566000000E+00 0.  1.
     999900   -1    0    0    0    0 -0.00000000000E+00 -0.00000000000E+00 -0.74505805969E-08  0.93827000000E+00  0.93827000000E+00 0. -1.
     999902    2    1    2    0    0 -0.99796176833E-02 -0.13989428201E-01 -0.19486516474E-01  0.10179488300E+01  0.10176172165E+01 0.  0.
     999903    2    3    3    0    0  0.49240479362E-01 -0.71564678065E-01  0.90823117805E-01  0.12722432449E+00  0.19775289130E-01 0.  0.
         14    1    1    2    0    0  0.99796176833E-02  0.13989428201E-01  0.19486516474E-01  0.25981170004E-01  0.00000000000E+00 0.  1.
     999901    1    3    3    0    0 -0.59220097046E-01  0.57575249865E-01 -0.11030963428E+00  0.89072450550E+00  0.88000000000E+00 0. -1.
        -11    1    4    4    0    0  0.29963710574E-01 -0.41010006878E-01  0.38947907809E-01  0.64006603247E-01  0.51100000000E-03 0.  1.
         11    1    4    4    0    0  0.19276768788E-01 -0.30554671187E-01  0.51875209996E-01  0.63217721245E-01  0.51100000000E-03 0. -1.
</event>
<event>
 8    1  0.1066842E+005  0.1043930E+01  0.7957747E-01            NaN
         13   -1    0    0    0    0  0.00000000000E+00  0.00000000000E+00  0.74505805969E-08  0.10566000000E+00  0.10566000000E+00 0.  1.
     999900   -1    0    0    0    0 -0.00000000000E+00 -0.00000000000E+00 -0.74505805969E-08  0.93827000000E+00  0.93827000000E+00 0.  1.
     999902    2    1    2    0    0  0.87233412058E-02 -0.13628287844E-01 -0.14696780315E-01  0.10220708540E+01  0.10218370753E+01 0.  0.
     999903    2    3    3    0    0 -0.97780548340E-01  0.29541480940E-01 -0.81421416871E-01  0.13209395289E+00  0.19637477806E-01 0.  0.
         14    1    1    2    0    0 -0.87233412058E-02  0.13628287844E-01  0.14696780315E-01  0.21859145980E-01  0.00000000000E+00 0.  1.
     999901    1    3    3    0    0  0.10650388955E+00 -0.43169768784E-01  0.66724636556E-01  0.88997690113E+00  0.88000000000E+00 0. -1.
        -11    1    4    4    0    0 -0.16709385299E-01  0.13182802359E-01 -0.15638146458E-01  0.26415953149E-01  0.51100000000E-03 0.  1.
         11    1    4    4    0    0 -0.81071163041E-01  0.16358678581E-01 -0.65783270412E-01  0.10567799974E+00  0.51100000000E-03 0. -1.
</event>
<event>
 8    1  0.1066842E+005  0.1043930E+01  0.7957747E-01            NaN
         13   -1    0    0    0    0  0.00000000000E+00  0.00000000000E+00  0.74505805969E-08  0.10566000000E+00  0.10566000000E+00 0.  1.
     999900   -1    0    0    0    0 -0.00000000000E+00 -0.00000000000E+00 -0.74505805969E-08  0.93827000000E+00  0.93827000000E+00 0. -1.
     999902    2    1    2    0    0  0.93208272363E-03  0.19942777486E-01 -0.13290390363E-01  0.10199463050E+01  0.10196642817E+01 0.  0.
     999903    2    3    3    0    0 -0.51392112095E-01 -0.15166700553E-02  0.11628067962E+00  0.12866240438E+00  0.19732419363E-01 0.  0.
         14    1    1    2    0    0 -0.93208272363E-03 -0.19942777486E-01  0.13290390363E-01  0.23983695046E-01  0.00000000000E+00 0.  1.
     999901    1    3    3    0    0  0.52324194819E-01  0.21459447541E-01 -0.12957106998E+00  0.89128390058E+00  0.88000000000E+00 0. -1.
        -11    1    4    4    0    0 -0.25848330294E-01  0.90939272580E-02  0.57666307618E-01  0.63847473304E-01  0.51100000000E-03 0.  1.
         11    1    4    4    0    0 -0.25543781801E-01 -0.10610597313E-01  0.58614372001E-01  0.64814931074E-01  0.51100000000E-03 0. -1.
</event>
<event>
 8    1  0.1066842E+005  0.1043930E+01  0.7957747E-01            NaN
         13   -1    0    0    0    0  0.00000000000E+00  0.00000000000E+00  0.74505805969E-08  0.10566000000E+00  0.10566000000E+00 0. -1.
     999900   -1    0    0    0    0 -0.00000000000E+00 -0.00000000000E+00 -0.74505805969E-08  0.93827000000E+00  0.93827000000E+00 0. -1.
     999902    2    1    2    0    0 -0.46458504185E-02 -0.17915777257E-01 -0.14933746721E-01  0.10201481626E+01  0.10198709221E+01 0.  0.
     999903    2    3    3    0    0 -0.10399815395E+00  0.74255576394E-01  0.61203907073E-02  0.12952494517E+00  0.20242173490E-01 0.  0.
         14    1    1    2    0    0  0.46458504185E-02  0.17915777257E-01  0.14933746721E-01  0.23781837439E-01  0.00000000000E+00 0. -1.
     999901    1    3    3    0    0  0.99352303536E-01 -0.92171353651E-01 -0.21054137428E-01  0.89062321739E+00  0.88000000000E+00 0. -1.
        -11    1    4    4    0    0 -0.54458045275E-01  0.27853313130E-01 -0.17196530394E-02  0.61193987246E-01  0.51100000000E-03 0.  1.
         11    1    4    4    0    0 -0.49540108680E-01  0.46402263264E-01  0.78400437467E-02  0.68330957925E-01  0.51100000000E-03 0. -1.
</event>
<event>
 8    1  0.1066842E+005  0.1043930E+01  0.7957747E-01            NaN
         13   -1    0    0    0    0  0.00000000000E+00  0.00000000000E+00  0.74505805969E-08  0.10566000000E+00  0.10566000000E+00 0.  1.
     999900   -1    0    0    0    0 -0.00000000000E+00 -0.00000000000E+00 -0.74505805969E-08  0.93827000000E+00  0.93827000000E+00 0. -1.
     999902    2    1    2    0    0  0.16471805497E-02  0.49617765356E-02 -0.22435463814E-01  0.10208934537E+01  0.10206335098E+01 0.  0.
     999903    2    3    3    0    0 -0.54061270857E-01  0.90286334177E-01 -0.79238998649E-01  0.13319398129E+00  0.19686914427E-01 0.  0.
         14    1    1    2    0    0 -0.16471805497E-02 -0.49617765356E-02  0.22435463814E-01  0.23036546327E-01  0.00000000000E+00 0.  1.
     999901    1    3    3    0    0  0.55708451407E-01 -0.85324557642E-01  0.56803534836E-01  0.88769947238E+00  0.88000000000E+00 0. -1.
        -11    1    4    4    0    0 -0.26071646118E-01  0.57606005933E-01 -0.39082601421E-01  0.74336353864E-01  0.51100000000E-03 0.  1.
         11    1    4    4    0    0 -0.27989624739E-01  0.32680328244E-01 -0.40156397228E-01  0.58857627428E-01  0.51100000000E-03 0. -1.
</event>
<event>
 8    1  0.1066842E+005  0.1043930E+01  0.7957747E-01            NaN
         13   -1    0    0    0    0  0.00000000000E+00  0.00000000000E+00  0.74505805969E-08  0.10566000000E+00  0.10566000000E+00 0.  1.
     999900   -1    0    0    0    0 -0.00000000000E+00 -0.00000000000E+00 -0.74505805969E-08  0.93827000000E+00  0.93827000000E+00 0.  1.
     999902    2    1    2    0    0  0.14310133442E-02  0.14703820544E-01  0.17860280714E-01  0.10207515668E+01  0.10204883740E+01 0.  0.
     999903    2    3    3    0    0  0.38103637439E-01  0.96119050280E-01  0.82424428657E-01  0.13387961992E+00  0.20957270270E-01 0.  0.
         14    1    1    2    0    0 -0.14310133442E-02 -0.14703820544E-01 -0.17860280714E-01  0.23178433186E-01  0.00000000000E+00 0. -1.
     999901    1    3    3    0    0 -0.36672624095E-01 -0.81415229735E-01 -0.64564147943E-01  0.88687194690E+00  0.88000000000E+00 0.  1.
        -11    1    4    4    0    0  0.25924654099E-01  0.60244201559E-01  0.64410271295E-01  0.91926033749E-01  0.51100000000E-03 0. -1.
         11    1    4    4    0    0  0.12178983340E-01  0.35874848721E-01  0.18014157363E-01  0.41953586169E-01  0.51100000000E-03 0.  1.
</event>
<event>
 8    1  0.1066842E+005  0.1043930E+01  0.7957747E-01            NaN
         13   -1    0    0    0    0  0.00000000000E+00  0.00000000000E+00  0.74505805969E-08  0.10566000000E+00  0.10566000000E+00 0. -1.
     999900   -1    0    0    0    0 -0.00000000000E+00 -0.00000000000E+00 -0.74505805969E-08  0.93827000000E+00  0.93827000000E+00 0. -1.
     999902    2    1    2    0    0  0.93774023987E-02 -0.16143976067E-02 -0.20910055986E-01  0.10209567025E+01  0.10206982003E+01 0.  0.
     999903    2    3    3    0    0  0.29809880909E-01 -0.21943670350E-01 -0.12847279359E+00  0.13393894170E+00  0.80142211954E-02 0.  0.
         14    1    1    2    0    0 -0.93774023987E-02  0.16143976067E-02  0.20910055986E-01  0.22973297472E-01  0.00000000000E+00 0. -1.
     999901    1    3    3    0    0 -0.20432478510E-01  0.20329272744E-01  0.10756273761E+00  0.88701776083E+00  0.88000000000E+00 0.  1.
        -11    1    4    4    0    0  0.14196851705E-01 -0.15105612240E-01 -0.66019909542E-01  0.69199853297E-01  0.51100000000E-03 0. -1.
         11    1    4    4    0    0  0.15613029204E-01 -0.68380581106E-02 -0.62452884050E-01  0.64739088400E-01  0.51100000000E-03 0.  1.
</event>
<event>
 8    1  0.1066842E+005  0.1043930E+01  0.7957747E-01            NaN
         13   -1    0    0    0    0  0.00000000000E+00  0.00000000000E+00  0.74505805969E-08  0.10566000000E+00  0.10566000000E+00 0. -1.
     999900   -1    0    0    0    0 -0.00000000000E+00 -0.00000000000E+00 -0.74505805969E-08  0.93827000000E+00  0.93827000000E+00 0. -1.
     999902    2    1    2    0    0 -0.22455840597E-01  0.91380878220E-02 -0.38927495475E-02  0.10193755111E+01  0.10190797367E+01 0.  0.
     999903    2    3    3    0    0  0.24688442370E-01 -0.12395736534E+00  0.29485924068E-02  0.12809340816E+00  0.20598043779E-01 0.  0.
         14    1    1    2    0    0  0.22455840597E-01 -0.91380878220E-02  0.38927495475E-02  0.24554488897E-01  0.00000000000E+00 0. -1.
     999901    1    3    3    0    0 -0.47144282967E-01  0.13309545316E+00 -0.68413419543E-02  0.89128210294E+00  0.88000000000E+00 0.  1.
        -11    1    4    4    0    0  0.12241905875E-01 -0.31883549616E-01  0.78655569500E-02  0.35050721857E-01  0.51100000000E-03 0. -1.
         11    1    4    4    0    0  0.12446536495E-01 -0.92073815725E-01 -0.49169645431E-02  0.93042686302E-01  0.51100000000E-03 0.  1.
</event>
<event>
 8    1  0.1066842E+005  0.1043930E+01  0.7957747E-01            NaN
         13   -1    0    0    0    0  0.00000000000E+00  0.00000000000E+00  0.74505805969E-08  0.10566000000E+00  0.10566000000E+00 0. -1.
     999900   -1    0    0    0    0 -0.00000000000E+00 -0.00000000000E+00 -0.74505805969E-08  0.93827000000E+00  0.93827000000E+00 0. -1.
     999902    2    1    2    0    0 -0.98820542428E-02 -0.37021256694E-02  0.22403895775E-01  0.10191652009E+01  0.10188642752E+01 0.  0.
     999903    2    3    3    0    0 -0.61993154104E-01 -0.11254162388E+00  0.10970499924E-01  0.13085651260E+00  0.22233010578E-01 0.  0.
         14    1    1    2    0    0  0.98820542428E-02  0.37021256694E-02 -0.22403895775E-01  0.24764799140E-01  0.00000000000E+00 0.  1.
     999901    1    3    3    0    0  0.52111099861E-01  0.10883949821E+00  0.11433395851E-01  0.88830868826E+00  0.88000000000E+00 0. -1.
        -11    1    4    4    0    0 -0.46837728803E-01 -0.92429119898E-01  0.16874434796E-01  0.10498534524E+00  0.51100000000E-03 0.  1.
         11    1    4    4    0    0 -0.15155425301E-01 -0.20112503984E-01 -0.59039348719E-02  0.25871167359E-01  0.51100000000E-03 0. -1.
</event>
<event>
 8    1  0.1066842E+005  0.1043930E+01  0.7957747E-01            NaN
         13   -1    0    0    0    0  0.00000000000E+00  0.00000000000E+00  0.74505805969E-08  0.10566000000E+00  0.10566000000E+00 0.  1.
     999900   -1    0    0    0    0 -0.00000000000E+00 -0.00000000000E+00 -0.74505805969E-08  0.93827000000E+00  0.93827000000E+00 0.  1.
     999902    2    1    2    0    0 -0.74617290731E-02  0.22440617299E-01 -0.77553655675E-02  0.10190421636E+01  0.10187382033E+01 0.  0.
     999903    2    3    3    0    0 -0.90218834646E-01  0.72818197534E-01  0.58274063067E-01  0.13126599555E+00  0.19823398914E-01 0.  0.
         14    1    1    2    0    0  0.74617290731E-02 -0.22440617299E-01  0.77553655675E-02  0.24887836399E-01  0.00000000000E+00 0. -1.
     999901    1    3    3    0    0  0.82757105573E-01 -0.50377580235E-01 -0.66029428635E-01  0.88777616805E+00  0.88000000000E+00 0.  1.
        -11    1    4    4    0    0 -0.39380648119E-01  0.44403849215E-01  0.28020860287E-01  0.65635104964E-01  0.51100000000E-03 0. -1.
         11    1    4    4    0    0 -0.50838186527E-01  0.28414348319E-01  0.30253202781E-01  0.65630890587E-01  0.51100000000E-03 0.  1.
</event>
<event>
 8    1  0.1066842E+005  0.1043930E+01  0.7957747E-01            NaN
         13   -1    0    0    0    0  0.00000000000E+00  0.00000000000E+00  0.74505805969E-08  0.10566000000E+00  0.10566000000E+00 0.  1.
     999900   -1    0    0    0    0 -0.00000000000E+00 -0.00000000000E+00 -0.74505805969E-08  0.93827000000E+00  0.93827000000E+00 0. -1.
     999902    2    1    2    0    0  0.22940887582E-01 -0.13152900500E-02 -0.43294458685E-02  0.10205471342E+01  0.10202792239E+01 0.  0.
     999903    2    3    3    0    0 -0.48981408405E-01 -0.48271754082E-01 -0.10881230297E+00  0.13021326784E+00  0.19647830232E-01 0.  0.
         14    1    1    2    0    0 -0.22940887582E-01  0.13152900500E-02  0.43294458685E-02  0.23382865789E-01  0.00000000000E+00 0. -1.
     999901    1    3    3    0    0  0.71922295987E-01  0.46956464032E-01  0.10448285710E+00  0.89033386637E+00  0.88000000000E+00 0.  1.
        -11    1    4    4    0    0 -0.30627380918E-01 -0.34863556457E-01 -0.56106481145E-01  0.72812789936E-01  0.51100000000E-03 0.  1.
         11    1    4    4    0    0 -0.18354027487E-01 -0.13408197624E-01 -0.52705821827E-01  0.57400477907E-01  0.51100000000E-03 0. -1.
</event>
<event>
 8    1  0.1066842E+005  0.1043930E+01  0.7957747E-01            NaN
         13   -1    0    0    0    0  0.00000000000E+00  0.00000000000E+00  0.74505805969E-08  0.10566000000E+00  0.10566000000E+00 0.  1.
     999900   -1    0    0    0    0 -0.00000000000E+00 -0.00000000000E+00 -0.74505805969E-08  0.93827000000E+00  0.93827000000E+00 0. -1.
     999902    2    1    2    0    0 -0.27694997277E-02 -0.22428978271E-01 -0.82700411300E-02  0.10198650301E+01  0.10195810693E+01 0.  0.
     999903    2    3    3    0    0 -0.91047439593E-01 -0.40053407296E-01 -0.84203496384E-01  0.13201960169E+00  0.21095846355E-01 0.  0.
         14    1    1    2    0    0  0.27694997277E-02  0.22428978271E-01  0.82700411300E-02  0.24064969880E-01  0.00000000000E+00 0.  1.
     999901    1    3    3    0    0  0.88277939865E-01  0.17624429025E-01  0.75933455254E-01  0.88784542843E+00  0.88000000000E+00 0.  1.
        -11    1    4    4    0    0 -0.68355446047E-01 -0.20855797004E-01 -0.65173051979E-01  0.96722381579E-01  0.51100000000E-03 0. -1.
         11    1    4    4    0    0 -0.22691993546E-01 -0.19197610292E-01 -0.19030444405E-01  0.35297220106E-01  0.51100000000E-03 0.  1.
</event>
<event>
 8    1  0.1066842E+005  0.1043930E+01  0.7957747E-01            NaN
         13   -1    0    0    0    0  0.00000000000E+00  0.00000000000E+00  0.74505805969E-08  0.10566000000E+00  0.10566000000E+00 0. -1.
     999900   -1    0    0    0    0 -0.00000000000E+00 -0.00000000000E+00 -0.74505805969E-08  0.93827000000E+00  0.93827000000E+00 0.  1.
     999902    2    1    2    0    0 -0.20959729712E-01 -0.22563485915E-02 -0.94382649394E-02  0.10208327659E+01  0.10205714349E+01 0.  0.
     999903    2    3    3    0    0 -0.85004739549E-01 -0.41848517193E-01  0.89946522188E-01  0.13204334256E+00  0.19182370151E-01 0.  0.
         14    1    1    2    0    0  0.20959729712E-01  0.22563485915E-02  0.94382649394E-02  0.23097234112E-01  0.00000000000E+00 0. -1.
     999901    1    3    3    0    0  0.64045009837E-01  0.39592168602E-01 -0.99384787127E-01  0.88878942332E+00  0.88000000000E+00 0.  1.
        -11    1    4    4    0    0 -0.52793753380E-01 -0.35702146408E-01  0.55989561373E-01  0.84834637724E-01  0.51100000000E-03 0.  1.
         11    1    4    4    0    0 -0.32210986169E-01 -0.61463707852E-02  0.33956960816E-01  0.47208704839E-01  0.51100000000E-03 0. -1.
</event>
<event>
 8    1  0.1066842E+005  0.1043930E+01  0.7957747E-01            NaN
         13   -1    0    0    0    0  0.00000000000E+00  0.00000000000E+00  0.74505805969E-08  0.10566000000E+00  0.10566000000E+00 0.  1.
     999900   -1    0    0    0    0 -0.00000000000E+00 -0.00000000000E+00 -0.74505805969E-08  0.93827000000E+00  0.93827000000E+00 0. -1.
     999902    2    1    2    0    0 -0.11567025869E-01 -0.16503483445E-01  0.14247525732E-01  0.10192489740E+01  0.10189501058E+01 0.  0.
     999903    2    3    3    0    0  0.94516837827E-01  0.60016605432E-01 -0.56975014242E-01  0.12673468264E+00  0.16736247371E-01 0.  0.
         14    1    1    2    0    0  0.11567025869E-01  0.16503483445E-01 -0.14247525732E-01  0.24681025967E-01  0.00000000000E+00 0. -1.
     999901    1    3    3    0    0 -0.10608386370E+00 -0.76520088877E-01  0.71222539974E-01  0.89251429139E+00  0.88000000000E+00 0.  1.
        -11    1    4    4    0    0  0.20530131142E-01  0.20803298222E-01 -0.18383619755E-01  0.34532334093E-01  0.51100000000E-03 0.  1.
         11    1    4    4    0    0  0.73986706685E-01  0.39213307210E-01 -0.38591394487E-01  0.92202348549E-01  0.51100000000E-03 0. -1.
</event>
<event>
 8    1  0.1066842E+005  0.1043930E+01  0.7957747E-01            NaN
         13   -1    0    0    0    0  0.00000000000E+00  0.00000000000E+00  0.74505805969E-08  0.10566000000E+00  0.10566000000E+00 0. -1.
     999900   -1    0    0    0    0 -0.00000000000E+00 -0.00000000000E+00 -0.74505805969E-08  0.93827000000E+00  0.93827000000E+00 0.  1.
     999902    2    1    2    0    0 -0.21057473093E-02 -0.29366630649E-02  0.22983443853E-01  0.10206642128E+01  0.10203990094E+01 0.  0.
     999903    2    3    3    0    0  0.17492118397E-01  0.10748811401E+00  0.72208166030E-01  0.13218192206E+00  0.19959268975E-01 0.  0.
         14    1    1    2    0    0  0.21057473093E-02  0.29366630649E-02 -0.22983443853E-01  0.23265787178E-01  0.00000000000E+00 0.  1.
     999901    1    3    3    0    0 -0.19597865706E-01 -0.11042477707E+00 -0.49224722178E-01  0.88848229077E+00  0.88000000000E+00 0.  1.
        -11    1    4    4    0    0  0.14443244109E-02  0.71096779311E-02 -0.36180054851E-03  0.72818688484E-02  0.51100000000E-03 0. -1.
         11    1    4    4    0    0  0.16047793986E-01  0.10037843608E+00  0.72569966579E-01  0.12490005321E+00  0.51100000000E-03 0.  1.
</event>
<event>
 7    1  0.1066842E+005  0.1043930E+01  0.7957747E-01            NaN
         13   -1    0    0    0    0  0.00000000000E+00  0.00000000000E+00  0.74505805969E-08  0.10566000000E+00  0.10566000000E+00 0. -1.
     999900   -1    0    0    0    0 -0.00000000000E+00 -0.00000000000E+00 -0.74505805969E-08  0.93827000000E+00  0.93827000000E+00 0. -1.
     999903    2    1    2    0    0  0.45304872450E-01 -0.10318908621E+00  0.16664635092E-02  0.11442203741E+00  0.19725784266E-01 0.  0.
         14    1    1    2    0    0 -0.15920986371E-01  0.28349759138E-01 -0.31593829594E-01  0.45336042159E-01  0.00000000000E+00 0. -1.
     999901    1    1    2    0    0 -0.29383886080E-01  0.74839327068E-01  0.29927366085E-01  0.88417192043E+00  0.88000000000E+00 0.  1.
        -11    1    3    3    0    0  0.28536553940E-01 -0.83615988307E-01 -0.20507388159E-02  0.88376665823E-01  0.51100000000E-03 0. -1.
         11    1    3    3    0    0  0.16768318510E-01 -0.19573097898E-01  0.37172023251E-02  0.26045371587E-01  0.51100000000E-03 0.  1.
</event>
<event>
 8    1  0.1066842E+005  0.1043930E+01  0.7957747E-01            NaN
         13   -1    0    0    0    0  0.00000000000E+00  0.00000000000E+00  0.74505805969E-08  0.10566000000E+00  0.10566000000E+00 0.  1.
     999900   -1    0    0    0    0 -0.00000000000E+00 -0.00000000000E+00 -0.74505805969E-08  0.93827000000E+00  0.93827000000E+00 0.  1.
     999902    2    1    2    0    0  0.11112341100E-02  0.21798278340E-01 -0.12627430880E-01  0.10187138982E+01  0.10184017648E+01 0.  0.
     999903    2    3    3    0    0  0.87215729315E-01 -0.50747849226E-02 -0.94574684786E-01  0.13031562149E+00  0.20135871470E-01 0.  0.
         14    1    1    2    0    0 -0.11112341100E-02 -0.21798278340E-01  0.12627430880E-01  0.25216101809E-01  0.00000000000E+00 0.  1.
     999901    1    3    3    0    0 -0.86104495205E-01  0.26873063262E-01  0.81947253906E-01  0.88839827670E+00  0.88000000000E+00 0. -1.
        -11    1    4    4    0    0  0.49164188998E-01 -0.25333700173E-02 -0.38494079284E-01  0.62494725413E-01  0.51100000000E-03 0.  1.
         11    1    4    4    0    0  0.38051540317E-01 -0.25414149053E-02 -0.56080605501E-01  0.67820896076E-01  0.51100000000E-03 0. -1.
</event>
<event>
 8    1  0.1066842E+005  0.1043930E+01  0.7957747E-01            NaN
         13   -1    0    0    0    0  0.00000000000E+00  0.00000000000E+00  0.74505805969E-08  0.10566000000E+00  0.10566000000E+00 0. -1.
     999900   -1    0    0    0    0 -0.00000000000E+00 -0.00000000000E+00 -0.74505805969E-08  0.93827000000E+00  0.93827000000E+00 0.  1.
     999902    2    1    2    0    0 -0.14130349948E-01  0.15799700520E-01  0.88682891706E-02  0.10209529706E+01  0.10206943834E+01 0.  0.
     999903    2    3    3    0    0  0.83565582256E-01  0.71308780160E-01 -0.67654119317E-01  0.13051407205E+00  0.19715336080E-01 0.  0.
         14    1    1    2    0    0  0.14130349948E-01 -0.15799700520E-01 -0.88682891706E-02  0.22977029377E-01  0.00000000000E+00 0.  1.
     999901    1    3    3    0    0 -0.97695932204E-01 -0.55509079640E-01  0.76522408488E-01  0.89043889857E+00  0.88000000000E+00 0. -1.
        -11    1    4    4    0    0  0.49242766562E-01  0.42070661684E-01 -0.51028559752E-01  0.82455840694E-01  0.51100000000E-03 0. -1.
         11    1    4    4    0    0  0.34322815693E-01  0.29238118477E-01 -0.16625559565E-01  0.48058231356E-01  0.51100000000E-03 0.  1.
</event>
<event>
 8    1  0.1561384E+005  0.1043930E+01  0.7957747E-01            NaN
         13   -1    0    0    0    0  0.00000000000E+00  0.00000000000E+00  0.74505805969E-08  0.10566000000E+00  0.10566000000E+00 0. -1.
     999900   -1    0    0    0    0 -0.00000000000E+00 -0.00000000000E+00 -0.74505805969E-08  0.93827000000E+00  0.93827000000E+00 0.  1.
     999902    2    1    2    0    0 -0.16020982112E-01  0.73157360296E-02  0.12273807485E-01  0.10224628574E+01  0.10222374756E+01 0.  0.
     999903    2    3    3    0    0  0.40744402426E-01  0.97142047286E-01 -0.75472181931E-01  0.13173818965E+00  0.23711108916E-01 0.  0.
         14    1    1    2    0    0  0.16020982112E-01 -0.73157360296E-02 -0.12273807485E-01  0.21467142606E-01  0.00000000000E+00 0.  1.
     999901    1    3    3    0    0 -0.56765384538E-01 -0.89826311257E-01  0.87745989415E-01  0.89072466775E+00  0.88000000000E+00 0.  1.
        -11    1    4    4    0    0  0.55984597232E-02  0.38755348446E-01 -0.34697271793E-01  0.52320947768E-01  0.51100000000E-03 0.  1.
         11    1    4    4    0    0  0.35145942702E-01  0.58386698840E-01 -0.40774910138E-01  0.79417241878E-01  0.51100000000E-03 0. -1.
</event>
<event>
 8    1  0.1066842E+005  0.1043930E+01  0.7957747E-01            NaN
         13   -1    0    0    0    0  0.00000000000E+00  0.00000000000E+00  0.74505805969E-08  0.10566000000E+00  0.10566000000E+00 0. -1.
     999900   -1    0    0    0    0 -0.00000000000E+00 -0.00000000000E+00 -0.74505805969E-08  0.93827000000E+00  0.93827000000E+00 0.  1.
     999902    2    1    2    0    0  0.12300889471E-01  0.12808591647E-02 -0.18841414280E-01  0.10213922234E+01  0.10211435368E+01 0.  0.
     999903    2    3    3    0    0 -0.84576664452E-01  0.29548107112E-02  0.94937250267E-01  0.12879284682E+00  0.20311888813E-01 0.  0.
         14    1    1    2    0    0 -0.12300889471E-01 -0.12808591647E-02  0.18841414280E-01  0.22537776599E-01  0.00000000000E+00 0. -1.
     999901    1    3    3    0    0  0.96877553923E-01 -0.16739515464E-02 -0.11377866455E+00  0.89259937658E+00  0.88000000000E+00 0.  1.
        -11    1    4    4    0    0 -0.62688128377E-01  0.10092126311E-01  0.63274789713E-01  0.89641578451E-01  0.51100000000E-03 0. -1.
         11    1    4    4    0    0 -0.21888536075E-01 -0.71373155996E-02  0.31662460555E-01  0.39151268368E-01  0.51100000000E-03 0.  1.
</event>
<event>
 8    1  0.1066842E+005  0.1043930E+01  0.7957747E-01            NaN
         13   -1    0    0    0    0  0.00000000000E+00  0.00000000000E+00  0.74505805969E-08  0.10566000000E+00  0.10566000000E+00 0. -1.
     999900   -1    0    0    0    0 -0.00000000000E+00 -0.00000000000E+00 -0.74505805969E-08  0.93827000000E+00  0.93827000000E+00 0. -1.
     999902    2    1    2    0    0  0.10206987481E-01  0.19496596158E-01  0.79315309554E-02  0.10205375004E+01  0.10202693667E+01 0.  0.
     999903    2    3    3    0    0 -0.10426230279E+00  0.12920738949E-01  0.74778696973E-01  0.13058525227E+00  0.20568940464E-01 0.  0.
         14    1    1    2    0    0 -0.10206987481E-01 -0.19496596158E-01 -0.79315309554E-02  0.23392499620E-01  0.00000000000E+00 0.  1.
     999901    1    3    3    0    0  0.11446929027E+00  0.65758572088E-02 -0.66847166017E-01  0.88995224811E+00  0.88000000000E+00 0.  1.
        -11    1    4    4    0    0 -0.57811742455E-01  0.16937736519E-01  0.45929068391E-01  0.75755032363E-01  0.51100000000E-03 0.  1.
         11    1    4    4    0    0 -0.46450560332E-01 -0.40169975698E-02  0.28849628582E-01  0.54830219906E-01  0.51100000000E-03 0. -1.
</event>
<event>
 8    1  0.1066842E+005  0.1043930E+01  0.7957747E-01            NaN
         13   -1    0    0    0    0  0.00000000000E+00  0.00000000000E+00  0.74505805969E-08  0.10566000000E+00  0.10566000000E+00 0.  1.
     999900   -1    0    0    0    0 -0.00000000000E+00 -0.00000000000E+00 -0.74505805969E-08  0.93827000000E+00  0.93827000000E+00 0. -1.
     999902    2    1    2    0    0 -0.79242673651E-02 -0.36055633398E-02  0.22718589585E-01  0.10196004210E+01  0.10193101050E+01 0.  0.
     999903    2    3    3    0    0 -0.48920600071E-01 -0.20788811774E-01 -0.11470112302E+00  0.12782682827E+00  0.18919582385E-01 0.  0.
         14    1    1    2    0    0  0.79242673651E-02  0.36055633398E-02 -0.22718589585E-01  0.24329578973E-01  0.00000000000E+00 0. -1.
     999901    1    3    3    0    0  0.40996332706E-01  0.17183248435E-01  0.13741971261E+00  0.89177359275E+00  0.88000000000E+00 0.  1.
        -11    1    4    4    0    0 -0.12429270855E-01 -0.31791974429E-03 -0.43453789662E-01  0.45200451368E-01  0.51100000000E-03 0.  1.
         11    1    4    4    0    0 -0.36491329216E-01 -0.20470892030E-01 -0.71247333359E-01  0.82626376903E-01  0.51100000000E-03 0. -1.
</event>
<event>
 8    1  0.1066842E+005  0.1043930E+01  0.7957747E-01            NaN
         13   -1    0    0    0    0  0.00000000000E+00  0.00000000000E+00  0.74505805969E-08  0.10566000000E+00  0.10566000000E+00 0.  1.
     999900   -1    0    0    0    0 -0.00000000000E+00 -0.00000000000E+00 -0.74505805969E-08  0.93827000000E+00  0.93827000000E+00 0.  1.
     999902    2    1    2    0    0  0.12913561108E-01  0.43117475735E-02 -0.19042284965E-01  0.10205214579E+01  0.10202529520E+01 0.  0.
     999903    2    3    3    0    0 -0.10314668616E+00  0.20318623894E-01 -0.76283948160E-01  0.13091322439E+00  0.16338489214E-01 0.  0.
         14    1    1    2    0    0 -0.12913561108E-01 -0.43117475735E-02  0.19042284965E-01  0.23408542123E-01  0.00000000000E+00 0.  1.
     999901    1    3    3    0    0  0.11606024727E+00 -0.16006876321E-01  0.57241663194E-01  0.88960823349E+00  0.88000000000E+00 0. -1.
        -11    1    4    4    0    0 -0.67545815931E-01  0.16030321648E-01 -0.41119186273E-01  0.80687403370E-01  0.51100000000E-03 0. -1.
         11    1    4    4    0    0 -0.35600870231E-01  0.42883022460E-02 -0.35164761887E-01  0.50225821018E-01  0.51100000000E-03 0.  1.
</event>
<event>
 8    1  0.1066842E+005  0.1043930E+01  0.7957747E-01            NaN
         13   -1    0    0    0    0  0.00000000000E+00  0.00000000000E+00  0.74505805969E-08  0.10566000000E+00  0.10566000000E+00 0. -1.
     999900   -1    0    0    0    0 -0.00000000000E+00 -0.00000000000E+00 -0.74505805969E-08  0.93827000000E+00  0.93827000000E+00 0. -1.
     999902    2    1    2    0    0 -0.10046185083E-01  0.32496642299E-02  0.21612044757E-01  0.10198765880E+01  0.10195929031E+01 0.  0.
     999903    2    3    3    0    0  0.67331986964E-02 -0.71736444025E-01 -0.10338331181E+00  0.12772844818E+00  0.20856508497E-01 0.  0.
         14    1    1    2    0    0  0.10046185083E-01 -0.32496642299E-02 -0.21612044757E-01  0.24053412043E-01  0.00000000000E+00 0.  1.
     999901    1    3    3    0    0 -0.16779383780E-01  0.74986108255E-01  0.12499535657E+00  0.89214813978E+00  0.88000000000E+00 0.  1.
        -11    1    4    4    0    0 -0.49772610706E-02 -0.78363935003E-02 -0.76885149305E-02  0.12064682909E-01  0.51100000000E-03 0.  1.
         11    1    4    4    0    0  0.11710459767E-01 -0.63900050524E-01 -0.95694796880E-01  0.11566376527E+00  0.51100000000E-03 0. -1.
</event>
<event>
 8    1  0.1066842E+005  0.1043930E+01  0.7957747E-01            NaN
         13   -1    0    0    0    0  0.00000000000E+00  0.00000000000E+00  0.74505805969E-08  0.10566000000E+00  0.10566000000E+00 0.  1.
     999900   -1    0    0    0    0 -0.00000000000E+00 -0.00000000000E+00 -0.74505805969E-08  0.93827000000E+00  0.93827000000E+00 0.  1.
     999902    2    1    2    0    0 -0.22217420878E-04  0.23327433788E-01 -0.32966874831E-02  0.10203707596E+01  0.10200987448E+01 0.  0.
     999903    2    3    3    0    0  0.11727501671E-01 -0.12546477255E+00  0.60954574965E-02  0.12775360259E+00  0.20121752559E-01 0.  0.
         14    1    1    2    0    0  0.22217420878E-04 -0.23327433788E-01  0.32966874831E-02  0.23559240418E-01  0.00000000000E+00 0. -1.
     999901    1    3    3    0    0 -0.11749719092E-01  0.14879220634E+00 -0.93921449796E-02  0.89261715699E+00  0.88000000000E+00 0. -1.
        -11    1    4    4    0    0  0.81232029278E-02 -0.15036741173E-01  0.12905417029E-04  0.17098283495E-01  0.51100000000E-03 0.  1.
         11    1    4    4    0    0  0.36042987435E-02 -0.11042803138E+00  0.60825520795E-02  0.11065531910E+00  0.51100000000E-03 0. -1.
</event>
<event>
 8    1  0.1066842E+005  0.1043930E+01  0.7957747E-01            NaN
         13   -1    0    0    0    0  0.00000000000E+00  0.00000000000E+00  0.74505805969E-08  0.10566000000E+00  0.10566000000E+00 0.  1.
     999900   -1    0    0    0    0 -0.00000000000E+00 -0.00000000000E+00 -0.74505805969E-08  0.93827000000E+00  0.93827000000E+00 0. -1.
     999902    2    1    2    0    0 -0.18842139497E-01  0.13932238677E-01  0.49373604235E-02  0.10199819098E+01  0.10197007332E+01 0.  0.
     999903    2    3    3    0    0  0.11443117181E+00  0.60116047632E-02  0.55170411330E-01  0.12849558275E+00  0.18349605634E-01 0.  0.
         14    1    1    2    0    0  0.18842139497E-01 -0.13932238677E-01 -0.49373604235E-02  0.23948090182E-01  0.00000000000E+00 0. -1.
     999901    1    3    3    0    0 -0.13327331130E+00  0.79206339141E-02 -0.50233050906E-01  0.89148632707E+00  0.88000000000E+00 0.  1.
        -11    1    4    4    0    0  0.45057117821E-01 -0.49074105328E-02  0.27465565932E-01  0.52998537503E-01  0.51100000000E-03 0.  1.
         11    1    4    4    0    0  0.69374053986E-01  0.10919015296E-01  0.27704845398E-01  0.75497045247E-01  0.51100000000E-03 0. -1.
</event>
<event>
 8    1  0.1066842E+005  0.1043930E+01  0.7957747E-01            NaN
         13   -1    0    0    0    0  0.00000000000E+00  0.00000000000E+00  0.74505805969E-08  0.10566000000E+00  0.10566000000E+00 0.  1.
     999900   -1    0    0    0    0 -0.00000000000E+00 -0.00000000000E+00 -0.74505805969E-08  0.93827000000E+00  0.93827000000E+00 0. -1.
     999902    2    1    2    0    0  0.22310506799E-01 -0.23948055514E-02  0.89093867041E-02  0.10197872790E+01  0.10195014582E+01 0.  0.
     999903    2    3    3    0    0 -0.83557557629E-01 -0.89420234659E-01 -0.32490510251E-01  0.12821819929E+00  0.20160098437E-01 0.  0.
         14    1    1    2    0    0 -0.22310506799E-01  0.23948055514E-02 -0.89093867041E-02  0.24142721029E-01  0.00000000000E+00 0.  1.
     999901    1    3    3    0    0  0.10586806443E+00  0.87025429108E-01  0.41399896956E-01  0.89156907968E+00  0.88000000000E+00 0.  1.
        -11    1    4    4    0    0 -0.30292669992E-01 -0.35727305877E-01 -0.22370127805E-01  0.51911173937E-01  0.51100000000E-03 0.  1.
         11    1    4    4    0    0 -0.53264887638E-01 -0.53692928782E-01 -0.10120382446E-01  0.76307025352E-01  0.51100000000E-03 0. -1.
</event>
<event>
 8    1  0.1066842E+005  0.1043930E+01  0.7957747E-01            NaN
         13   -1    0    0    0    0  0.00000000000E+00  0.00000000000E+00  0.74505805969E-08  0.10566000000E+00  0.10566000000E+00 0. -1.
     999900   -1    0    0    0    0 -0.00000000000E+00 -0.00000000000E+00 -0.74505805969E-08  0.93827000000E+00  0.93827000000E+00 0.  1.
     999902    2    1    2    0    0 -0.20771499794E-01  0.26979419227E-02  0.10688179009E-01  0.10204146589E+01  0.10201436688E+01 0.  0.
     999903    2    3    3    0    0  0.73575386059E-02  0.47665300334E-02  0.13000261594E+00  0.13191510536E+00  0.20592758202E-01 0.  0.
         14    1    1    2    0    0  0.20771499794E-01 -0.26979419227E-02 -0.10688179009E-01  0.23515341053E-01  0.00000000000E+00 0.  1.
     999901    1    3    3    0    0 -0.28129038400E-01 -0.20685881107E-02 -0.11931443693E+00  0.88849955358E+00  0.88000000000E+00 0.  1.
        -11    1    4    4    0    0  0.41174827129E-02 -0.67032574971E-02  0.84770170095E-01  0.85135951184E-01  0.51100000000E-03 0. -1.
         11    1    4    4    0    0  0.32400558930E-02  0.11469787530E-01  0.45232445840E-01  0.46779154181E-01  0.51100000000E-03 0.  1.
</event>
<event>
 8    1  0.1066842E+005  0.1043930E+01  0.7957747E-01            NaN
         13   -1    0    0    0    0  0.00000000000E+00  0.00000000000E+00  0.74505805969E-08  0.10566000000E+00  0.10566000000E+00 0.  1.
     999900   -1    0    0    0    0 -0.00000000000E+00 -0.00000000000E+00 -0.74505805969E-08  0.93827000000E+00  0.93827000000E+00 0. -1.
     999902    2    1    2    0    0  0.21063407831E-01  0.35540007084E-03 -0.10419159842E-01  0.10204278224E+01  0.10201571391E+01 0.  0.
     999903    2    3    3    0    0  0.52060783349E-01  0.11531657519E+00 -0.32565503379E-01  0.13213318122E+00  0.19759248307E-01 0.  0.
         14    1    1    2    0    0 -0.21063407831E-01 -0.35540007084E-03  0.10419159842E-01  0.23502177569E-01  0.00000000000E+00 0.  1.
     999901    1    3    3    0    0 -0.30997375518E-01 -0.11496117511E+00  0.22146343537E-01  0.88829464121E+00  0.88000000000E+00 0.  1.
        -11    1    4    4    0    0  0.28905451930E-01  0.74000493036E-01 -0.11425358707E-01  0.80264550477E-01  0.51100000000E-03 0. -1.
         11    1    4    4    0    0  0.23155331420E-01  0.41316082149E-01 -0.21140144673E-01  0.51868630742E-01  0.51100000000E-03 0.  1.
</event>
<event>
 8    1  0.1066842E+005  0.1043930E+01  0.7957747E-01            NaN
         13   -1    0    0    0    0  0.00000000000E+00  0.00000000000E+00  0.74505805969E-08  0.10566000000E+00  0.10566000000E+00 0.  1.
     999900   -1    0    0    0    0 -0.00000000000E+00 -0.00000000000E+00 -0.74505805969E-08  0.93827000000E+00  0.93827000000E+00 0. -1.
     999902    2    1    2    0    0 -0.10559011223E-01 -0.11157306048E-01 -0.17772945062E-01  0.10204383893E+01  0.10201679522E+01 0.  0.
     999903    2    3    3    0    0  0.72900826619E-01 -0.85323825608E-01  0.62076417332E-01  0.12979696999E+00  0.19977139193E-01 0.  0.
         14    1    1    2    0    0  0.10559011223E-01  0.11157306048E-01  0.17772945062E-01  0.23491610682E-01  0.00000000000E+00 0.  1.
     999901    1    3    3    0    0 -0.83459837842E-01  0.74166519561E-01 -0.79849362394E-01  0.89064141933E+00  0.88000000000E+00 0. -1.
        -11    1    4    4    0    0  0.58271680175E-01 -0.76962583494E-01  0.57363847825E-01  0.11229292109E+00  0.51100000000E-03 0.  1.
         11    1    4    4    0    0  0.14629146445E-01 -0.83612421146E-02  0.47125695067E-02  0.17504048896E-01  0.51100000000E-03 0. -1.
</event>
<event>
 8    1  0.1066842E+005  0.1043930E+01  0.7957747E-01            NaN
         13   -1    0    0    0    0  0.00000000000E+00  0.00000000000E+00  0.74505805969E-08  0.10566000000E+00  0.10566000000E+00 0. -1.
     999900   -1    0    0    0    0 -0.00000000000E+00 -0.00000000000E+00 -0.74505805969E-08  0.93827000000E+00  0.93827000000E+00 0. -1.
     999902    2    1    2    0    0  0.28167617418E-02 -0.55500020852E-03 -0.23815713279E-01  0.10199418702E+01  0.10196597414E+01 0.  0.
     999903    2    3    3    0    0 -0.99376695078E-01  0.50243826489E-01 -0.67336961759E-01  0.13150609736E+00  0.18958312119E-01 0.  0.
         14    1    1    2    0    0 -0.28167617418E-02  0.55500020852E-03  0.23815713279E-01  0.23988129792E-01  0.00000000000E+00 0. -1.
     999901    1    3    3    0    0  0.10219345682E+00 -0.50798826697E-01  0.43521248480E-01  0.88843577285E+00  0.88000000000E+00 0.  1.
        -11    1    4    4    0    0 -0.78746240828E-01  0.32135382987E-01 -0.55814884252E-01  0.10173109510E+00  0.51100000000E-03 0. -1.
         11    1    4    4    0    0 -0.20630454250E-01  0.18108443502E-01 -0.11522077507E-01  0.29775002262E-01  0.51100000000E-03 0.  1.
</event>
<event>
 8    1  0.1066842E+005  0.1043930E+01  0.7957747E-01            NaN
         13   -1    0    0    0    0  0.00000000000E+00  0.00000000000E+00  0.74505805969E-08  0.10566000000E+00  0.10566000000E+00 0.  1.
     999900   -1    0    0    0    0 -0.00000000000E+00 -0.00000000000E+00 -0.74505805969E-08  0.93827000000E+00  0.93827000000E+00 0.  1.
     999902    2    1    2    0    0  0.17786467790E-01  0.13549485194E-01  0.45734929650E-03  0.10215658288E+01  0.10213210007E+01 0.  0.
     999903    2    3    3    0    0 -0.58056658387E-01  0.10293561385E+00  0.55601601791E-01  0.13208117554E+00  0.19687118336E-01 0.  0.
         14    1    1    2    0    0 -0.17786467790E-01 -0.13549485194E-01 -0.45734929650E-03  0.22364171208E-01  0.00000000000E+00 0.  1.
     999901    1    3    3    0    0  0.75843126177E-01 -0.89386128658E-01 -0.55144252495E-01  0.88948465325E+00  0.88000000000E+00 0.  1.
        -11    1    4    4    0    0 -0.31909400169E-01  0.57230683164E-01  0.19977964468E-01  0.68505044339E-01  0.51100000000E-03 0. -1.
         11    1    4    4    0    0 -0.26147258218E-01  0.45704930688E-01  0.35623637323E-01  0.63576131202E-01  0.51100000000E-03 0.  1.
</event>
<event>
 8    1  0.1066842E+005  0.1043930E+01  0.7957747E-01            NaN
         13   -1    0    0    0    0  0.00000000000E+00  0.00000000000E+00  0.74505805969E-08  0.10566000000E+00  0.10566000000E+00 0.  1.
     999900   -1    0    0    0    0 -0.00000000000E+00 -0.00000000000E+00 -0.74505805969E-08  0.93827000000E+00  0.93827000000E+00 0.  1.
     999902    2    1    2    0    0 -0.16013606842E-01 -0.71930337110E-02 -0.14484772930E-01  0.10211707385E+01  0.10209170844E+01 0.  0.
     999903    2    3    3    0    0  0.30787129705E-01 -0.43402176413E-01  0.11632235526E+00  0.12953633148E+00  0.20424851699E-01 0.  0.
         14    1    1    2    0    0  0.16013606842E-01  0.71930337110E-02  0.14484772930E-01  0.22759261519E-01  0.00000000000E+00 0.  1.
     999901    1    3    3    0    0 -0.46800736547E-01  0.36209142702E-01 -0.13080712819E+00  0.89163440700E+00  0.88000000000E+00 0.  1.
        -11    1    4    4    0    0 -0.60680001620E-03 -0.14779361782E-02  0.18481272808E-01  0.18557237597E-01  0.51100000000E-03 0.  1.
         11    1    4    4    0    0  0.31393929722E-01 -0.41924240235E-01  0.97841082456E-01  0.11097909389E+00  0.51100000000E-03 0. -1.
</event>
<event>
 8    1  0.1066842E+005  0.1043930E+01  0.7957747E-01            NaN
         13   -1    0    0    0    0  0.00000000000E+00  0.00000000000E+00  0.74505805969E-08  0.10566000000E+00  0.10566000000E+00 0.  1.
     999900   -1    0    0    0    0 -0.00000000000E+00 -0.00000000000E+00 -0.74505805969E-08  0.93827000000E+00  0.93827000000E+00 0. -1.
     999902    2    1    2    0    0 -0.15578243657E-02 -0.30644853578E-02  0.24600164428E-01  0.10190907976E+01  0.10187880387E+01 0.  0.
     999903    2    3    3    0    0  0.11189675301E+00  0.15392894501E-01 -0.56487614047E-01  0.12791862351E+00  0.20359252565E-01 0.  0.
         14    1    1    2    0    0  0.15578243657E-02  0.30644853578E-02 -0.24600164428E-01  0.24839202426E-01  0.00000000000E+00 0.  1.
     999901    1    3    3    0    0 -0.11345457738E+00 -0.18457379859E-01  0.81087778475E-01  0.89117217406E+00  0.88000000000E+00 0.  1.
        -11    1    4    4    0    0  0.10158829279E+00  0.18619479291E-01 -0.46761573519E-01  0.11337447737E+00  0.51100000000E-03 0. -1.
         11    1    4    4    0    0  0.10308460227E-01 -0.32265847905E-02 -0.97260405281E-02  0.14544146143E-01  0.51100000000E-03 0.  1.
</event>
<event>
 8    1  0.1066842E+005  0.1043930E+01  0.7957747E-01            NaN
         13   -1    0    0    0    0  0.00000000000E+00  0.00000000000E+00  0.74505805969E-08  0.10566000000E+00  0.10566000000E+00 0.  1.
     999900   -1    0    0    0    0 -0.00000000000E+00 -0.00000000000E+00 -0.74505805969E-08  0.93827000000E+00  0.93827000000E+00 0. -1.
     999902    2    1    2    0    0 -0.51095902499E-03  0.76042596241E-02  0.21442922684E-01  0.10211729181E+01  0.10209193131E+01 0.  0.
     999903    2    3    3    0    0  0.54203645734E-01  0.61391963237E-01  0.10482562840E+00  0.13390774880E+00  0.15357879386E-01 0.  0.
         14    1    1    2    0    0  0.51095902499E-03 -0.76042596241E-02 -0.21442922684E-01  0.22757081904E-01  0.00000000000E+00 0. -1.
     999901    1    3    3    0    0 -0.54714604759E-01 -0.53787703613E-01 -0.83382705711E-01  0.88726516930E+00  0.88000000000E+00 0. -1.
        -11    1    4    4    0    0  0.12195365855E-01  0.20305833504E-01  0.21832407217E-01  0.32217525487E-01  0.51100000000E-03 0.  1.
         11    1    4    4    0    0  0.42008279879E-01  0.41086129733E-01  0.82993221178E-01  0.10169022331E+00  0.51100000000E-03 0. -1.
</event>
<event>
 8    1  0.1066842E+005  0.1043930E+01  0.7957747E-01            NaN
         13   -1    0    0    0    0  0.00000000000E+00  0.00000000000E+00  0.74505805969E-08  0.10566000000E+00  0.10566000000E+00 0. -1.
     999900   -1    0    0    0    0 -0.00000000000E+00 -0.00000000000E+00 -0.74505805969E-08  0.93827000000E+00  0.93827000000E+00 0.  1.
     999902    2    1    2    0    0  0.20808427363E-01  0.91587534176E-02 -0.70603354903E-02  0.10201240816E+01  0.10198462728E+01 0.  0.
     999903    2    3    3    0    0 -0.99357384648E-01 -0.69170450586E-01 -0.36020947168E-01  0.12804000283E+00  0.20983149684E-01 0.  0.
         14    1    1    2    0    0 -0.20808427363E-01 -0.91587534176E-02  0.70603354903E-02  0.23805918397E-01  0.00000000000E+00 0.  1.
     999901    1    3    3    0    0  0.12016581201E+00  0.78329204004E-01  0.28960611678E-01  0.89208407878E+00  0.88000000000E+00 0.  1.
        -11    1    4    4    0    0 -0.69736654143E-01 -0.54045181774E-01 -0.17429495874E-01  0.89934037224E-01  0.51100000000E-03 0. -1.
         11    1    4    4    0    0 -0.29620730505E-01 -0.15125268813E-01 -0.18591451295E-01  0.38105965603E-01  0.51100000000E-03 0.  1.
</event>
<event>
 8    1  0.1066842E+005  0.1043930E+01  0.7957747E-01            NaN
         13   -1    0    0    0    0  0.00000000000E+00  0.00000000000E+00  0.74505805969E-08  0.10566000000E+00  0.10566000000E+00 0.  1.
     999900   -1    0    0    0    0 -0.00000000000E+00 -0.00000000000E+00 -0.74505805969E-08  0.93827000000E+00  0.93827000000E+00 0. -1.
     999902    2    1    2    0    0 -0.83515280894E-02 -0.28828924985E-02  0.21288125384E-01  0.10208812826E+01  0.10206210608E+01 0.  0.
     999903    2    3    3    0    0  0.12778415023E+00  0.78322903729E-02 -0.50245052631E-02  0.12996035875E+00  0.21778782609E-01 0.  0.
         14    1    1    2    0    0  0.83515280894E-02  0.28828924985E-02 -0.21288125384E-01  0.23048717382E-01  0.00000000000E+00 0. -1.
     999901    1    3    3    0    0 -0.13613567831E+00 -0.10715182871E-01  0.26312630648E-01  0.89092092387E+00  0.88000000000E+00 0.  1.
        -11    1    4    4    0    0  0.89479127383E-01  0.13892912746E-01 -0.88660852319E-02  0.90985690359E-01  0.51100000000E-03 0.  1.
         11    1    4    4    0    0  0.38305022842E-01 -0.60606223729E-02  0.38415799688E-02  0.38974668391E-01  0.51100000000E-03 0. -1.
</event>
<event>
 8    1  0.1066842E+005  0.1043930E+01  0.7957747E-01            NaN
         13   -1    0    0    0    0  0.00000000000E+00  0.00000000000E+00  0.74505805969E-08  0.10566000000E+00  0.10566000000E+00 0. -1.
     999900   -1    0    0    0    0 -0.00000000000E+00 -0.00000000000E+00 -0.74505805969E-08  0.93827000000E+00  0.93827000000E+00 0. -1.
     999902    2    1    2    0    0 -0.12728769436E-01  0.15965619820E-01 -0.10838807144E-01  0.10208128564E+01  0.10205510695E+01 0.  0.
     999903    2    3    3    0    0  0.57374554954E-01  0.91958160910E-01 -0.74830794796E-01  0.13245239079E+00  0.13994465379E-01 0.  0.
         14    1    1    2    0    0  0.12728769436E-01 -0.15965619820E-01  0.10838807144E-01  0.23117143594E-01  0.00000000000E+00 0. -1.
     999901    1    3    3    0    0 -0.70103324390E-01 -0.75992541089E-01  0.63991987652E-01  0.88836046562E+00  0.88000000000E+00 0.  1.
        -11    1    4    4    0    0  0.44065269244E-01  0.73967900833E-01 -0.52553059417E-01  0.10087161882E+00  0.51100000000E-03 0.  1.
         11    1    4    4    0    0  0.13309285710E-01  0.17990260077E-01 -0.22277735379E-01  0.31580771972E-01  0.51100000000E-03 0. -1.
</event>
<event>
 8    1  0.1066842E+005  0.1043930E+01  0.7957747E-01            NaN
         13   -1    0    0    0    0  0.00000000000E+00  0.00000000000E+00  0.74505805969E-08  0.10566000000E+00  0.10566000000E+00 0.  1.
     999900   -1    0    0    0    0 -0.00000000000E+00 -0.00000000000E+00 -0.74505805969E-08  0.93827000000E+00  0.93827000000E+00 0.  1.
     999902    2    1    2    0    0  0.34544381935E-02 -0.99883626386E-02 -0.21315920150E-01  0.10201377957E+01  0.10198603107E+01 0.  0.
     999903    2    3    3    0    0  0.18169558151E-01  0.12616029451E+00  0.67450619476E-02  0.12910445725E+00  0.19388457001E-01 0.  0.
         14    1    1    2    0    0 -0.34544381935E-02  0.99883626386E-02  0.21315920150E-01  0.23792204255E-01  0.00000000000E+00 0.  1.
     999901    1    3    3    0    0 -0.14715119957E-01 -0.13614865715E+00 -0.28060982098E-01  0.89103333850E+00  0.88000000000E+00 0.  1.
        -11    1    4    4    0    0  0.11392839617E-01  0.25281601852E-01  0.33931947375E-02  0.27941565422E-01  0.51100000000E-03 0.  1.
         11    1    4    4    0    0  0.67767185337E-02  0.10087869266E+00  0.33518672100E-02  0.10116289182E+00  0.51100000000E-03 0. -1.
</event>
<event>
 8    1  0.1066842E+005  0.1043930E+01  0.7957747E-01            NaN
         13   -1    0    0    0    0  0.00000000000E+00  0.00000000000E+00  0.74505805969E-08  0.10566000000E+00  0.10566000000E+00 0.  1.
     999900   -1    0    0    0    0 -0.00000000000E+00 -0.00000000000E+00 -0.74505805969E-08  0.93827000000E+00  0.93827000000E+00 0. -1.
     999902    2    1    2    0    0  0.10889860171E-01  0.20736904653E-01  0.36665754680E-02  0.10202223632E+01  0.10199468703E+01 0.  0.
     999903    2    3    3    0    0 -0.50336588904E-01 -0.63887137685E-01  0.97983725453E-01  0.12904020928E+00  0.20862085535E-01 0.  0.
         14    1    1    2    0    0 -0.10889860171E-01 -0.20736904653E-01 -0.36665754680E-02  0.23707636845E-01  0.00000000000E+00 0. -1.
     999901    1    3    3    0    0  0.61226449074E-01  0.84624042337E-01 -0.94317149985E-01  0.89118215388E+00  0.88000000000E+00 0. -1.
        -11    1    4    4    0    0 -0.25260339966E-01 -0.24208425171E-01  0.28213505158E-01  0.44948811094E-01  0.51100000000E-03 0.  1.
         11    1    4    4    0    0 -0.25076248938E-01 -0.39678712514E-01  0.69770220295E-01  0.84091398184E-01  0.51100000000E-03 0. -1.
</event>
<event>
 8    1  0.1066842E+005  0.1043930E+01  0.7957747E-01            NaN
         13   -1    0    0    0    0  0.00000000000E+00  0.00000000000E+00  0.74505805969E-08  0.10566000000E+00  0.10566000000E+00 0.  1.
     999900   -1    0    0    0    0 -0.00000000000E+00 -0.00000000000E+00 -0.74505805969E-08  0.93827000000E+00  0.93827000000E+00 0. -1.
     999902    2    1    2    0    0 -0.66000709428E-02  0.12266432941E-01  0.18815306134E-01  0.10205197019E+01  0.10202511553E+01 0.  0.
     999903    2    3    3    0    0 -0.96853592286E-01  0.75078304348E-01  0.48070327925E-01  0.13319400879E+00  0.20310525055E-01 0.  0.
         14    1    1    2    0    0  0.66000709428E-02 -0.12266432941E-01 -0.18815306134E-01  0.23410298129E-01  0.00000000000E+00 0. -1.
     999901    1    3    3    0    0  0.90253521343E-01 -0.62811871407E-01 -0.29255021791E-01  0.88732569308E+00  0.88000000000E+00 0. -1.
        -11    1    4    4    0    0 -0.50061048274E-01  0.36426761117E-01  0.34954377773E-01  0.71099135904E-01  0.51100000000E-03 0.  1.
         11    1    4    4    0    0 -0.46792544012E-01  0.38651543231E-01  0.13115950152E-01  0.62094872885E-01  0.51100000000E-03 0. -1.
</event>
<event>
 8    1  0.1066842E+005  0.1043930E+01  0.7957747E-01            NaN
         13   -1    0    0    0    0  0.00000000000E+00  0.00000000000E+00  0.74505805969E-08  0.10566000000E+00  0.10566000000E+00 0. -1.
     999900   -1    0    0    0    0 -0.00000000000E+00 -0.00000000000E+00 -0.74505805969E-08  0.93827000000E+00  0.93827000000E+00 0.  1.
     999902    2    1    2    0    0  0.11531335499E-01  0.19468271282E-01  0.84845155164E-02  0.10197644814E+01  0.10194781142E+01 0.  0.
     999903    2    3    3    0    0 -0.61599587991E-01  0.93457648972E-01 -0.64267440378E-01  0.13065514783E+00  0.20288478723E-01 0.  0.
         14    1    1    2    0    0 -0.11531335499E-01 -0.19468271282E-01 -0.84845155164E-02  0.24165518588E-01  0.00000000000E+00 0. -1.
     999901    1    3    3    0    0  0.73130923490E-01 -0.73989377690E-01  0.72751955895E-01  0.88910933358E+00  0.88000000000E+00 0. -1.
        -11    1    4    4    0    0 -0.42748749215E-01  0.72630815903E-01 -0.56637075340E-01  0.10154166831E+00  0.51100000000E-03 0.  1.
         11    1    4    4    0    0 -0.18850838776E-01  0.20826833069E-01 -0.76303650381E-02  0.29113479521E-01  0.51100000000E-03 0. -1.
</event>
<event>
 8    1  0.1066842E+005  0.1043930E+01  0.7957747E-01            NaN
         13   -1    0    0    0    0  0.00000000000E+00  0.00000000000E+00  0.74505805969E-08  0.10566000000E+00  0.10566000000E+00 0. -1.
     999900   -1    0    0    0    0 -0.00000000000E+00 -0.00000000000E+00 -0.74505805969E-08  0.93827000000E+00  0.93827000000E+00 0.  1.
     999902    2    1    2    0    0 -0.11943717714E-01  0.19229219396E-01 -0.57120288107E-02  0.10205838538E+01  0.10203167939E+01 0.  0.
     999903    2    3    3    0    0 -0.10283886690E+00 -0.74566520388E-01  0.15286343609E-01  0.13069593913E+00  0.26678787410E-01 0.  0.
         14    1    1    2    0    0  0.11943717714E-01 -0.19229219396E-01  0.57120288107E-02  0.23346146246E-01  0.00000000000E+00 0. -1.
     999901    1    3    3    0    0  0.90895149182E-01  0.93795739783E-01 -0.20998372420E-01  0.88988791462E+00  0.88000000000E+00 0.  1.
        -11    1    4    4    0    0 -0.50195865986E-01 -0.20841845324E-01  0.26055344200E-02  0.54415598951E-01  0.51100000000E-03 0.  1.
         11    1    4    4    0    0 -0.52643000909E-01 -0.53724675063E-01  0.12680809190E-01  0.76280340180E-01  0.51100000000E-03 0. -1.
</event>
<event>
 8    1  0.1066842E+005  0.1043930E+01  0.7957747E-01            NaN
         13   -1    0    0    0    0  0.00000000000E+00  0.00000000000E+00  0.74505805969E-08  0.10566000000E+00  0.10566000000E+00 0. -1.
     999900   -1    0    0    0    0 -0.00000000000E+00 -0.00000000000E+00 -0.74505805969E-08  0.93827000000E+00  0.93827000000E+00 0.  1.
     999902    2    1    2    0    0 -0.14089357188E-01  0.18888850843E-01  0.72269453069E-03  0.10203541446E+01  0.10200817415E+01 0.  0.
     999903    2    3    3    0    0 -0.39048527886E-01 -0.10340403663E+00 -0.63256169099E-01  0.12924707719E+00  0.22051796118E-01 0.  0.
         14    1    1    2    0    0  0.14089357188E-01 -0.18888850843E-01 -0.72269453069E-03  0.23575855435E-01  0.00000000000E+00 0.  1.
     999901    1    3    3    0    0  0.24959170698E-01  0.12229288747E+00  0.63978863630E-01  0.89110706737E+00  0.88000000000E+00 0. -1.
        -11    1    4    4    0    0 -0.30576637696E-01 -0.78991735279E-01 -0.37092241666E-01  0.92470106131E-01  0.51100000000E-03 0. -1.
         11    1    4    4    0    0 -0.84718901899E-02 -0.24412301353E-01 -0.26163927433E-01  0.36776971061E-01  0.51100000000E-03 0.  1.
</event>
<event>
 8    1  0.1066842E+005  0.1043930E+01  0.7957747E-01            NaN
         13   -1    0    0    0    0  0.00000000000E+00  0.00000000000E+00  0.74505805969E-08  0.10566000000E+00  0.10566000000E+00 0. -1.
     999900   -1    0    0    0    0 -0.00000000000E+00 -0.00000000000E+00 -0.74505805969E-08  0.93827000000E+00  0.93827000000E+00 0. -1.
     999902    2    1    2    0    0 -0.17796881487E-03  0.13277976202E-01  0.19331152326E-01  0.10204772864E+01  0.10202077545E+01 0.  0.
     999903    2    3    3    0    0 -0.10904267142E+00  0.17479442915E-01  0.70237644204E-01  0.13229901223E+00  0.19335637023E-01 0.  0.
         14    1    1    2    0    0  0.17796881487E-03 -0.13277976202E-01 -0.19331152326E-01  0.23452713599E-01  0.00000000000E+00 0.  1.
     999901    1    3    3    0    0  0.10886470260E+00 -0.42014667130E-02 -0.50906491878E-01  0.88817827417E+00  0.88000000000E+00 0. -1.
        -11    1    4    4    0    0 -0.35804140385E-01 -0.33195000233E-02  0.23612926795E-01  0.43020773842E-01  0.51100000000E-03 0.  1.
         11    1    4    4    0    0 -0.73238531032E-01  0.20798942938E-01  0.46624717409E-01  0.89278238387E-01  0.51100000000E-03 0. -1.
</event>
<event>
 8    1  0.1066842E+005  0.1043930E+01  0.7957747E-01            NaN
         13   -1    0    0    0    0  0.00000000000E+00  0.00000000000E+00  0.74505805969E-08  0.10566000000E+00  0.10566000000E+00 0. -1.
     999900   -1    0    0    0    0 -0.00000000000E+00 -0.00000000000E+00 -0.74505805969E-08  0.93827000000E+00  0.93827000000E+00 0.  1.
     999902    2    1    2    0    0 -0.55741176894E-03 -0.23022221308E-01  0.42313660481E-02  0.10205155207E+01  0.10202468771E+01 0.  0.
     999903    2    3    3    0    0 -0.24171891633E-01  0.79474076519E-01 -0.96029226361E-01  0.12859886478E+00  0.20387410928E-01 0.  0.
         14    1    1    2    0    0  0.55741176894E-03  0.23022221308E-01 -0.42313660481E-02  0.23414479291E-01  0.00000000000E+00 0. -1.
     999901    1    3    3    0    0  0.23614479865E-01 -0.10249629783E+00  0.10026059241E+00  0.89191665593E+00  0.88000000000E+00 0.  1.
        -11    1    4    4    0    0 -0.14667792624E-01  0.34861629780E-01 -0.29671455823E-01  0.48074252808E-01  0.51100000000E-03 0.  1.
         11    1    4    4    0    0 -0.95040990093E-02  0.44612446740E-01 -0.66357770538E-01  0.80524611976E-01  0.51100000000E-03 0. -1.
</event>
<event>
 8    1  0.1066842E+005  0.1043930E+01  0.7957747E-01            NaN
         13   -1    0    0    0    0  0.00000000000E+00  0.00000000000E+00  0.74505805969E-08  0.10566000000E+00  0.10566000000E+00 0. -1.
     999900   -1    0    0    0    0 -0.00000000000E+00 -0.00000000000E+00 -0.74505805969E-08  0.93827000000E+00  0.93827000000E+00 0. -1.
     999902    2    1    2    0    0  0.18636191860E-01 -0.37259077806E-02 -0.14291374955E-01  0.10201511557E+01  0.10198739859E+01 0.  0.
     999903    2    3    3    0    0 -0.81414254816E-01 -0.19968060477E-01  0.94178427317E-01  0.12771650973E+00  0.20369741281E-01 0.  0.
         14    1    1    2    0    0 -0.18636191860E-01  0.37259077806E-02  0.14291374955E-01  0.23778844252E-01  0.00000000000E+00 0. -1.
     999901    1    3    3    0    0  0.10005044668E+00  0.16242152696E-01 -0.10846980227E+00  0.89243464602E+00  0.88000000000E+00 0. -1.
        -11    1    4    4    0    0 -0.51733435153E-02 -0.70382202694E-02  0.71952796695E-02  0.11328424348E-01  0.51100000000E-03 0. -1.
         11    1    4    4    0    0 -0.76240911301E-01 -0.12929840208E-01  0.86983147648E-01  0.11638808538E+00  0.51100000000E-03 0.  1.
</event>
<event>
 8    1  0.1066842E+005  0.1043930E+01  0.7957747E-01            NaN
         13   -1    0    0    0    0  0.00000000000E+00  0.00000000000E+00  0.74505805969E-08  0.10566000000E+00  0.10566000000E+00 0.  1.
     999900   -1    0    0    0    0 -0.00000000000E+00 -0.00000000000E+00 -0.74505805969E-08  0.93827000000E+00  0.93827000000E+00 0.  1.
     999902    2    1    2    0    0 -0.96432731381E-02  0.18239365898E-01  0.13538194930E-01  0.10192530896E+01  0.10189543222E+01 0.  0.
     999903    2    3    3    0    0 -0.92101622443E-01 -0.48203150864E-01  0.76649022509E-01  0.13066040227E+00  0.19769053105E-01 0.  0.
         14    1    1    2    0    0  0.96432731381E-02 -0.18239365898E-01 -0.13538194930E-01  0.24676910406E-01  0.00000000000E+00 0. -1.
     999901    1    3    3    0    0  0.82458349305E-01  0.66442516762E-01 -0.63110827579E-01  0.88859268732E+00  0.88000000000E+00 0. -1.
        -11    1    4    4    0    0 -0.24260532659E-01 -0.22707471788E-01  0.21396127836E-01  0.39525411159E-01  0.51100000000E-03 0.  1.
         11    1    4    4    0    0 -0.67841089784E-01 -0.25495679076E-01  0.55252894673E-01  0.91134991114E-01  0.51100000000E-03 0. -1.
</event>
<event>
 8    1  0.1066842E+005  0.1043930E+01  0.7957747E-01            NaN
         13   -1    0    0    0    0  0.00000000000E+00  0.00000000000E+00  0.74505805969E-08  0.10566000000E+00  0.10566000000E+00 0. -1.
     999900   -1    0    0    0    0 -0.00000000000E+00 -0.00000000000E+00 -0.74505805969E-08  0.93827000000E+00  0.93827000000E+00 0. -1.
     999902    2    1    2    0    0  0.15660650522E-01 -0.14962982053E-01 -0.12215210932E-01  0.10190631911E+01  0.10187597505E+01 0.  0.
     999903    2    3    3    0    0  0.94829132020E-02  0.11912994298E+00 -0.42608425208E-01  0.12836524878E+00  0.19501031710E-01 0.  0.
         14    1    1    2    0    0 -0.15660650522E-01  0.14962982053E-01  0.12215210932E-01  0.24866808899E-01  0.00000000000E+00 0. -1.
     999901    1    3    3    0    0  0.61777373204E-02 -0.13409292503E+00  0.30393214276E-01  0.89069794232E+00  0.88000000000E+00 0.  1.
        -11    1    4    4    0    0  0.12722358443E-01  0.91084894881E-01 -0.39006194160E-01  0.99900254172E-01  0.51100000000E-03 0.  1.
         11    1    4    4    0    0 -0.32394452406E-02  0.28045048101E-01 -0.36022310477E-02  0.28464994607E-01  0.51100000000E-03 0. -1.
</event>
<event>
 8    1  0.1066842E+005  0.1043930E+01  0.7957747E-01            NaN
         13   -1    0    0    0    0  0.00000000000E+00  0.00000000000E+00  0.74505805969E-08  0.10566000000E+00  0.10566000000E+00 0. -1.
     999900   -1    0    0    0    0 -0.00000000000E+00 -0.00000000000E+00 -0.74505805969E-08  0.93827000000E+00  0.93827000000E+00 0.  1.
     999902    2    1    2    0    0  0.20651451108E-02 -0.19875435800E-01  0.12795137588E-01  0.10202020983E+01  0.10199261287E+01 0.  0.
     999903    2    3    3    0    0 -0.10800811786E+00 -0.52877600540E-01 -0.46197723472E-01  0.13077226760E+00  0.22480261506E-01 0.  0.
         14    1    1    2    0    0 -0.20651451108E-02  0.19875435800E-01 -0.12795137588E-01  0.23727901687E-01  0.00000000000E+00 0. -1.
     999901    1    3    3    0    0  0.11007326297E+00  0.33002164740E-01  0.58992861060E-01  0.88942983071E+00  0.88000000000E+00 0. -1.
        -11    1    4    4    0    0 -0.74236880434E-01 -0.26943459948E-01 -0.36965738415E-01  0.87199721261E-01  0.51100000000E-03 0. -1.
         11    1    4    4    0    0 -0.33771237429E-01 -0.25934140592E-01 -0.92319850561E-02  0.43572546343E-01  0.51100000000E-03 0.  1.
</event>
<event>
 8    1  0.1066842E+005  0.1043930E+01  0.7957747E-01            NaN
         13   -1    0    0    0    0  0.00000000000E+00  0.00000000000E+00  0.74505805969E-08  0.10566000000E+00  0.10566000000E+00 0.  1.
     999900   -1    0    0    0    0 -0.00000000000E+00 -0.00000000000E+00 -0.74505805969E-08  0.93827000000E+00  0.93827000000E+00 0.  1.
     999902    2    1    2    0    0  0.14587992100E-01 -0.18149784523E-01 -0.44951709912E-02  0.10202143774E+01  0.10199386968E+01 0.  0.
     999903    2    3    3    0    0 -0.30120975116E-01 -0.10409219045E+00  0.71983225084E-01  0.13160088780E+00  0.19868359809E-01 0.  0.
         14    1    1    2    0    0 -0.14587992100E-01  0.18149784523E-01  0.44951709912E-02  0.23715622572E-01  0.00000000000E+00 0. -1.
     999901    1    3    3    0    0  0.44708967217E-01  0.85942405925E-01 -0.76478396076E-01  0.88861348963E+00  0.88000000000E+00 0.  1.
        -11    1    4    4    0    0 -0.24047446080E-02 -0.76653696640E-02  0.12779052032E-01  0.15103177830E-01  0.51100000000E-03 0. -1.
         11    1    4    4    0    0 -0.27716230508E-01 -0.96426820784E-01  0.59204173052E-01  0.11649770997E+00  0.51100000000E-03 0.  1.
</event>
<event>
 8    1  0.1066842E+005  0.1043930E+01  0.7957747E-01            NaN
         13   -1    0    0    0    0  0.00000000000E+00  0.00000000000E+00  0.74505805969E-08  0.10566000000E+00  0.10566000000E+00 0. -1.
     999900   -1    0    0    0    0 -0.00000000000E+00 -0.00000000000E+00 -0.74505805969E-08  0.93827000000E+00  0.93827000000E+00 0.  1.
     999902    2    1    2    0    0 -0.13747022112E-01 -0.13726881885E-01 -0.13054091193E-01  0.10205245049E+01  0.10202560698E+01 0.  0.
     999903    2    3    3    0    0 -0.97984248607E-01  0.82038820677E-01 -0.23580392731E-01  0.13126763363E+00  0.18543884249E-01 0.  0.
         14    1    1    2    0    0  0.13747022112E-01  0.13726881885E-01  0.13054091193E-01  0.23405495083E-01  0.00000000000E+00 0. -1.
     999901    1    3    3    0    0  0.84237226496E-01 -0.95765702562E-01  0.10526301538E-01  0.88925687129E+00  0.88000000000E+00 0.  1.
        -11    1    4    4    0    0 -0.45374065128E-01  0.31209047382E-01 -0.17823946756E-01  0.57885789480E-01  0.51100000000E-03 0.  1.
         11    1    4    4    0    0 -0.52610183479E-01  0.50829773295E-01 -0.57564459750E-02  0.73381844146E-01  0.51100000000E-03 0. -1.
</event>
<event>
 8    1  0.1066842E+005  0.1043930E+01  0.7957747E-01            NaN
         13   -1    0    0    0    0  0.00000000000E+00  0.00000000000E+00  0.74505805969E-08  0.10566000000E+00  0.10566000000E+00 0. -1.
     999900   -1    0    0    0    0 -0.00000000000E+00 -0.00000000000E+00 -0.74505805969E-08  0.93827000000E+00  0.93827000000E+00 0.  1.
     999902    2    1    2    0    0 -0.97648366360E-02 -0.87135608415E-02  0.21692305658E-01  0.10185955511E+01  0.10182804439E+01 0.  0.
     999903    2    3    3    0    0  0.56898190205E-01 -0.11012010686E+00 -0.28902393627E-01  0.12882756429E+00  0.19933664539E-01 0.  0.
         14    1    1    2    0    0  0.97648366360E-02  0.87135608415E-02 -0.21692305658E-01  0.25334448915E-01  0.00000000000E+00 0.  1.
     999901    1    3    3    0    0 -0.66663026841E-01  0.10140654601E+00  0.50594699286E-01  0.88976798679E+00  0.88000000000E+00 0. -1.
        -11    1    4    4    0    0  0.40217370028E-01 -0.92229373528E-01 -0.27562982575E-01  0.10432484518E+00  0.51100000000E-03 0.  1.
         11    1    4    4    0    0  0.16680820177E-01 -0.17890733328E-01 -0.13394110524E-02  0.24502719110E-01  0.51100000000E-03 0. -1.
</event>
<event>
 8    1  0.1066842E+005  0.1043930E+01  0.7957747E-01            NaN
         13   -1    0    0    0    0  0.00000000000E+00  0.00000000000E+00  0.74505805969E-08  0.10566000000E+00  0.10566000000E+00 0. -1.
     999900   -1    0    0    0    0 -0.00000000000E+00 -0.00000000000E+00 -0.74505805969E-08  0.93827000000E+00  0.93827000000E+00 0.  1.
     999902    2    1    2    0    0 -0.18927788400E-01  0.12314769920E-01  0.55893840267E-02  0.10206672412E+01  0.10204021077E+01 0.  0.
     999903    2    3    3    0    0 -0.11453343226E+00 -0.62281829914E-01 -0.92327777829E-02  0.13222771694E+00  0.20049725648E-01 0.  0.
         14    1    1    2    0    0  0.18927788400E-01 -0.12314769920E-01 -0.55893840267E-02  0.23262758772E-01  0.00000000000E+00 0. -1.
     999901    1    3    3    0    0  0.95605643857E-01  0.74596599835E-01  0.14822161810E-01  0.88843952429E+00  0.88000000000E+00 0. -1.
        -11    1    4    4    0    0 -0.84202960826E-01 -0.45749633563E-01  0.21477057882E-02  0.95854271392E-01  0.51100000000E-03 0. -1.
         11    1    4    4    0    0 -0.30330471430E-01 -0.16532196351E-01 -0.11380483571E-01  0.36373445543E-01  0.51100000000E-03 0.  1.
</event>
<event>
 8    1  0.1066842E+005  0.1043930E+01  0.7957747E-01            NaN
         13   -1    0    0    0    0  0.00000000000E+00  0.00000000000E+00  0.74505805969E-08  0.10566000000E+00  0.10566000000E+00 0. -1.
     999900   -1    0    0    0    0 -0.00000000000E+00 -0.00000000000E+00 -0.74505805969E-08  0.93827000000E+00  0.93827000000E+00 0.  1.
     999902    2    1    2    0    0  0.20360911690E-01  0.17388459013E-01 -0.91542615969E-02  0.10156329023E+01  0.10152386254E+01 0.  0.
     999903    2    3    3    0    0  0.31859486898E-01 -0.77382014026E-01  0.90581644215E-01  0.12486867386E+00  0.19599705187E-01 0.  0.
         14    1    1    2    0    0 -0.20360911690E-01 -0.17388459013E-01  0.91542615969E-02  0.28297097679E-01  0.00000000000E+00 0.  1.
     999901    1    3    3    0    0 -0.11498575208E-01  0.94770473039E-01 -0.99735905812E-01  0.89076422846E+00  0.88000000000E+00 0.  1.
        -11    1    4    4    0    0  0.31323348104E-01 -0.61269403739E-01  0.65206632042E-01  0.94801149541E-01  0.51100000000E-03 0.  1.
         11    1    4    4    0    0  0.53613879330E-03 -0.16112610288E-01  0.25375012173E-01  0.30067524322E-01  0.51100000000E-03 0. -1.
</event>
<event>
 8    1  0.1066842E+005  0.1043930E+01  0.7957747E-01            NaN
         13   -1    0    0    0    0  0.00000000000E+00  0.00000000000E+00  0.74505805969E-08  0.10566000000E+00  0.10566000000E+00 0.  1.
     999900   -1    0    0    0    0 -0.00000000000E+00 -0.00000000000E+00 -0.74505805969E-08  0.93827000000E+00  0.93827000000E+00 0. -1.
     999902    2    1    2    0    0 -0.55542863357E-02 -0.17363065424E-01  0.15052499770E-01  0.10202888518E+01  0.10200149201E+01 0.  0.
     999903    2    3    3    0    0 -0.12398108703E+00 -0.38266398842E-01 -0.10870120756E-01  0.13173168500E+00  0.19986247392E-01 0.  0.
         14    1    1    2    0    0  0.55542863357E-02  0.17363065424E-01 -0.15052499770E-01  0.23641148173E-01  0.00000000000E+00 0. -1.
     999901    1    3    3    0    0  0.11842680070E+00  0.20903333418E-01  0.25922620526E-01  0.88855716683E+00  0.88000000000E+00 0.  1.
        -11    1    4    4    0    0 -0.10573291118E+00 -0.24873321863E-01 -0.81109280683E-02  0.10892281177E+00  0.51100000000E-03 0.  1.
         11    1    4    4    0    0 -0.18248175848E-01 -0.13393076979E-01 -0.27591926879E-02  0.22808873230E-01  0.51100000000E-03 0. -1.
</event>
<event>
 8    1  0.1066842E+005  0.1043930E+01  0.7957747E-01            NaN
         13   -1    0    0    0    0  0.00000000000E+00  0.00000000000E+00  0.74505805969E-08  0.10566000000E+00  0.10566000000E+00 0. -1.
     999900   -1    0    0    0    0 -0.00000000000E+00 -0.00000000000E+00 -0.74505805969E-08  0.93827000000E+00  0.93827000000E+00 0.  1.
     999902    2    1    2    0    0  0.15387093892E-01  0.18455330346E-02 -0.18347720923E-01  0.10199131827E+01  0.10196303706E+01 0.  0.
     999903    2    3    3    0    0 -0.19365186453E-01  0.12506788973E+00  0.20433348665E-01  0.12980339085E+00  0.20357088420E-01 0.  0.
         14    1    1    2    0    0 -0.15387093892E-01 -0.18455330346E-02  0.18347720923E-01  0.24016817310E-01  0.00000000000E+00 0. -1.
     999901    1    3    3    0    0  0.34752280345E-01 -0.12322235670E+00 -0.38781069588E-01  0.89010979184E+00  0.88000000000E+00 0.  1.
        -11    1    4    4    0    0 -0.38331194780E-02  0.11772854865E-01  0.80547416792E-02  0.14779475671E-01  0.51100000000E-03 0. -1.
         11    1    4    4    0    0 -0.15532066975E-01  0.11329503487E+00  0.12378606986E-01  0.11502391517E+00  0.51100000000E-03 0.  1.
</event>
<event>
 8    1  0.1092398E+005  0.1043930E+01  0.7957747E-01            NaN
         13   -1    0    0    0    0  0.00000000000E+00  0.00000000000E+00  0.74505805969E-08  0.10566000000E+00  0.10566000000E+00 0.  1.
     999900   -1    0    0    0    0 -0.00000000000E+00 -0.00000000000E+00 -0.74505805969E-08  0.93827000000E+00  0.93827000000E+00 0. -1.
     999902    2    1    2    0    0 -0.17733007086E-01  0.57552295352E-02  0.17771704100E-01  0.10181731432E+01  0.10178473038E+01 0.  0.
     999903    2    3    3    0    0  0.83504614420E-01  0.94611754084E-01  0.16009013447E-02  0.12777658386E+00  0.19997196243E-01 0.  0.
         14    1    1    2    0    0  0.17733007086E-01 -0.57552295352E-02 -0.17771704100E-01  0.25756856833E-01  0.00000000000E+00 0. -1.
     999901    1    3    3    0    0 -0.10123762151E+00 -0.88856524549E-01  0.16170802755E-01  0.89039655931E+00  0.88000000000E+00 0. -1.
        -11    1    4    4    0    0  0.45303891969E-01  0.65665324655E-01  0.28335939167E-02  0.79828991382E-01  0.51100000000E-03 0.  1.
         11    1    4    4    0    0  0.38200722451E-01  0.28946429429E-01 -0.12326925720E-02  0.47947592478E-01  0.51100000000E-03 0. -1.
</event>
<event>
 8    1  0.1066842E+005  0.1043930E+01  0.7957747E-01            NaN
         13   -1    0    0    0    0  0.00000000000E+00  0.00000000000E+00  0.74505805969E-08  0.10566000000E+00  0.10566000000E+00 0. -1.
     999900   -1    0    0    0    0 -0.00000000000E+00 -0.00000000000E+00 -0.74505805969E-08  0.93827000000E+00  0.93827000000E+00 0.  1.
     999902    2    1    2    0    0  0.77607940920E-02 -0.22346790314E-01 -0.30811231497E-02  0.10200741353E+01  0.10197951457E+01 0.  0.
     999903    2    3    3    0    0 -0.20298409564E-01 -0.12774695111E+00  0.23037798504E-01  0.13295592957E+00  0.20377195625E-01 0.  0.
         14    1    1    2    0    0 -0.77607940920E-02  0.22346790314E-01  0.30811231497E-02  0.23855864732E-01  0.00000000000E+00 0. -1.
     999901    1    3    3    0    0  0.28059203656E-01  0.10540016079E+00 -0.26118921654E-01  0.88711820569E+00  0.88000000000E+00 0. -1.
        -11    1    4    4    0    0 -0.22881961863E-01 -0.93955308588E-01  0.12780667872E-01  0.97543789053E-01  0.51100000000E-03 0.  1.
         11    1    4    4    0    0  0.25835522987E-02 -0.33791642517E-01  0.10257130632E-01  0.35412140521E-01  0.51100000000E-03 0. -1.
</event>
<event>
 8    1  0.1066842E+005  0.1043930E+01  0.7957747E-01            NaN
         13   -1    0    0    0    0  0.00000000000E+00  0.00000000000E+00  0.74505805969E-08  0.10566000000E+00  0.10566000000E+00 0. -1.
     999900   -1    0    0    0    0 -0.00000000000E+00 -0.00000000000E+00 -0.74505805969E-08  0.93827000000E+00  0.93827000000E+00 0.  1.
     999902    2    1    2    0    0 -0.80259131816E-02 -0.40815055580E-02  0.21087904010E-01  0.10210002450E+01  0.10207427328E+01 0.  0.
     999903    2    3    3    0    0 -0.70059768404E-01 -0.13266716082E-01 -0.10652853478E+00  0.12958646746E+00  0.18972267206E-01 0.  0.
         14    1    1    2    0    0  0.80259131816E-02  0.40815055580E-02 -0.21087904010E-01  0.22929755026E-01  0.00000000000E+00 0.  1.
     999901    1    3    3    0    0  0.62033855223E-01  0.91852105243E-02  0.12761643879E+00  0.89141377751E+00  0.88000000000E+00 0. -1.
        -11    1    4    4    0    0 -0.39703397058E-01 -0.16531785789E-01 -0.67378654227E-01  0.79936248635E-01  0.51100000000E-03 0. -1.
         11    1    4    4    0    0 -0.30356371346E-01  0.32650697066E-02 -0.39149880552E-01  0.49650218828E-01  0.51100000000E-03 0.  1.
</event>
<event>
 8    1  0.1066842E+005  0.1043930E+01  0.7957747E-01            NaN
         13   -1    0    0    0    0  0.00000000000E+00  0.00000000000E+00  0.74505805969E-08  0.10566000000E+00  0.10566000000E+00 0.  1.
     999900   -1    0    0    0    0 -0.00000000000E+00 -0.00000000000E+00 -0.74505805969E-08  0.93827000000E+00  0.93827000000E+00 0. -1.
     999902    2    1    2    0    0 -0.20841332070E-02 -0.19307903397E-01 -0.12892141021E-01  0.10206202157E+01  0.10203539967E+01 0.  0.
     999903    2    3    3    0    0 -0.75384954174E-01 -0.54814168237E-01  0.89107085728E-01  0.13099245788E+00  0.23053566731E-01 0.  0.
         14    1    1    2    0    0  0.20841332070E-02  0.19307903397E-01  0.12892141021E-01  0.23309784317E-01  0.00000000000E+00 0.  1.
     999901    1    3    3    0    0  0.73300820967E-01  0.35506264840E-01 -0.10199922675E+00  0.88962775780E+00  0.88000000000E+00 0. -1.
        -11    1    4    4    0    0 -0.38179474809E-01 -0.41524610768E-01  0.49549266861E-01  0.75082331900E-01  0.51100000000E-03 0.  1.
         11    1    4    4    0    0 -0.37205479365E-01 -0.13289557469E-01  0.39557818867E-01  0.55910125979E-01  0.51100000000E-03 0. -1.
</event>
<event>
 8    1  0.1109618E+005  0.1043930E+01  0.7957747E-01            NaN
         13   -1    0    0    0    0  0.00000000000E+00  0.00000000000E+00  0.74505805969E-08  0.10566000000E+00  0.10566000000E+00 0. -1.
     999900   -1    0    0    0    0 -0.00000000000E+00 -0.00000000000E+00 -0.74505805969E-08  0.93827000000E+00  0.93827000000E+00 0. -1.
     999902    2    1    2    0    0 -0.16883051194E-01  0.30319516198E-03  0.17800130328E-01  0.10193948419E+01  0.10190995386E+01 0.  0.
     999903    2    3    3    0    0  0.54025314560E-02  0.56831583961E-01  0.11712315783E+00  0.13172532582E+00  0.19357455377E-01 0.  0.
         14    1    1    2    0    0  0.16883051194E-01 -0.30319516198E-03 -0.17800130328E-01  0.24535158133E-01  0.00000000000E+00 0.  1.
     999901    1    3    3    0    0 -0.22285582650E-01 -0.56528388799E-01 -0.99323027505E-01  0.88766951605E+00  0.88000000000E+00 0. -1.
        -11    1    4    4    0    0 -0.63744722472E-02  0.26923784190E-01  0.62351109926E-01  0.68216171701E-01  0.51100000000E-03 0.  1.
         11    1    4    4    0    0  0.11777003703E-01  0.29907799770E-01  0.54772047907E-01  0.63509154114E-01  0.51100000000E-03 0. -1.
</event>
<event>
 8    1  0.1543296E+005  0.1043930E+01  0.7957747E-01            NaN
         13   -1    0    0    0    0  0.00000000000E+00  0.00000000000E+00  0.74505805969E-08  0.10566000000E+00  0.10566000000E+00 0. -1.
     999900   -1    0    0    0    0 -0.00000000000E+00 -0.00000000000E+00 -0.74505805969E-08  0.93827000000E+00  0.93827000000E+00 0.  1.
     999902    2    1    2    0    0  0.34043039992E-02  0.24988138804E-02 -0.24253237700E-01  0.10193118584E+01  0.10190145297E+01 0.  0.
     999903    2    3    3    0    0  0.10087632943E+00 -0.14957516572E-01 -0.82512350201E-01  0.13184375002E+00  0.13218371444E-01 0.  0.
         14    1    1    2    0    0 -0.34043039992E-02 -0.24988138804E-02  0.24253237700E-01  0.24618141593E-01  0.00000000000E+00 0. -1.
     999901    1    3    3    0    0 -0.97472025426E-01  0.17456330453E-01  0.58259112501E-01  0.88746810839E+00  0.88000000000E+00 0. -1.
        -11    1    4    4    0    0  0.31636204298E-01 -0.10887378586E-01 -0.27702156380E-01  0.43440246591E-01  0.51100000000E-03 0. -1.
         11    1    4    4    0    0  0.69240125128E-01 -0.40701379859E-02 -0.54810193821E-01  0.88403503430E-01  0.51100000000E-03 0.  1.
</event>
<event>
 8    1  0.1066842E+005  0.1043930E+01  0.7957747E-01            NaN
         13   -1    0    0    0    0  0.00000000000E+00  0.00000000000E+00  0.74505805969E-08  0.10566000000E+00  0.10566000000E+00 0.  1.
     999900   -1    0    0    0    0 -0.00000000000E+00 -0.00000000000E+00 -0.74505805969E-08  0.93827000000E+00  0.93827000000E+00 0.  1.
     999902    2    1    2    0    0  0.12484560372E-01  0.15563816855E-01  0.11799128243E-01  0.10207499208E+01  0.10204866902E+01 0.  0.
     999903    2    3    3    0    0 -0.11006172765E+00  0.66409944635E-01  0.14333876332E-01  0.13080085130E+00  0.19481736303E-01 0.  0.
         14    1    1    2    0    0 -0.12484560372E-01 -0.15563816855E-01 -0.11799128243E-01  0.23180079165E-01  0.00000000000E+00 0. -1.
     999901    1    3    3    0    0  0.12254628803E+00 -0.50846127780E-01 -0.25347480891E-02  0.88994906954E+00  0.88000000000E+00 0. -1.
        -11    1    4    4    0    0 -0.26578888470E-01  0.20889134823E-01 -0.37222954323E-02  0.34013377812E-01  0.51100000000E-03 0. -1.
         11    1    4    4    0    0 -0.83482839184E-01  0.45520809812E-01  0.18056171764E-01  0.96787473487E-01  0.51100000000E-03 0.  1.
</event>
<event>
 8    1  0.1066842E+005  0.1043930E+01  0.7957747E-01            NaN
         13   -1    0    0    0    0  0.00000000000E+00  0.00000000000E+00  0.74505805969E-08  0.10566000000E+00  0.10566000000E+00 0.  1.
     999900   -1    0    0    0    0 -0.00000000000E+00 -0.00000000000E+00 -0.74505805969E-08  0.93827000000E+00  0.93827000000E+00 0.  1.
     999902    2    1    2    0    0 -0.81808671584E-02  0.12624969836E-01  0.16411146306E-01  0.10216669774E+01  0.10214243832E+01 0.  0.
     999903    2    3    3    0    0  0.10553175509E+00  0.58595098449E-01  0.50687255522E-01  0.13249957764E+00  0.20410862527E-01 0.  0.
         14    1    1    2    0    0  0.81808671584E-02 -0.12624969836E-01 -0.16411146306E-01  0.22263022569E-01  0.00000000000E+00 0. -1.
     999901    1    3    3    0    0 -0.11371262225E+00 -0.45970128613E-01 -0.34276109215E-01  0.88916739979E+00  0.88000000000E+00 0.  1.
        -11    1    4    4    0    0  0.33145765002E-01  0.11723571455E-01  0.70953109702E-02  0.35870439418E-01  0.51100000000E-03 0.  1.
         11    1    4    4    0    0  0.72385990086E-01  0.46871526994E-01  0.43591944551E-01  0.96629138226E-01  0.51100000000E-03 0. -1.
</event>
<event>
 8    1  0.1066842E+005  0.1043930E+01  0.7957747E-01            NaN
         13   -1    0    0    0    0  0.00000000000E+00  0.00000000000E+00  0.74505805969E-08  0.10566000000E+00  0.10566000000E+00 0. -1.
     999900   -1    0    0    0    0 -0.00000000000E+00 -0.00000000000E+00 -0.74505805969E-08  0.93827000000E+00  0.93827000000E+00 0. -1.
     999902    2    1    2    0    0 -0.19197601149E-01 -0.95944711344E-02  0.10833582323E-01  0.10198890293E+01  0.10196056413E+01 0.  0.
     999903    2    3    3    0    0 -0.51368710036E-01  0.75501778238E-02  0.12010103153E+00  0.13238224358E+00  0.20125880990E-01 0.  0.
         14    1    1    2    0    0  0.19197601149E-01  0.95944711344E-02 -0.10833582323E-01  0.24040970700E-01  0.00000000000E+00 0.  1.
     999901    1    3    3    0    0  0.32171108887E-01 -0.17144648958E-01 -0.10926744921E+00  0.88750678572E+00  0.88000000000E+00 0. -1.
        -11    1    4    4    0    0 -0.26743287113E-01 -0.55698650837E-02  0.67875517997E-01  0.73168120565E-01  0.51100000000E-03 0.  1.
         11    1    4    4    0    0 -0.24625422924E-01  0.13120042907E-01  0.52225513535E-01  0.59214123020E-01  0.51100000000E-03 0. -1.
</event>
<event>
 8    1  0.1066842E+005  0.1043930E+01  0.7957747E-01            NaN
         13   -1    0    0    0    0  0.00000000000E+00  0.00000000000E+00  0.74505805969E-08  0.10566000000E+00  0.10566000000E+00 0.  1.
     999900   -1    0    0    0    0 -0.00000000000E+00 -0.00000000000E+00 -0.74505805969E-08  0.93827000000E+00  0.93827000000E+00 0. -1.
     999902    2    1    2    0    0  0.23625352125E-01  0.29278073386E-04 -0.19181680091E-02  0.10202268886E+01  0.10199515022E+01 0.  0.
     999903    2    3    3    0    0  0.11479992951E+00  0.95796294949E-02 -0.63845647235E-01  0.13330015802E+00  0.20539531181E-01 0.  0.
         14    1    1    2    0    0 -0.23625352125E-01 -0.29278073386E-04  0.19181680091E-02  0.23703111373E-01  0.00000000000E+00 0. -1.
     999901    1    3    3    0    0 -0.91174577388E-01 -0.95503514215E-02  0.61927479226E-01  0.88692673060E+00  0.88000000000E+00 0.  1.
        -11    1    4    4    0    0  0.79293888755E-01  0.13213647256E-01 -0.36261722475E-01  0.88188972698E-01  0.51100000000E-03 0. -1.
         11    1    4    4    0    0  0.35506040758E-01 -0.36340177616E-02 -0.27583924760E-01  0.45111185327E-01  0.51100000000E-03 0.  1.
</event>
<event>
 8    1  0.1066842E+005  0.1043930E+01  0.7957747E-01            NaN
         13   -1    0    0    0    0  0.00000000000E+00  0.00000000000E+00  0.74505805969E-08  0.10566000000E+00  0.10566000000E+00 0. -1.
     999900   -1    0    0    0    0 -0.00000000000E+00 -0.00000000000E+00 -0.74505805969E-08  0.93827000000E+00  0.93827000000E+00 0. -1.
     999902    2    1    2    0    0 -0.33430505953E-02  0.24768704918E-02 -0.23141887989E-01  0.10204170705E+01  0.10201461365E+01 0.  0.
     999903    2    3    3    0    0 -0.83401596812E-01  0.96513958580E-01  0.20139661189E-01  0.13073980470E+00  0.20408822307E-01 0.  0.
         14    1    1    2    0    0  0.33430505953E-02 -0.24768704918E-02  0.23141887989E-01  0.23512929516E-01  0.00000000000E+00 0. -1.
     999901    1    3    3    0    0  0.80058546217E-01 -0.94037088088E-01 -0.43281549178E-01  0.88967726579E+00  0.88000000000E+00 0. -1.
        -11    1    4    4    0    0 -0.20062777241E-01  0.33676999812E-01  0.12695334082E-01  0.41207863029E-01  0.51100000000E-03 0.  1.
         11    1    4    4    0    0 -0.63338819571E-01  0.62836958768E-01  0.74443271074E-02  0.89531941669E-01  0.51100000000E-03 0. -1.
</event>
<event>
 8    1  0.1066842E+005  0.1043930E+01  0.7957747E-01            NaN
         13   -1    0    0    0    0  0.00000000000E+00  0.00000000000E+00  0.74505805969E-08  0.10566000000E+00  0.10566000000E+00 0.  1.
     999900   -1    0    0    0    0 -0.00000000000E+00 -0.00000000000E+00 -0.74505805969E-08  0.93827000000E+00  0.93827000000E+00 0.  1.
     999902    2    1    2    0    0  0.20199654499E-01 -0.96078075425E-02  0.38624200056E-02  0.10212307864E+01  0.10209784840E+01 0.  0.
     999903    2    3    3    0    0  0.74093643692E-03 -0.12553260792E+00  0.38420475688E-01  0.13274248587E+00  0.19632879710E-01 0.  0.
         14    1    1    2    0    0 -0.20199654499E-01  0.96078075425E-02 -0.38624200056E-02  0.22699213554E-01  0.00000000000E+00 0.  1.
     999901    1    3    3    0    0  0.19458718062E-01  0.11592480037E+00 -0.34558055683E-01  0.88848830058E+00  0.88000000000E+00 0. -1.
        -11    1    4    4    0    0  0.21155145041E-02 -0.71921701506E-01  0.11969525663E-01  0.72943383626E-01  0.51100000000E-03 0.  1.
         11    1    4    4    0    0 -0.13745780672E-02 -0.53610906409E-01  0.26450950025E-01  0.59799102243E-01  0.51100000000E-03 0. -1.
</event>
<event>
 8    1  0.1066842E+005  0.1043930E+01  0.7957747E-01            NaN
         13   -1    0    0    0    0  0.00000000000E+00  0.00000000000E+00  0.74505805969E-08  0.10566000000E+00  0.10566000000E+00 0.  1.
     999900   -1    0    0    0    0 -0.00000000000E+00 -0.00000000000E+00 -0.74505805969E-08  0.93827000000E+00  0.93827000000E+00 0. -1.
     999902    2    1    2    0    0 -0.23656352444E-01  0.27854087097E-02 -0.19580965273E-02  0.10200298817E+01  0.10197498438E+01 0.  0.
     999903    2    3    3    0    0 -0.65362124664E-01  0.10973677588E+00 -0.27641620828E-01  0.13220241547E+00  0.19976289261E-01 0.  0.
         14    1    1    2    0    0  0.23656352444E-01 -0.27854087097E-02  0.19580965273E-02  0.23900118298E-01  0.00000000000E+00 0. -1.
     999901    1    3    3    0    0  0.41705772219E-01 -0.10695136717E+00  0.25683524301E-01  0.88782746623E+00  0.88000000000E+00 0.  1.
        -11    1    4    4    0    0 -0.49046602306E-01  0.67282043476E-01 -0.23576179225E-01  0.86536350281E-01  0.51100000000E-03 0.  1.
         11    1    4    4    0    0 -0.16315522357E-01  0.42454732405E-01 -0.40654416036E-02  0.45666065189E-01  0.51100000000E-03 0. -1.
</event>
<event>
 8    1  0.1066842E+005  0.1043930E+01  0.7957747E-01            NaN
         13   -1    0    0    0    0  0.00000000000E+00  0.00000000000E+00  0.74505805969E-08  0.10566000000E+00  0.10566000000E+00 0.  1.
     999900   -1    0    0    0    0 -0.00000000000E+00 -0.00000000000E+00 -0.74505805969E-08  0.93827000000E+00  0.93827000000E+00 0. -1.
     999902    2    1    2    0    0  0.48158707426E-02  0.25870155194E-02 -0.23179801242E-01  0.10201142815E+01  0.10198362412E+01 0.  0.
     999903    2    3    3    0    0  0.21931468673E-01  0.87945130200E-01 -0.95248148963E-01  0.13288669057E+00  0.19269857419E-01 0.  0.
         14    1    1    2    0    0 -0.48158707426E-02 -0.25870155194E-02  0.23179801242E-01  0.23815718463E-01  0.00000000000E+00 0.  1.
     999901    1    3    3    0    0 -0.17115597930E-01 -0.85358114681E-01  0.72068347721E-01  0.88722759097E+00  0.88000000000E+00 0.  1.
        -11    1    4    4    0    0  0.22239459773E-01  0.69547611597E-01 -0.66569696214E-01  0.98809156584E-01  0.51100000000E-03 0. -1.
         11    1    4    4    0    0 -0.30799110036E-03  0.18397518603E-01 -0.28678452750E-01  0.34077533983E-01  0.51100000000E-03 0.  1.
</event>
<event>
 8    1  0.1066842E+005  0.1043930E+01  0.7957747E-01            NaN
         13   -1    0    0    0    0  0.00000000000E+00  0.00000000000E+00  0.74505805969E-08  0.10566000000E+00  0.10566000000E+00 0. -1.
     999900   -1    0    0    0    0 -0.00000000000E+00 -0.00000000000E+00 -0.74505805969E-08  0.93827000000E+00  0.93827000000E+00 0. -1.
     999902    2    1    2    0    0  0.17734293865E-01  0.77536957176E-03  0.13112419548E-01  0.10218609737E+01  0.10216226346E+01 0.  0.
     999903    2    3    3    0    0  0.78621571649E-02  0.12973831223E+00 -0.11747370036E-01  0.13205936162E+00  0.20194828867E-01 0.  0.
         14    1    1    2    0    0 -0.17734293865E-01 -0.77536957176E-03 -0.13112419548E-01  0.22069026332E-01  0.00000000000E+00 0.  1.
     999901    1    3    3    0    0  0.98721367000E-02 -0.12896294266E+00  0.24859789584E-01  0.88980161205E+00  0.88000000000E+00 0.  1.
        -11    1    4    4    0    0  0.55535038441E-03  0.77229205612E-02 -0.57853310563E-02  0.96790026592E-02  0.51100000000E-03 0. -1.
         11    1    4    4    0    0  0.73068067805E-02  0.12201539167E+00 -0.59620389796E-02  0.12238035896E+00  0.51100000000E-03 0.  1.
</event>
<event>
 8    1  0.1066842E+005  0.1043930E+01  0.7957747E-01            NaN
         13   -1    0    0    0    0  0.00000000000E+00  0.00000000000E+00  0.74505805969E-08  0.10566000000E+00  0.10566000000E+00 0.  1.
     999900   -1    0    0    0    0 -0.00000000000E+00 -0.00000000000E+00 -0.74505805969E-08  0.93827000000E+00  0.93827000000E+00 0. -1.
     999902    2    1    2    0    0  0.24260320816E-02  0.17708088148E-01 -0.15728333592E-01  0.10201215457E+01  0.10198436770E+01 0.  0.
     999903    2    3    3    0    0 -0.74494320093E-01  0.55273326253E-01  0.88683452511E-01  0.12982400626E+00  0.19620742373E-01 0.  0.
         14    1    1    2    0    0 -0.24260320816E-02 -0.17708088148E-01  0.15728333592E-01  0.23808454278E-01  0.00000000000E+00 0. -1.
     999901    1    3    3    0    0  0.76920352174E-01 -0.37565238105E-01 -0.10441178610E+00  0.89029753946E+00  0.88000000000E+00 0. -1.
        -11    1    4    4    0    0 -0.40584486931E-01  0.18532076914E-01  0.45974671322E-01  0.64066137532E-01  0.51100000000E-03 0.  1.
         11    1    4    4    0    0 -0.33909833162E-01  0.36741249339E-01  0.42708781189E-01  0.65757868729E-01  0.51100000000E-03 0. -1.
</event>
<event>
 7    1  0.1066842E+005  0.1043930E+01  0.7957747E-01            NaN
         13   -1    0    0    0    0  0.00000000000E+00  0.00000000000E+00  0.74505805969E-08  0.10566000000E+00  0.10566000000E+00 0.  1.
     999900   -1    0    0    0    0 -0.00000000000E+00 -0.00000000000E+00 -0.74505805969E-08  0.93827000000E+00  0.93827000000E+00 0. -1.
     999903    2    1    2    0    0  0.56009283975E-01 -0.27363296180E-01  0.46862871033E-01  0.80463750943E-01  0.19811528593E-01 0.  0.
         14    1    1    2    0    0  0.76736992308E-02 -0.56991066618E-01  0.44124981027E-01  0.72483662192E-01  0.00000000000E+00 0.  1.
     999901    1    1    2    0    0 -0.63682983206E-01  0.84354362798E-01 -0.90987852060E-01  0.89098258686E+00  0.88000000000E+00 0. -1.
        -11    1    3    3    0    0  0.11319291763E-01 -0.81136873019E-02  0.16398830174E-02  0.14032413369E-01  0.51100000000E-03 0. -1.
         11    1    3    3    0    0  0.44689992212E-01 -0.19249608879E-01  0.45222988015E-01  0.66431337575E-01  0.51100000000E-03 0.  1.
</event>
<event>
 8    1  0.1143872E+005  0.1043930E+01  0.7957747E-01            NaN
         13   -1    0    0    0    0  0.00000000000E+00  0.00000000000E+00  0.74505805969E-08  0.10566000000E+00  0.10566000000E+00 0. -1.
     999900   -1    0    0    0    0 -0.00000000000E+00 -0.00000000000E+00 -0.74505805969E-08  0.93827000000E+00  0.93827000000E+00 0. -1.
     999902    2    1    2    0    0  0.31365044374E-02 -0.22789688905E-01 -0.80280710122E-02  0.10195649122E+01  0.10192737378E+01 0.  0.
     999903    2    3    3    0    0 -0.29307059659E-01  0.11928260487E+00 -0.11864539122E-01  0.12757172835E+00  0.32350193412E-01 0.  0.
         14    1    1    2    0    0 -0.31365044374E-02  0.22789688905E-01  0.80280710122E-02  0.24365087823E-01  0.00000000000E+00 0. -1.
     999901    1    3    3    0    0  0.32443564096E-01 -0.14207229378E+00  0.38364681095E-02  0.89199318383E+00  0.88000000000E+00 0. -1.
        -11    1    4    4    0    0 -0.10112114977E-02  0.68600022139E-01 -0.16362270420E-02  0.68628885654E-01  0.51100000000E-03 0. -1.
         11    1    4    4    0    0 -0.28295848161E-01  0.50682582734E-01 -0.10228312080E-01  0.58942842693E-01  0.51100000000E-03 0.  1.
</event>
<event>
 8    1  0.1066842E+005  0.1043930E+01  0.7957747E-01            NaN
         13   -1    0    0    0    0  0.00000000000E+00  0.00000000000E+00  0.74505805969E-08  0.10566000000E+00  0.10566000000E+00 0.  1.
     999900   -1    0    0    0    0 -0.00000000000E+00 -0.00000000000E+00 -0.74505805969E-08  0.93827000000E+00  0.93827000000E+00 0.  1.
     999902    2    1    2    0    0  0.22318837402E-01 -0.15574313325E-01 -0.10447513554E-01  0.10147779799E+01  0.10143591613E+01 0.  0.
     999903    2    3    3    0    0 -0.97267944191E-02 -0.18268950384E-01 -0.12370987503E+00  0.12693647030E+00  0.19503057036E-01 0.  0.
         14    1    1    2    0    0 -0.22318837402E-01  0.15574313325E-01  0.10447513554E-01  0.29152020135E-01  0.00000000000E+00 0.  1.
     999901    1    3    3    0    0  0.32045631821E-01  0.26946370589E-02  0.11326236147E+00  0.88784150957E+00  0.88000000000E+00 0. -1.
        -11    1    4    4    0    0  0.22283652498E-02 -0.64820598990E-03 -0.53833044562E-01  0.53885467341E-01  0.51100000000E-03 0. -1.
         11    1    4    4    0    0 -0.11955159669E-01 -0.17620744394E-01 -0.69876830466E-01  0.73051002955E-01  0.51100000000E-03 0.  1.
</event>
<event>
 8    1  0.1066842E+005  0.1043930E+01  0.7957747E-01            NaN
         13   -1    0    0    0    0  0.00000000000E+00  0.00000000000E+00  0.74505805969E-08  0.10566000000E+00  0.10566000000E+00 0. -1.
     999900   -1    0    0    0    0 -0.00000000000E+00 -0.00000000000E+00 -0.74505805969E-08  0.93827000000E+00  0.93827000000E+00 0. -1.
     999902    2    1    2    0    0 -0.27095366095E-01  0.20443336645E-01 -0.67171621927E-02  0.10093292898E+01  0.10087360438E+01 0.  0.
     999903    2    3    3    0    0 -0.11729584935E+00  0.58821508482E-02  0.31721806984E-01  0.12376409761E+00  0.22767583173E-01 0.  0.
         14    1    1    2    0    0  0.27095366095E-01 -0.20443336645E-01  0.67171621927E-02  0.34600710180E-01  0.00000000000E+00 0.  1.
     999901    1    3    3    0    0  0.90200483258E-01  0.14561185797E-01 -0.38438969177E-01  0.88556519222E+00  0.88000000000E+00 0. -1.
        -11    1    4    4    0    0 -0.77610389726E-01 -0.25193201778E-02  0.11718040833E-01  0.78532115529E-01  0.51100000000E-03 0. -1.
         11    1    4    4    0    0 -0.39685459627E-01  0.84014710260E-02  0.20003766152E-01  0.45231982076E-01  0.51100000000E-03 0.  1.
</event>
<event>
 8    1  0.1066842E+005  0.1043930E+01  0.7957747E-01            NaN
         13   -1    0    0    0    0  0.00000000000E+00  0.00000000000E+00  0.74505805969E-08  0.10566000000E+00  0.10566000000E+00 0.  1.
     999900   -1    0    0    0    0 -0.00000000000E+00 -0.00000000000E+00 -0.74505805969E-08  0.93827000000E+00  0.93827000000E+00 0.  1.
     999902    2    1    2    0    0  0.48754432590E-02  0.18393658615E-01 -0.14225579417E-01  0.10201715545E+01  0.10198948656E+01 0.  0.
     999903    2    3    3    0    0 -0.11047912838E+00  0.64119168474E-01 -0.23799281228E-01  0.13141446999E+00  0.19658371292E-01 0.  0.
         14    1    1    2    0    0 -0.48754432590E-02 -0.18393658615E-01  0.14225579417E-01  0.23758445529E-01  0.00000000000E+00 0. -1.
     999901    1    3    3    0    0  0.11535457164E+00 -0.45725509859E-01  0.95737018112E-02  0.88875708448E+00  0.88000000000E+00 0. -1.
        -11    1    4    4    0    0 -0.24608027900E-01  0.80305389820E-02  0.93448298204E-03  0.25907122050E-01  0.51100000000E-03 0.  1.
         11    1    4    4    0    0 -0.85871100481E-01  0.56088629492E-01 -0.24733764210E-01  0.10550734794E+00  0.51100000000E-03 0. -1.
</event>
<event>
 8    1  0.1066842E+005  0.1043930E+01  0.7957747E-01            NaN
         13   -1    0    0    0    0  0.00000000000E+00  0.00000000000E+00  0.74505805969E-08  0.10566000000E+00  0.10566000000E+00 0. -1.
     999900   -1    0    0    0    0 -0.00000000000E+00 -0.00000000000E+00 -0.74505805969E-08  0.93827000000E+00  0.93827000000E+00 0.  1.
     999902    2    1    2    0    0  0.10660115780E-01 -0.15023390798E-01  0.15937705350E-01  0.10195712071E+01  0.10192801850E+01 0.  0.
     999903    2    3    3    0    0  0.10772621370E+00  0.30440903225E-01 -0.62174842169E-01  0.12963278256E+00  0.20183201164E-01 0.  0.
         14    1    1    2    0    0 -0.10660115780E-01  0.15023390798E-01 -0.15937705350E-01  0.24358792896E-01  0.00000000000E+00 0.  1.
     999901    1    3    3    0    0 -0.97066097918E-01 -0.45464294023E-01  0.78112547519E-01  0.88993842454E+00  0.88000000000E+00 0. -1.
        -11    1    4    4    0    0  0.14873874218E-01  0.11737373943E-01 -0.86209505630E-02  0.20822583676E-01  0.51100000000E-03 0.  1.
         11    1    4    4    0    0  0.92852339480E-01  0.18703529282E-01 -0.53553891606E-01  0.10881019889E+00  0.51100000000E-03 0. -1.
</event>
<event>
 8    1  0.1066842E+005  0.1043930E+01  0.7957747E-01            NaN
         13   -1    0    0    0    0  0.00000000000E+00  0.00000000000E+00  0.74505805969E-08  0.10566000000E+00  0.10566000000E+00 0.  1.
     999900   -1    0    0    0    0 -0.00000000000E+00 -0.00000000000E+00 -0.74505805969E-08  0.93827000000E+00  0.93827000000E+00 0. -1.
     999902    2    1    2    0    0 -0.64030990012E-02  0.12777614173E-01 -0.18455850488E-01  0.10205872170E+01  0.10203202350E+01 0.  0.
     999903    2    3    3    0    0  0.70923051753E-01  0.10848543254E+00 -0.13665238376E-01  0.13201405173E+00  0.21019104889E-01 0.  0.
         14    1    1    2    0    0  0.64030990012E-02 -0.12777614173E-01  0.18455850488E-01  0.23342782996E-01  0.00000000000E+00 0. -1.
     999901    1    3    3    0    0 -0.77326150754E-01 -0.95707818365E-01 -0.47906121127E-02  0.88857316528E+00  0.88000000000E+00 0. -1.
        -11    1    4    4    0    0  0.30252621535E-01  0.58539689735E-01 -0.15023536857E-01  0.67587603632E-01  0.51100000000E-03 0.  1.
         11    1    4    4    0    0  0.40670430218E-01  0.49945742803E-01  0.13582984815E-02  0.64426448094E-01  0.51100000000E-03 0. -1.
</event>
<event>
 8    1  0.1066842E+005  0.1043930E+01  0.7957747E-01            NaN
         13   -1    0    0    0    0  0.00000000000E+00  0.00000000000E+00  0.74505805969E-08  0.10566000000E+00  0.10566000000E+00 0.  1.
     999900   -1    0    0    0    0 -0.00000000000E+00 -0.00000000000E+00 -0.74505805969E-08  0.93827000000E+00  0.93827000000E+00 0. -1.
     999902    2    1    2    0    0 -0.14070853257E-01 -0.45015841768E-02  0.17259142508E-01  0.10212114795E+01  0.10209587429E+01 0.  0.
     999903    2    3    3    0    0  0.26630293626E-01 -0.11854948049E+00  0.48357075018E-01  0.13237483121E+00  0.20531375284E-01 0.  0.
         14    1    1    2    0    0  0.14070853257E-01  0.45015841768E-02 -0.17259142508E-01  0.22718520453E-01  0.00000000000E+00 0. -1.
     999901    1    3    3    0    0 -0.40701146883E-01  0.11404789632E+00 -0.31097932510E-01  0.88883664833E+00  0.88000000000E+00 0. -1.
        -11    1    4    4    0    0  0.76136956663E-02 -0.69209835362E-01  0.20382638381E-01  0.72551242174E-01  0.51100000000E-03 0.  1.
         11    1    4    4    0    0  0.19016597960E-01 -0.49339645130E-01  0.27974436637E-01  0.59823589041E-01  0.51100000000E-03 0. -1.
</event>
<event>
 8    1  0.1066842E+005  0.1043930E+01  0.7957747E-01            NaN
         13   -1    0    0    0    0  0.00000000000E+00  0.00000000000E+00  0.74505805969E-08  0.10566000000E+00  0.10566000000E+00 0. -1.
     999900   -1    0    0    0    0 -0.00000000000E+00 -0.00000000000E+00 -0.74505805969E-08  0.93827000000E+00  0.93827000000E+00 0.  1.
     999902    2    1    2    0    0  0.23722325263E-01 -0.93074014122E-02  0.51281458686E-02  0.10179362639E+01  0.10176043254E+01 0.  0.
     999903    2    3    3    0    0  0.10233772879E+00  0.29658241424E-01 -0.71918752742E-01  0.13022295004E+00  0.20810759315E-01 0.  0.
         14    1    1    2    0    0 -0.23722325263E-01  0.93074014122E-02 -0.51281458686E-02  0.25993736110E-01  0.00000000000E+00 0. -1.
     999901    1    3    3    0    0 -0.78615403530E-01 -0.38965642837E-01  0.77046898611E-01  0.88771331385E+00  0.88000000000E+00 0. -1.
        -11    1    4    4    0    0  0.55285834279E-01  0.25752279579E-01 -0.45718599505E-01  0.76224371674E-01  0.51100000000E-03 0.  1.
         11    1    4    4    0    0  0.47051894514E-01  0.39059618452E-02 -0.26200153238E-01  0.53998578370E-01  0.51100000000E-03 0. -1.
</event>
<event>
 8    1  0.1066842E+005  0.1043930E+01  0.7957747E-01            NaN
         13   -1    0    0    0    0  0.00000000000E+00  0.00000000000E+00  0.74505805969E-08  0.10566000000E+00  0.10566000000E+00 0. -1.
     999900   -1    0    0    0    0 -0.00000000000E+00 -0.00000000000E+00 -0.74505805969E-08  0.93827000000E+00  0.93827000000E+00 0.  1.
     999902    2    1    2    0    0 -0.18717056256E-01  0.35774308174E-02 -0.12348801613E-01  0.10212227521E+01  0.10209702691E+01 0.  0.
     999903    2    3    3    0    0  0.10008328708E+00 -0.46000953254E-01 -0.66693422005E-01  0.13019813094E+00  0.19255874645E-01 0.  0.
         14    1    1    2    0    0  0.18717056256E-01 -0.35774308174E-02  0.12348801613E-01  0.22707247906E-01  0.00000000000E+00 0. -1.
     999901    1    3    3    0    0 -0.11880034333E+00  0.49578384071E-01  0.54344620392E-01  0.89102462116E+00  0.88000000000E+00 0. -1.
        -11    1    4    4    0    0  0.11008715723E-01 -0.12094814759E-01 -0.74811686153E-02  0.17991813993E-01  0.51100000000E-03 0.  1.
         11    1    4    4    0    0  0.89074571354E-01 -0.33906138495E-01 -0.59212253390E-01  0.11220631694E+00  0.51100000000E-03 0. -1.
</event>
<event>
 8    1  0.1066842E+005  0.1043930E+01  0.7957747E-01            NaN
         13   -1    0    0    0    0  0.00000000000E+00  0.00000000000E+00  0.74505805969E-08  0.10566000000E+00  0.10566000000E+00 0.  1.
     999900   -1    0    0    0    0 -0.00000000000E+00 -0.00000000000E+00 -0.74505805969E-08  0.93827000000E+00  0.93827000000E+00 0.  1.
     999902    2    1    2    0    0 -0.93555280324E-02  0.14004191725E-01  0.17198820440E-01  0.10198583836E+01  0.10195742641E+01 0.  0.
     999903    2    3    3    0    0 -0.18973464531E-01  0.72109092818E-01 -0.10410534776E+00  0.12958686017E+00  0.19877557063E-01 0.  0.
         14    1    1    2    0    0  0.93555280324E-02 -0.14004191725E-01 -0.17198820440E-01  0.24071616381E-01  0.00000000000E+00 0. -1.
     999901    1    3    3    0    0  0.96179364985E-02 -0.58104901093E-01  0.12130416820E+00  0.89027152344E+00  0.88000000000E+00 0. -1.
        -11    1    4    4    0    0 -0.24571098175E-02  0.93108130864E-02 -0.27614563916E-01  0.29249852824E-01  0.51100000000E-03 0.  1.
         11    1    4    4    0    0 -0.16516354713E-01  0.62798279731E-01 -0.76490783843E-01  0.10033700735E+00  0.51100000000E-03 0. -1.
</event>
<event>
 8    1  0.1066842E+005  0.1043930E+01  0.7957747E-01            NaN
         13   -1    0    0    0    0  0.00000000000E+00  0.00000000000E+00  0.74505805969E-08  0.10566000000E+00  0.10566000000E+00 0.  1.
     999900   -1    0    0    0    0 -0.00000000000E+00 -0.00000000000E+00 -0.74505805969E-08  0.93827000000E+00  0.93827000000E+00 0. -1.
     999902    2    1    2    0    0 -0.11649149723E-01 -0.86509149318E-02 -0.18717021185E-01  0.10202473502E+01  0.10199724446E+01 0.  0.
     999903    2    3    3    0    0  0.44380871343E-01 -0.10671198183E+00  0.55791426804E-01  0.12990649138E+00  0.20147069062E-01 0.  0.
         14    1    1    2    0    0  0.11649149723E-01  0.86509149318E-02  0.18717021185E-01  0.23682649777E-01  0.00000000000E+00 0.  1.
     999901    1    3    3    0    0 -0.56030021066E-01  0.98061066895E-01 -0.74508447988E-01  0.89034085884E+00  0.88000000000E+00 0. -1.
        -11    1    4    4    0    0  0.42223253410E-01 -0.80798267346E-01  0.40728514071E-01  0.99851069669E-01  0.51100000000E-03 0. -1.
         11    1    4    4    0    0  0.21576179330E-02 -0.25913714480E-01  0.15062912733E-01  0.30055421713E-01  0.51100000000E-03 0.  1.
</event>
<event>
 8    1  0.1066842E+005  0.1043930E+01  0.7957747E-01            NaN
         13   -1    0    0    0    0  0.00000000000E+00  0.00000000000E+00  0.74505805969E-08  0.10566000000E+00  0.10566000000E+00 0.  1.
     999900   -1    0    0    0    0 -0.00000000000E+00 -0.00000000000E+00 -0.74505805969E-08  0.93827000000E+00  0.93827000000E+00 0. -1.
     999902    2    1    2    0    0  0.12501896149E-01  0.20110924290E-01  0.50074035927E-02  0.10197262653E+01  0.10194389807E+01 0.  0.
     999903    2    3    3    0    0  0.70257703520E-01 -0.77058068120E-01  0.74601168790E-01  0.12977073914E+00  0.20025473425E-01 0.  0.
         14    1    1    2    0    0 -0.12501896149E-01 -0.20110924290E-01 -0.50074035927E-02  0.24203734709E-01  0.00000000000E+00 0. -1.
     999901    1    3    3    0    0 -0.57755807371E-01  0.97168992411E-01 -0.69593765197E-01  0.88995552615E+00  0.88000000000E+00 0. -1.
        -11    1    4    4    0    0  0.84067280538E-02 -0.52639922178E-02  0.14429824750E-01  0.17517524196E-01  0.51100000000E-03 0. -1.
         11    1    4    4    0    0  0.61850975467E-01 -0.71794075902E-01  0.60171344040E-01  0.11225321494E+00  0.51100000000E-03 0.  1.
</event>
<event>
 8    1  0.1066842E+005  0.1043930E+01  0.7957747E-01            NaN
         13   -1    0    0    0    0  0.00000000000E+00  0.00000000000E+00  0.74505805969E-08  0.10566000000E+00  0.10566000000E+00 0. -1.
     999900   -1    0    0    0    0 -0.00000000000E+00 -0.00000000000E+00 -0.74505805969E-08  0.93827000000E+00  0.93827000000E+00 0.  1.
     999902    2    1    2    0    0 -0.56943304846E-03 -0.50988232085E-02  0.21346262050E-01  0.10219758397E+01  0.10217400020E+01 0.  0.
     999903    2    3    3    0    0 -0.39789725375E-01  0.58194757424E-01 -0.10644199683E+00  0.12963389412E+00  0.22476560681E-01 0.  0.
         14    1    1    2    0    0  0.56943304846E-03  0.50988232085E-02 -0.21346262050E-01  0.21954160326E-01  0.00000000000E+00 0.  1.
     999901    1    3    3    0    0  0.39220292326E-01 -0.63293580633E-01  0.12778825888E+00  0.89234194555E+00  0.88000000000E+00 0. -1.
        -11    1    4    4    0    0 -0.22925914684E-02  0.87775484659E-02 -0.29106963075E-01  0.30492257266E-01  0.51100000000E-03 0. -1.
         11    1    4    4    0    0 -0.37497133906E-01  0.49417208959E-01 -0.77335033754E-01  0.99141636859E-01  0.51100000000E-03 0.  1.
</event>
<event>
 8    1  0.1066842E+005  0.1043930E+01  0.7957747E-01            NaN
         13   -1    0    0    0    0  0.00000000000E+00  0.00000000000E+00  0.74505805969E-08  0.10566000000E+00  0.10566000000E+00 0. -1.
     999900   -1    0    0    0    0 -0.00000000000E+00 -0.00000000000E+00 -0.74505805969E-08  0.93827000000E+00  0.93827000000E+00 0.  1.
     999902    2    1    2    0    0 -0.20984232275E-01  0.10592401774E-01  0.49899045088E-02  0.10199000993E+01  0.10196169754E+01 0.  0.
     999903    2    3    3    0    0  0.83437498243E-01 -0.94075953083E-01  0.79252625866E-02  0.12756161050E+00  0.19926204461E-01 0.  0.
         14    1    1    2    0    0  0.20984232275E-01 -0.10592401774E-01 -0.49899045088E-02  0.24029900677E-01  0.00000000000E+00 0.  1.
     999901    1    3    3    0    0 -0.10442173052E+00  0.10466835486E+00 -0.29353580777E-02  0.89233848883E+00  0.88000000000E+00 0.  1.
        -11    1    4    4    0    0  0.17421439940E-01 -0.29415603507E-01 -0.38435015195E-02  0.34406655231E-01  0.51100000000E-03 0.  1.
         11    1    4    4    0    0  0.66016058303E-01 -0.64660349576E-01  0.11768764106E-01  0.93154955266E-01  0.51100000000E-03 0. -1.
</event>
<event>
 8    1  0.1066842E+005  0.1043930E+01  0.7957747E-01            NaN
         13   -1    0    0    0    0  0.00000000000E+00  0.00000000000E+00  0.74505805969E-08  0.10566000000E+00  0.10566000000E+00 0. -1.
     999900   -1    0    0    0    0 -0.00000000000E+00 -0.00000000000E+00 -0.74505805969E-08  0.93827000000E+00  0.93827000000E+00 0. -1.
     999902    2    1    2    0    0 -0.13064795682E-02  0.74427120953E-03  0.25565423048E-01  0.10183203986E+01  0.10179983215E+01 0.  0.
     999903    2    3    3    0    0 -0.99368032074E-01  0.30671744582E-01 -0.70572567436E-01  0.12716708128E+00  0.19396328868E-01 0.  0.
         14    1    1    2    0    0  0.13064795682E-02 -0.74427120953E-03 -0.25565423048E-01  0.25609601405E-01  0.00000000000E+00 0.  1.
     999901    1    3    3    0    0  0.98061552506E-01 -0.29927473372E-01  0.96137990484E-01  0.89115331731E+00  0.88000000000E+00 0.  1.
        -11    1    4    4    0    0 -0.75994215758E-01  0.21190384066E-01 -0.43226091766E-01  0.89960598797E-01  0.51100000000E-03 0. -1.
         11    1    4    4    0    0 -0.23373816315E-01  0.94813605162E-02 -0.27346475670E-01  0.37206482485E-01  0.51100000000E-03 0.  1.
</event>
<event>
 8    1  0.1066842E+005  0.1043930E+01  0.7957747E-01            NaN
         13   -1    0    0    0    0  0.00000000000E+00  0.00000000000E+00  0.74505805969E-08  0.10566000000E+00  0.10566000000E+00 0.  1.
     999900   -1    0    0    0    0 -0.00000000000E+00 -0.00000000000E+00 -0.74505805969E-08  0.93827000000E+00  0.93827000000E+00 0. -1.
     999902    2    1    2    0    0  0.16418703675E-01  0.18993051678E-01  0.86611588505E-02  0.10173720348E+01  0.10170253348E+01 0.  0.
     999903    2    3    3    0    0  0.10532822114E+00 -0.54941731466E-01  0.45809690139E-01  0.12903017053E+00  0.20919588239E-01 0.  0.
         14    1    1    2    0    0 -0.16418703675E-01 -0.18993051678E-01 -0.86611588505E-02  0.26557965190E-01  0.00000000000E+00 0. -1.
     999901    1    3    3    0    0 -0.88909517462E-01  0.73934783144E-01 -0.37148531289E-01  0.88834186428E+00  0.88000000000E+00 0. -1.
        -11    1    4    4    0    0  0.11232174441E-01 -0.69637663077E-02  0.12708577696E-01  0.18341887905E-01  0.51100000000E-03 0.  1.
         11    1    4    4    0    0  0.94096046697E-01 -0.47977965158E-01  0.33101112443E-01  0.11068828263E+00  0.51100000000E-03 0. -1.
</event>
<event>
 8    1  0.1066842E+005  0.1043930E+01  0.7957747E-01            NaN
         13   -1    0    0    0    0  0.00000000000E+00  0.00000000000E+00  0.74505805969E-08  0.10566000000E+00  0.10566000000E+00 0. -1.
     999900   -1    0    0    0    0 -0.00000000000E+00 -0.00000000000E+00 -0.74505805969E-08  0.93827000000E+00  0.93827000000E+00 0.  1.
     999902    2    1    2    0    0  0.13509298665E-02  0.23361950837E-01  0.20352063184E-02  0.10204406870E+01  0.10201703034E+01 0.  0.
     999903    2    3    3    0    0 -0.70769612576E-01 -0.10064821807E+00 -0.15787158596E-01  0.12864613036E+00  0.34090916926E-01 0.  0.
         14    1    1    2    0    0 -0.13509298665E-02 -0.23361950837E-01 -0.20352063184E-02  0.23489312957E-01  0.00000000000E+00 0.  1.
     999901    1    3    3    0    0  0.72120542443E-01  0.12401016890E+00  0.17822364915E-01  0.89179455668E+00  0.88000000000E+00 0.  1.
        -11    1    4    4    0    0 -0.39251982196E-01 -0.27491471565E-01 -0.82771529455E-02  0.48634056966E-01  0.51100000000E-03 0.  1.
         11    1    4    4    0    0 -0.31517630380E-01 -0.73156746501E-01 -0.75100056508E-02  0.80012073397E-01  0.51100000000E-03 0. -1.
</event>
<event>
 8    1  0.1066842E+005  0.1043930E+01  0.7957747E-01            NaN
         13   -1    0    0    0    0  0.00000000000E+00  0.00000000000E+00  0.74505805969E-08  0.10566000000E+00  0.10566000000E+00 0.  1.
     999900   -1    0    0    0    0 -0.00000000000E+00 -0.00000000000E+00 -0.74505805969E-08  0.93827000000E+00  0.93827000000E+00 0. -1.
     999902    2    1    2    0    0  0.86086540655E-02  0.20952707083E-01  0.50028445465E-02  0.10207318683E+01  0.10204682228E+01 0.  0.
     999903    2    3    3    0    0  0.92910294609E-03 -0.93066494452E-02  0.12952301477E+00  0.13141759489E+00  0.20171661727E-01 0.  0.
         14    1    1    2    0    0 -0.86086540655E-02 -0.20952707083E-01 -0.50028445465E-02  0.23198131659E-01  0.00000000000E+00 0.  1.
     999901    1    3    3    0    0  0.76795511195E-02  0.30259356528E-01 -0.12452017022E+00  0.88931427345E+00  0.88000000000E+00 0. -1.
        -11    1    4    4    0    0  0.57941301740E-02 -0.11668697524E-01  0.48790181250E-01  0.50502211375E-01  0.51100000000E-03 0. -1.
         11    1    4    4    0    0 -0.48650272280E-02  0.23620480792E-02  0.80732833519E-01  0.80915383520E-01  0.51100000000E-03 0.  1.
</event>
<event>
 8    1  0.1066842E+005  0.1043930E+01  0.7957747E-01            NaN
         13   -1    0    0    0    0  0.00000000000E+00  0.00000000000E+00  0.74505805969E-08  0.10566000000E+00  0.10566000000E+00 0. -1.
     999900   -1    0    0    0    0 -0.00000000000E+00 -0.00000000000E+00 -0.74505805969E-08  0.93827000000E+00  0.93827000000E+00 0. -1.
     999902    2    1    2    0    0 -0.16547084933E-01 -0.21580279229E-02 -0.15606705686E-01  0.10210819724E+01  0.10208263133E+01 0.  0.
     999903    2    3    3    0    0 -0.92062007784E-01 -0.79783103806E-01 -0.51477015405E-01  0.13371799119E+00  0.19744901160E-01 0.  0.
         14    1    1    2    0    0  0.16547084933E-01  0.21580279229E-02  0.15606705686E-01  0.22848027632E-01  0.00000000000E+00 0. -1.
     999901    1    3    3    0    0  0.75514922851E-01  0.77625075883E-01  0.35870309719E-01  0.88736398118E+00  0.88000000000E+00 0.  1.
        -11    1    4    4    0    0 -0.67576449822E-01 -0.46274185333E-01 -0.33634199575E-01  0.88540371022E-01  0.51100000000E-03 0. -1.
         11    1    4    4    0    0 -0.24485557962E-01 -0.33508918473E-01 -0.17842815830E-01  0.45177620164E-01  0.51100000000E-03 0.  1.
</event>
<event>
 8    1  0.1066842E+005  0.1043930E+01  0.7957747E-01            NaN
         13   -1    0    0    0    0  0.00000000000E+00  0.00000000000E+00  0.74505805969E-08  0.10566000000E+00  0.10566000000E+00 0.  1.
     999900   -1    0    0    0    0 -0.00000000000E+00 -0.00000000000E+00 -0.74505805969E-08  0.93827000000E+00  0.93827000000E+00 0.  1.
     999902    2    1    2    0    0 -0.14073046992E-01 -0.10575437393E-01 -0.14839944998E-01  0.10209057846E+01  0.10206461221E+01 0.  0.
     999903    2    3    3    0    0  0.52395629923E-01  0.10991253066E+00 -0.40263013178E-01  0.12984923877E+00  0.20338341783E-01 0.  0.
         14    1    1    2    0    0  0.14073046992E-01  0.10575437393E-01  0.14839944998E-01  0.23024215410E-01  0.00000000000E+00 0.  1.
     999901    1    3    3    0    0 -0.66468676916E-01 -0.12048796806E+00  0.25423068180E-01  0.89105654582E+00  0.88000000000E+00 0. -1.
        -11    1    4    4    0    0  0.27897318992E-01  0.47705627541E-01 -0.88197015110E-02  0.55965485451E-01  0.51100000000E-03 0.  1.
         11    1    4    4    0    0  0.24498310931E-01  0.62206903121E-01 -0.31443311667E-01  0.73883753316E-01  0.51100000000E-03 0. -1.
</event>
<event>
 8    1  0.1066842E+005  0.1043930E+01  0.7957747E-01            NaN
         13   -1    0    0    0    0  0.00000000000E+00  0.00000000000E+00  0.74505805969E-08  0.10566000000E+00  0.10566000000E+00 0. -1.
     999900   -1    0    0    0    0 -0.00000000000E+00 -0.00000000000E+00 -0.74505805969E-08  0.93827000000E+00  0.93827000000E+00 0.  1.
     999902    2    1    2    0    0 -0.22507018720E-01 -0.11274306110E-01  0.81741281957E-03  0.10187438126E+01  0.10184324287E+01 0.  0.
     999903    2    3    3    0    0 -0.71018703518E-01 -0.92172387560E-01 -0.58393252300E-01  0.13172420406E+00  0.20052150584E-01 0.  0.
         14    1    1    2    0    0  0.22507018720E-01  0.11274306110E-01 -0.81741281957E-03  0.25186187358E-01  0.00000000000E+00 0. -1.
     999901    1    3    3    0    0  0.48511684798E-01  0.80898081450E-01  0.59210665120E-01  0.88701960858E+00  0.88000000000E+00 0. -1.
        -11    1    4    4    0    0 -0.15417992828E-01 -0.85686534587E-02 -0.96440407180E-02  0.20109822657E-01  0.51100000000E-03 0. -1.
         11    1    4    4    0    0 -0.55600710690E-01 -0.83603734102E-01 -0.48749211582E-01  0.11161438140E+00  0.51100000000E-03 0.  1.
</event>
<event>
 8    1  0.1066842E+005  0.1043930E+01  0.7957747E-01            NaN
         13   -1    0    0    0    0  0.00000000000E+00  0.00000000000E+00  0.74505805969E-08  0.10566000000E+00  0.10566000000E+00 0. -1.
     999900   -1    0    0    0    0 -0.00000000000E+00 -0.00000000000E+00 -0.74505805969E-08  0.93827000000E+00  0.93827000000E+00 0. -1.
     999902    2    1    2    0    0  0.14948572294E-01 -0.13910300556E-01 -0.11844285815E-01  0.10203239969E+01  0.10200508886E+01 0.  0.
     999903    2    3    3    0    0 -0.22665120720E-01  0.94433277992E-01  0.80982300195E-01  0.12804046799E+00  0.20121550875E-01 0.  0.
         14    1    1    2    0    0 -0.14948572294E-01  0.13910300556E-01  0.11844285815E-01  0.23606003085E-01  0.00000000000E+00 0.  1.
     999901    1    3    3    0    0  0.37613693013E-01 -0.10834357855E+00 -0.92826586009E-01  0.89228352892E+00  0.88000000000E+00 0. -1.
        -11    1    4    4    0    0 -0.73215726171E-02  0.41886054984E-01  0.23190954718E-01  0.48436850945E-01  0.51100000000E-03 0.  1.
         11    1    4    4    0    0 -0.15343548103E-01  0.52547223008E-01  0.57791345477E-01  0.79603617049E-01  0.51100000000E-03 0. -1.
</event>
<event>
 8    1  0.1066842E+005  0.1043930E+01  0.7957747E-01            NaN
         13   -1    0    0    0    0  0.00000000000E+00  0.00000000000E+00  0.74505805969E-08  0.10566000000E+00  0.10566000000E+00 0. -1.
     999900   -1    0    0    0    0 -0.00000000000E+00 -0.00000000000E+00 -0.74505805969E-08  0.93827000000E+00  0.93827000000E+00 0.  1.
     999902    2    1    2    0    0 -0.21725704465E-01  0.48081613387E-02 -0.71205792604E-02  0.10205670529E+01  0.10202996041E+01 0.  0.
     999903    2    3    3    0    0  0.80753586502E-01 -0.75609913716E-01  0.61777663718E-01  0.12831370333E+00  0.20246627907E-01 0.  0.
         14    1    1    2    0    0  0.21725704465E-01 -0.48081613387E-02  0.71205792604E-02  0.23362947138E-01  0.00000000000E+00 0. -1.
     999901    1    3    3    0    0 -0.10247929097E+00  0.80418075055E-01 -0.68898242979E-01  0.89225334954E+00  0.88000000000E+00 0.  1.
        -11    1    4    4    0    0  0.34593612854E-01 -0.34889871542E-01  0.38805116752E-01  0.62610856835E-01  0.51100000000E-03 0.  1.
         11    1    4    4    0    0  0.46159973648E-01 -0.40720042174E-01  0.22972546967E-01  0.65702846491E-01  0.51100000000E-03 0. -1.
</event>
<event>
 8    1  0.1066842E+005  0.1043930E+01  0.7957747E-01            NaN
         13   -1    0    0    0    0  0.00000000000E+00  0.00000000000E+00  0.74505805969E-08  0.10566000000E+00  0.10566000000E+00 0.  1.
     999900   -1    0    0    0    0 -0.00000000000E+00 -0.00000000000E+00 -0.74505805969E-08  0.93827000000E+00  0.93827000000E+00 0.  1.
     999902    2    1    2    0    0 -0.15106124364E-01  0.53514888233E-02  0.18519517207E-01  0.10194390641E+01  0.10191448373E+01 0.  0.
     999903    2    3    3    0    0 -0.10317889896E+00 -0.58659465470E-01 -0.49649042545E-01  0.13011281996E+00  0.19429369829E-01 0.  0.
         14    1    1    2    0    0  0.15106124364E-01 -0.53514888233E-02 -0.18519517207E-01  0.24490935946E-01  0.00000000000E+00 0. -1.
     999901    1    3    3    0    0  0.88072774600E-01  0.64010954293E-01  0.68168559752E-01  0.88932624409E+00  0.88000000000E+00 0. -1.
        -11    1    4    4    0    0 -0.38923701867E-01 -0.30466998885E-01 -0.27300037758E-01  0.56469866041E-01  0.51100000000E-03 0.  1.
         11    1    4    4    0    0 -0.64255197096E-01 -0.28192466585E-01 -0.22349004787E-01  0.73642953919E-01  0.51100000000E-03 0. -1.
</event>
<event>
 8    1  0.1066842E+005  0.1043930E+01  0.7957747E-01            NaN
         13   -1    0    0    0    0  0.00000000000E+00  0.00000000000E+00  0.74505805969E-08  0.10566000000E+00  0.10566000000E+00 0. -1.
     999900   -1    0    0    0    0 -0.00000000000E+00 -0.00000000000E+00 -0.74505805969E-08  0.93827000000E+00  0.93827000000E+00 0.  1.
     999902    2    1    2    0    0 -0.89438669933E-02  0.20020396522E-01  0.77008491609E-02  0.10206896878E+01  0.10204250716E+01 0.  0.
     999903    2    3    3    0    0  0.80390790171E-01  0.56315602063E-01  0.85919549942E-01  0.13197365437E+00  0.20018746333E-01 0.  0.
         14    1    1    2    0    0  0.89438669933E-02 -0.20020396522E-01 -0.77008491609E-02  0.23240312208E-01  0.00000000000E+00 0. -1.
     999901    1    3    3    0    0 -0.89334657164E-01 -0.36295205540E-01 -0.78218700781E-01  0.88871603343E+00  0.88000000000E+00 0.  1.
        -11    1    4    4    0    0  0.19184961567E-01  0.23421038638E-01  0.31683679132E-01  0.43826070387E-01  0.51100000000E-03 0.  1.
         11    1    4    4    0    0  0.61205828604E-01  0.32894563424E-01  0.54235870809E-01  0.88147583980E-01  0.51100000000E-03 0. -1.
</event>
<event>
 8    1  0.1066842E+005  0.1043930E+01  0.7957747E-01            NaN
         13   -1    0    0    0    0  0.00000000000E+00  0.00000000000E+00  0.74505805969E-08  0.10566000000E+00  0.10566000000E+00 0.  1.
     999900   -1    0    0    0    0 -0.00000000000E+00 -0.00000000000E+00 -0.74505805969E-08  0.93827000000E+00  0.93827000000E+00 0. -1.
     999902    2    1    2    0    0  0.14775875270E-01  0.85489392649E-03 -0.17268775164E-01  0.10211864750E+01  0.10209331755E+01 0.  0.
     999903    2    3    3    0    0 -0.73171673956E-01  0.75263756683E-01 -0.76817927491E-01  0.13168237056E+00  0.20506725573E-01 0.  0.
         14    1    1    2    0    0 -0.14775875270E-01 -0.85489392649E-03  0.17268775164E-01  0.22743524997E-01  0.00000000000E+00 0.  1.
     999901    1    3    3    0    0  0.87947549226E-01 -0.74408862757E-01  0.59549152327E-01  0.88950410444E+00  0.88000000000E+00 0. -1.
        -11    1    4    4    0    0 -0.61180164493E-01  0.53281045748E-01 -0.51652877900E-01  0.96177769155E-01  0.51100000000E-03 0. -1.
         11    1    4    4    0    0 -0.11991509464E-01  0.21982710935E-01 -0.25165049591E-01  0.35504601409E-01  0.51100000000E-03 0.  1.
</event>
<event>
 8    1  0.1066842E+005  0.1043930E+01  0.7957747E-01            NaN
         13   -1    0    0    0    0  0.00000000000E+00  0.00000000000E+00  0.74505805969E-08  0.10566000000E+00  0.10566000000E+00 0.  1.
     999900   -1    0    0    0    0 -0.00000000000E+00 -0.00000000000E+00 -0.74505805969E-08  0.93827000000E+00  0.93827000000E+00 0.  1.
     999902    2    1    2    0    0  0.17941898721E-01  0.88619372652E-02  0.14018791983E-01  0.10194969856E+01  0.10192041658E+01 0.  0.
     999903    2    3    3    0    0  0.80471985987E-02  0.54459476645E-01 -0.11494273224E+00  0.12887466647E+00  0.19137814955E-01 0.  0.
         14    1    1    2    0    0 -0.17941898721E-01 -0.88619372652E-02 -0.14018791983E-01  0.24433014355E-01  0.00000000000E+00 0. -1.
     999901    1    3    3    0    0  0.98947001225E-02 -0.45597539380E-01  0.12896152422E+00  0.89062231918E+00  0.88000000000E+00 0. -1.
        -11    1    4    4    0    0 -0.46488291417E-02  0.64331125326E-02 -0.10084245804E-01  0.12843273869E-01  0.51100000000E-03 0. -1.
         11    1    4    4    0    0  0.12696027740E-01  0.48026364113E-01 -0.10485848643E+00  0.11603139260E+00  0.51100000000E-03 0.  1.
</event>
<event>
 8    1  0.1066842E+005  0.1043930E+01  0.7957747E-01            NaN
         13   -1    0    0    0    0  0.00000000000E+00  0.00000000000E+00  0.74505805969E-08  0.10566000000E+00  0.10566000000E+00 0.  1.
     999900   -1    0    0    0    0 -0.00000000000E+00 -0.00000000000E+00 -0.74505805969E-08  0.93827000000E+00  0.93827000000E+00 0.  1.
     999902    2    1    2    0    0 -0.20589250708E-02 -0.25688831527E-01  0.12227595594E-01  0.10154051103E+01  0.10150043688E+01 0.  0.
     999903    2    3    3    0    0  0.38096972489E-01 -0.75449135122E-01  0.95570338185E-01  0.12915762983E+00  0.20101057147E-01 0.  0.
         14    1    1    2    0    0  0.20589250708E-02  0.25688831527E-01 -0.12227595594E-01  0.28524889688E-01  0.00000000000E+00 0. -1.
     999901    1    3    3    0    0 -0.40155897560E-01  0.49760303594E-01 -0.83342742591E-01  0.88624748048E+00  0.88000000000E+00 0. -1.
        -11    1    4    4    0    0  0.33841320386E-01 -0.54696408410E-01  0.61227045601E-01  0.88802839439E-01  0.51100000000E-03 0. -1.
         11    1    4    4    0    0  0.42556521033E-02 -0.20752726712E-01  0.34343292584E-01  0.40354790389E-01  0.51100000000E-03 0.  1.
</event>
<event>
 8    1  0.1066842E+005  0.1043930E+01  0.7957747E-01            NaN
         13   -1    0    0    0    0  0.00000000000E+00  0.00000000000E+00  0.74505805969E-08  0.10566000000E+00  0.10566000000E+00 0.  1.
     999900   -1    0    0    0    0 -0.00000000000E+00 -0.00000000000E+00 -0.74505805969E-08  0.93827000000E+00  0.93827000000E+00 0.  1.
     999902    2    1    2    0    0  0.22665190578E-01  0.72815286306E-02  0.19979768845E-02  0.10200401814E+01  0.10197603876E+01 0.  0.
     999903    2    3    3    0    0 -0.12574123445E+00 -0.71717230318E-02  0.59271536000E-02  0.12748833306E+00  0.18864046896E-01 0.  0.
         14    1    1    2    0    0 -0.22665190578E-01 -0.72815286306E-02 -0.19979768845E-02  0.23889818642E-01  0.00000000000E+00 0.  1.
     999901    1    3    3    0    0  0.14840642502E+00  0.14453251662E-01 -0.39291767155E-02  0.89255184830E+00  0.88000000000E+00 0. -1.
        -11    1    4    4    0    0 -0.40879219290E-01 -0.11179426359E-01  0.12602934659E-02  0.42402117920E-01  0.51100000000E-03 0. -1.
         11    1    4    4    0    0 -0.84862015155E-01  0.40077033273E-02  0.46668601341E-02  0.85086215139E-01  0.51100000000E-03 0.  1.
</event>
<event>
 8    1  0.1066842E+005  0.1043930E+01  0.7957747E-01            NaN
         13   -1    0    0    0    0  0.00000000000E+00  0.00000000000E+00  0.74505805969E-08  0.10566000000E+00  0.10566000000E+00 0. -1.
     999900   -1    0    0    0    0 -0.00000000000E+00 -0.00000000000E+00 -0.74505805969E-08  0.93827000000E+00  0.93827000000E+00 0.  1.
     999902    2    1    2    0    0  0.88638167779E-02 -0.21298498133E-01 -0.43203191269E-02  0.10204596266E+01  0.10201896839E+01 0.  0.
     999903    2    3    3    0    0  0.10450301296E+00  0.56932161148E-01  0.49421240379E-01  0.13020401885E+00  0.18667534194E-01 0.  0.
         14    1    1    2    0    0 -0.88638167779E-02  0.21298498133E-01  0.43203191269E-02  0.23470373408E-01  0.00000000000E+00 0.  1.
     999901    1    3    3    0    0 -0.95639196184E-01 -0.78230659280E-01 -0.53741559506E-01  0.89025560774E+00  0.88000000000E+00 0.  1.
        -11    1    4    4    0    0  0.42779902428E-01  0.13667709378E-01  0.21806542852E-01  0.49927074454E-01  0.51100000000E-03 0.  1.
         11    1    4    4    0    0  0.61723110534E-01  0.43264451770E-01  0.27614697527E-01  0.80276944395E-01  0.51100000000E-03 0. -1.
</event>
<event>
 8    1  0.1066842E+005  0.1043930E+01  0.7957747E-01            NaN
         13   -1    0    0    0    0  0.00000000000E+00  0.00000000000E+00  0.74505805969E-08  0.10566000000E+00  0.10566000000E+00 0. -1.
     999900   -1    0    0    0    0 -0.00000000000E+00 -0.00000000000E+00 -0.74505805969E-08  0.93827000000E+00  0.93827000000E+00 0. -1.
     999902    2    1    2    0    0 -0.10940914370E-01 -0.52775704384E-03  0.21635555535E-01  0.10196796516E+01  0.10193912460E+01 0.  0.
     999903    2    3    3    0    0 -0.92257505238E-01 -0.37640001595E-01  0.85517218211E-01  0.13284788994E+00  0.20177964658E-01 0.  0.
         14    1    1    2    0    0  0.10940914370E-01  0.52775704384E-03 -0.21635555535E-01  0.24250348411E-01  0.00000000000E+00 0.  1.
     999901    1    3    3    0    0  0.81316590869E-01  0.37112244552E-01 -0.63881662676E-01  0.88683176165E+00  0.88000000000E+00 0. -1.
        -11    1    4    4    0    0 -0.63607832469E-01 -0.15720226749E-01  0.52906714799E-01  0.84216764793E-01  0.51100000000E-03 0. -1.
         11    1    4    4    0    0 -0.28649672769E-01 -0.21919774847E-01  0.32610503412E-01  0.48631125145E-01  0.51100000000E-03 0.  1.
</event>
<event>
 8    1  0.1066842E+005  0.1043930E+01  0.7957747E-01            NaN
         13   -1    0    0    0    0  0.00000000000E+00  0.00000000000E+00  0.74505805969E-08  0.10566000000E+00  0.10566000000E+00 0. -1.
     999900   -1    0    0    0    0 -0.00000000000E+00 -0.00000000000E+00 -0.74505805969E-08  0.93827000000E+00  0.93827000000E+00 0.  1.
     999902    2    1    2    0    0 -0.23640419699E-01 -0.16860859064E-02  0.16039721271E-02  0.10201753151E+01  0.10198987148E+01 0.  0.
     999903    2    3    3    0    0  0.64944549647E-01 -0.77972235553E-01 -0.76904128186E-01  0.12897926749E+00  0.20589863132E-01 0.  0.
         14    1    1    2    0    0  0.23640419699E-01  0.16860859064E-02 -0.16039721271E-02  0.23754684923E-01  0.00000000000E+00 0. -1.
     999901    1    3    3    0    0 -0.88584969346E-01  0.76286149646E-01  0.78508100314E-01  0.89119604759E+00  0.88000000000E+00 0. -1.
        -11    1    4    4    0    0  0.22474129663E-01 -0.21415433708E-01 -0.13010479586E-01  0.33663645154E-01  0.51100000000E-03 0. -1.
         11    1    4    4    0    0  0.42470419984E-01 -0.56556801845E-01 -0.63893648600E-01  0.95315622334E-01  0.51100000000E-03 0.  1.
</event>
<event>
 8    1  0.1066842E+005  0.1043930E+01  0.7957747E-01            NaN
         13   -1    0    0    0    0  0.00000000000E+00  0.00000000000E+00  0.74505805969E-08  0.10566000000E+00  0.10566000000E+00 0.  1.
     999900   -1    0    0    0    0 -0.00000000000E+00 -0.00000000000E+00 -0.74505805969E-08  0.93827000000E+00  0.93827000000E+00 0.  1.
     999902    2    1    2    0    0  0.21949442941E-01  0.18272487166E-03  0.44628846819E-02  0.10215306970E+01  0.10212850906E+01 0.  0.
     999903    2    3    3    0    0  0.42365150196E-01 -0.11827534580E+00 -0.36998902438E-01  0.13239167787E+00  0.19359086013E-01 0.  0.
         14    1    1    2    0    0 -0.21949442941E-01 -0.18272487166E-03 -0.44628846819E-02  0.22399302968E-01  0.00000000000E+00 0.  1.
     999901    1    3    3    0    0 -0.20415707256E-01  0.11845807067E+00  0.41461787120E-01  0.88913901916E+00  0.88000000000E+00 0.  1.
        -11    1    4    4    0    0  0.11436368079E-02 -0.22518185778E-01 -0.31012408044E-02  0.22765223728E-01  0.51100000000E-03 0.  1.
         11    1    4    4    0    0  0.41221513388E-01 -0.95757160023E-01 -0.33897661634E-01  0.10962645414E+00  0.51100000000E-03 0. -1.
</event>
<event>
 8    1  0.1066842E+005  0.1043930E+01  0.7957747E-01            NaN
         13   -1    0    0    0    0  0.00000000000E+00  0.00000000000E+00  0.74505805969E-08  0.10566000000E+00  0.10566000000E+00 0. -1.
     999900   -1    0    0    0    0 -0.00000000000E+00 -0.00000000000E+00 -0.74505805969E-08  0.93827000000E+00  0.93827000000E+00 0. -1.
     999902    2    1    2    0    0 -0.37181369709E-02  0.19839315427E-01  0.13051460861E-01  0.10198932862E+01  0.10196099998E+01 0.  0.
     999903    2    3    3    0    0  0.87007815212E-01 -0.74324578544E-01 -0.53096989325E-01  0.12777577445E+00  0.20318842916E-01 0.  0.
         14    1    1    2    0    0  0.37181369709E-02 -0.19839315427E-01 -0.13051460861E-01  0.24036713789E-01  0.00000000000E+00 0.  1.
     999901    1    3    3    0    0 -0.90725952183E-01  0.94163893970E-01  0.66148450187E-01  0.89211751176E+00  0.88000000000E+00 0.  1.
        -11    1    4    4    0    0  0.77635920533E-01 -0.57565577065E-01 -0.40426623980E-01  0.10476499829E+00  0.51100000000E-03 0. -1.
         11    1    4    4    0    0  0.93718946798E-02 -0.16759001479E-01 -0.12670365345E-01  0.23010776159E-01  0.51100000000E-03 0.  1.
</event>
<event>
 8    1  0.1066842E+005  0.1043930E+01  0.7957747E-01            NaN
         13   -1    0    0    0    0  0.00000000000E+00  0.00000000000E+00  0.74505805969E-08  0.10566000000E+00  0.10566000000E+00 0.  1.
     999900   -1    0    0    0    0 -0.00000000000E+00 -0.00000000000E+00 -0.74505805969E-08  0.93827000000E+00  0.93827000000E+00 0.  1.
     999902    2    1    2    0    0 -0.42895513208E-02  0.16574706426E-01  0.19955097154E-01  0.10176369012E+01  0.10172971717E+01 0.  0.
     999903    2    3    3    0    0 -0.52503528770E-01 -0.88464341628E-01 -0.69355402888E-01  0.12559757768E+00  0.19545314936E-01 0.  0.
         14    1    1    2    0    0  0.42895513208E-02 -0.16574706426E-01 -0.19955097154E-01  0.26293098830E-01  0.00000000000E+00 0. -1.
     999901    1    3    3    0    0  0.48213977449E-01  0.10503904805E+00  0.89310500042E-01  0.89203932349E+00  0.88000000000E+00 0. -1.
        -11    1    4    4    0    0 -0.18478387318E-01 -0.47128313146E-01 -0.27309348163E-01  0.57520346974E-01  0.51100000000E-03 0. -1.
         11    1    4    4    0    0 -0.34025141452E-01 -0.41336028482E-01 -0.42046054726E-01  0.68077230705E-01  0.51100000000E-03 0.  1.
</event>
<event>
 8    1  0.1066842E+005  0.1043930E+01  0.7957747E-01            NaN
         13   -1    0    0    0    0  0.00000000000E+00  0.00000000000E+00  0.74505805969E-08  0.10566000000E+00  0.10566000000E+00 0. -1.
     999900   -1    0    0    0    0 -0.00000000000E+00 -0.00000000000E+00 -0.74505805969E-08  0.93827000000E+00  0.93827000000E+00 0.  1.
     999902    2    1    2    0    0 -0.14581714550E-02 -0.14375087260E-01  0.17683120035E-01  0.10210944546E+01  0.10208390780E+01 0.  0.
     999903    2    3    3    0    0  0.53303157595E-01  0.70500205370E-02 -0.11573949280E+00  0.12909701517E+00  0.19480239587E-01 0.  0.
         14    1    1    2    0    0  0.14581714550E-02  0.14375087260E-01 -0.17683120035E-01  0.22835545360E-01  0.00000000000E+00 0.  1.
     999901    1    3    3    0    0 -0.54761329050E-01 -0.21425107797E-01  0.13342261283E+00  0.89199743947E+00  0.88000000000E+00 0. -1.
        -11    1    4    4    0    0  0.34375747155E-02  0.21940630192E-02 -0.25954828470E-01  0.26278224338E-01  0.51100000000E-03 0. -1.
         11    1    4    4    0    0  0.49865582880E-01  0.48559575178E-02 -0.89784664326E-01  0.10281879083E+00  0.51100000000E-03 0.  1.
</event>
<event>
 8    1  0.1066842E+005  0.1043930E+01  0.7957747E-01            NaN
         13   -1    0    0    0    0  0.00000000000E+00  0.00000000000E+00  0.74505805969E-08  0.10566000000E+00  0.10566000000E+00 0. -1.
     999900   -1    0    0    0    0 -0.00000000000E+00 -0.00000000000E+00 -0.74505805969E-08  0.93827000000E+00  0.93827000000E+00 0. -1.
     999902    2    1    2    0    0  0.15968111107E-01 -0.94753623436E-02 -0.15462321551E-01  0.10197670852E+01  0.10194807804E+01 0.  0.
     999903    2    3    3    0    0  0.49396696928E-01 -0.52029460427E-01  0.10649151890E+00  0.12971031127E+00  0.18363628006E-01 0.  0.
         14    1    1    2    0    0 -0.15968111107E-01  0.94753623436E-02  0.15462321551E-01  0.24162914800E-01  0.00000000000E+00 0. -1.
     999901    1    3    3    0    0 -0.33428585821E-01  0.42554098084E-01 -0.12195384045E+00  0.89005677393E+00  0.88000000000E+00 0. -1.
        -11    1    4    4    0    0  0.20943404033E-01 -0.23219257639E-01  0.62690137612E-01  0.70057651778E-01  0.51100000000E-03 0. -1.
         11    1    4    4    0    0  0.28453292895E-01 -0.28810202788E-01  0.43801381285E-01  0.59652659495E-01  0.51100000000E-03 0.  1.
</event>
<event>
 8    1  0.1116936E+005  0.1043930E+01  0.7957747E-01            NaN
         13   -1    0    0    0    0  0.00000000000E+00  0.00000000000E+00  0.74505805969E-08  0.10566000000E+00  0.10566000000E+00 0.  1.
     999900   -1    0    0    0    0 -0.00000000000E+00 -0.00000000000E+00 -0.74505805969E-08  0.93827000000E+00  0.93827000000E+00 0. -1.
     999902    2    1    2    0    0 -0.26757771228E-01  0.77921945472E-02  0.23787601943E-01  0.10072892219E+01  0.10066225856E+01 0.  0.
     999903    2    3    3    0    0 -0.11054531266E+00  0.31703624144E-01  0.38752598487E-01  0.12285942832E+00  0.19164793327E-01 0.  0.
         14    1    1    2    0    0  0.26757771228E-01 -0.77921945472E-02 -0.23787601943E-01  0.36640778146E-01  0.00000000000E+00 0. -1.
     999901    1    3    3    0    0  0.83787541432E-01 -0.23911429597E-01 -0.14964996545E-01  0.88442979353E+00  0.88000000000E+00 0.  1.
        -11    1    4    4    0    0 -0.44134759076E-01  0.11102734001E-01  0.25176629267E-01  0.52012223979E-01  0.51100000000E-03 0. -1.
         11    1    4    4    0    0 -0.66410553584E-01  0.20600890143E-01  0.13575969220E-01  0.70847204343E-01  0.51100000000E-03 0.  1.
</event>
<event>
 8    1  0.1066842E+005  0.1043930E+01  0.7957747E-01            NaN
         13   -1    0    0    0    0  0.00000000000E+00  0.00000000000E+00  0.74505805969E-08  0.10566000000E+00  0.10566000000E+00 0. -1.
     999900   -1    0    0    0    0 -0.00000000000E+00 -0.00000000000E+00 -0.74505805969E-08  0.93827000000E+00  0.93827000000E+00 0.  1.
     999902    2    1    2    0    0 -0.13617765022E-01 -0.19257868315E-01  0.24063356160E-02  0.10202213630E+01  0.10199458467E+01 0.  0.
     999903    2    3    3    0    0 -0.24683975975E-01  0.12016979455E+00 -0.32460895433E-01  0.12849368150E+00  0.20170232054E-01 0.  0.
         14    1    1    2    0    0  0.13617765022E-01  0.19257868315E-01 -0.24063356160E-02  0.23708636977E-01  0.00000000000E+00 0.  1.
     999901    1    3    3    0    0  0.11066210953E-01 -0.13942766286E+00  0.34867231049E-01  0.89172768152E+00  0.88000000000E+00 0. -1.
        -11    1    4    4    0    0 -0.19002983149E-01  0.54207018216E-01 -0.84319353438E-02  0.58059218451E-01  0.51100000000E-03 0.  1.
         11    1    4    4    0    0 -0.56809928264E-02  0.65962776331E-01 -0.24028960089E-01  0.70434463048E-01  0.51100000000E-03 0. -1.
</event>
<event>
 7    1  0.1066842E+005  0.1043930E+01  0.7957747E-01            NaN
         13   -1    0    0    0    0  0.00000000000E+00  0.00000000000E+00  0.74505805969E-08  0.10566000000E+00  0.10566000000E+00 0.  1.
     999900   -1    0    0    0    0 -0.00000000000E+00 -0.00000000000E+00 -0.74505805969E-08  0.93827000000E+00  0.93827000000E+00 0. -1.
     999903    2    1    2    0    0  0.68161433647E-01 -0.85791375603E-01  0.16901981486E-01  0.11260285385E+00  0.19687167217E-01 0.  0.
         14    1    1    2    0    0 -0.40389635993E-01  0.76643731260E-02 -0.23602559992E-01  0.47404073129E-01  0.00000000000E+00 0. -1.
     999901    1    1    2    0    0 -0.27771797654E-01  0.78127002477E-01  0.67005785065E-02  0.88392307302E+00  0.88000000000E+00 0.  1.
        -11    1    3    3    0    0  0.45262243378E-01 -0.69858651529E-01  0.15453784004E-01  0.84663938191E-01  0.51100000000E-03 0.  1.
         11    1    3    3    0    0  0.22899190269E-01 -0.15932724074E-01  0.14481974820E-02  0.27938915662E-01  0.51100000000E-03 0. -1.
</event>
<event>
 8    1  0.1066842E+005  0.1043930E+01  0.7957747E-01            NaN
         13   -1    0    0    0    0  0.00000000000E+00  0.00000000000E+00  0.74505805969E-08  0.10566000000E+00  0.10566000000E+00 0.  1.
     999900   -1    0    0    0    0 -0.00000000000E+00 -0.00000000000E+00 -0.74505805969E-08  0.93827000000E+00  0.93827000000E+00 0.  1.
     999902    2    1    2    0    0 -0.62093323155E-02  0.11942146998E-01  0.13242065373E-01  0.10250481839E+01  0.10248742637E+01 0.  0.
     999903    2    3    3    0    0  0.78446156498E-01  0.35322568421E-01 -0.99972514235E-01  0.13345930057E+00  0.20381314918E-01 0.  0.
         14    1    1    2    0    0  0.62093323155E-02 -0.11942146998E-01 -0.13242065373E-01  0.18881816069E-01  0.00000000000E+00 0.  1.
     999901    1    3    3    0    0 -0.84655488813E-01 -0.23380421423E-01  0.11321457961E+00  0.89158888336E+00  0.88000000000E+00 0. -1.
        -11    1    4    4    0    0  0.12579776914E-01  0.26350731645E-02 -0.26776801523E-01  0.29706104063E-01  0.51100000000E-03 0.  1.
         11    1    4    4    0    0  0.65866379584E-01  0.32687495257E-01 -0.73195712712E-01  0.10375319651E+00  0.51100000000E-03 0. -1.
</event>
<event>
 8    1  0.1066842E+005  0.1043930E+01  0.7957747E-01            NaN
         13   -1    0    0    0    0  0.00000000000E+00  0.00000000000E+00  0.74505805969E-08  0.10566000000E+00  0.10566000000E+00 0. -1.
     999900   -1    0    0    0    0 -0.00000000000E+00 -0.00000000000E+00 -0.74505805969E-08  0.93827000000E+00  0.93827000000E+00 0.  1.
     999902    2    1    2    0    0 -0.11039581433E-01  0.34103502177E-02  0.22315222015E-01  0.10188008938E+01  0.10184909372E+01 0.  0.
     999903    2    3    3    0    0 -0.78591958563E-01  0.41259908967E-01  0.96087400440E-01  0.13232571246E+00  0.19955691319E-01 0.  0.
         14    1    1    2    0    0  0.11039581433E-01 -0.34103502177E-02 -0.22315222015E-01  0.25129106239E-01  0.00000000000E+00 0.  1.
     999901    1    3    3    0    0  0.67552377130E-01 -0.37849558749E-01 -0.73772178425E-01  0.88647518130E+00  0.88000000000E+00 0. -1.
        -11    1    4    4    0    0 -0.13524349055E-01  0.22228512867E-02  0.73230466760E-02  0.15547900785E-01  0.51100000000E-03 0.  1.
         11    1    4    4    0    0 -0.65067609507E-01  0.39037057680E-01  0.88764353764E-01  0.11677781167E+00  0.51100000000E-03 0. -1.
</event>
<event>
 8    1  0.1066842E+005  0.1043930E+01  0.7957747E-01            NaN
         13   -1    0    0    0    0  0.00000000000E+00  0.00000000000E+00  0.74505805969E-08  0.10566000000E+00  0.10566000000E+00 0. -1.
     999900   -1    0    0    0    0 -0.00000000000E+00 -0.00000000000E+00 -0.74505805969E-08  0.93827000000E+00  0.93827000000E+00 0.  1.
     999902    2    1    2    0    0 -0.22133002256E-01 -0.31240286200E-02  0.71056158503E-02  0.10204753817E+01  0.10202058055E+01 0.  0.
     999903    2    3    3    0    0 -0.89800562229E-01 -0.89521097605E-01 -0.34392843502E-01  0.13268854109E+00  0.18579918185E-01 0.  0.
         14    1    1    2    0    0  0.22133002256E-01  0.31240286200E-02 -0.71056158503E-02  0.23454618315E-01  0.00000000000E+00 0. -1.
     999901    1    3    3    0    0  0.67667559973E-01  0.86397068985E-01  0.41498459352E-01  0.88778684059E+00  0.88000000000E+00 0. -1.
        -11    1    4    4    0    0 -0.14042375410E-01 -0.24833543464E-01 -0.78596124540E-02  0.29596077731E-01  0.51100000000E-03 0. -1.
         11    1    4    4    0    0 -0.75758186820E-01 -0.64687554141E-01 -0.26533231048E-01  0.10309246336E+00  0.51100000000E-03 0.  1.
</event>
<event>
 8    1  0.1066842E+005  0.1043930E+01  0.7957747E-01            NaN
         13   -1    0    0    0    0  0.00000000000E+00  0.00000000000E+00  0.74505805969E-08  0.10566000000E+00  0.10566000000E+00 0.  1.
     999900   -1    0    0    0    0 -0.00000000000E+00 -0.00000000000E+00 -0.74505805969E-08  0.93827000000E+00  0.93827000000E+00 0.  1.
     999902    2    1    2    0    0 -0.10925888080E-01  0.18818373730E-01  0.96009461788E-02  0.10201458795E+01  0.10198685852E+01 0.  0.
     999903    2    3    3    0    0  0.51576921194E-01  0.14885653000E-01 -0.11621542850E+00  0.12899391289E+00  0.15863236647E-01 0.  0.
         14    1    1    2    0    0  0.10925888080E-01 -0.18818373730E-01 -0.96009461788E-02  0.23784120495E-01  0.00000000000E+00 0.  1.
     999901    1    3    3    0    0 -0.62502809274E-01  0.39327207294E-02  0.12581637468E+00  0.89115196661E+00  0.88000000000E+00 0. -1.
        -11    1    4    4    0    0  0.17937869110E-01 -0.12350073202E-02 -0.47729299364E-01  0.51006269518E-01  0.51100000000E-03 0. -1.
         11    1    4    4    0    0  0.33639052084E-01  0.16120660320E-01 -0.68486129136E-01  0.77987643376E-01  0.51100000000E-03 0.  1.
</event>
<event>
 8    1  0.1066842E+005  0.1043930E+01  0.7957747E-01            NaN
         13   -1    0    0    0    0  0.00000000000E+00  0.00000000000E+00  0.74505805969E-08  0.10566000000E+00  0.10566000000E+00 0.  1.
     999900   -1    0    0    0    0 -0.00000000000E+00 -0.00000000000E+00 -0.74505805969E-08  0.93827000000E+00  0.93827000000E+00 0.  1.
     999902    2    1    2    0    0 -0.18183525626E-01  0.98650280438E-02 -0.89028492563E-02  0.10214084524E+01  0.10211601277E+01 0.  0.
     999903    2    3    3    0    0  0.68430280217E-01  0.10344888275E+00  0.37049347656E-01  0.13103128868E+00  0.20301966877E-01 0.  0.
         14    1    1    2    0    0  0.18183525626E-01 -0.98650280438E-02  0.89028492563E-02  0.22521547624E-01  0.00000000000E+00 0.  1.
     999901    1    3    3    0    0 -0.86613805843E-01 -0.93583854708E-01 -0.45952196912E-01  0.89037716369E+00  0.88000000000E+00 0.  1.
        -11    1    4    4    0    0  0.31633341804E-01  0.54062993433E-01  0.87370521776E-02  0.63246128533E-01  0.51100000000E-03 0. -1.
         11    1    4    4    0    0  0.36796938413E-01  0.49385889319E-01  0.28312295478E-01  0.67785160150E-01  0.51100000000E-03 0.  1.
</event>
<event>
 8    1  0.1066842E+005  0.1043930E+01  0.7957747E-01            NaN
         13   -1    0    0    0    0  0.00000000000E+00  0.00000000000E+00  0.74505805969E-08  0.10566000000E+00  0.10566000000E+00 0. -1.
     999900   -1    0    0    0    0 -0.00000000000E+00 -0.00000000000E+00 -0.74505805969E-08  0.93827000000E+00  0.93827000000E+00 0. -1.
     999902    2    1    2    0    0  0.12681355215E-01 -0.19703976651E-01  0.37740530160E-02  0.10201959118E+01  0.10199197966E+01 0.  0.
     999903    2    3    3    0    0  0.87621508372E-01  0.92470922227E-01  0.15481146508E-01  0.12983851698E+00  0.19747769679E-01 0.  0.
         14    1    1    2    0    0 -0.12681355215E-01  0.19703976651E-01 -0.37740530160E-02  0.23734088188E-01  0.00000000000E+00 0. -1.
     999901    1    3    3    0    0 -0.74940153157E-01 -0.11217489888E+00 -0.11707093492E-01  0.89035739483E+00  0.88000000000E+00 0. -1.
        -11    1    4    4    0    0  0.60753267315E-01  0.55306521216E-01  0.25922656573E-02  0.82199463141E-01  0.51100000000E-03 0. -1.
         11    1    4    4    0    0  0.26868241057E-01  0.37164401011E-01  0.12888880851E-01  0.47639053839E-01  0.51100000000E-03 0.  1.
</event>
<event>
 8    1  0.1066842E+005  0.1043930E+01  0.7957747E-01            NaN
         13   -1    0    0    0    0  0.00000000000E+00  0.00000000000E+00  0.74505805969E-08  0.10566000000E+00  0.10566000000E+00 0.  1.
     999900   -1    0    0    0    0 -0.00000000000E+00 -0.00000000000E+00 -0.74505805969E-08  0.93827000000E+00  0.93827000000E+00 0. -1.
     999902    2    1    2    0    0  0.81388355191E-03 -0.22118927658E-01 -0.54182688522E-02  0.10211425692E+01  0.10208882797E+01 0.  0.
     999903    2    3    3    0    0  0.11156136919E+00  0.59221931544E-02  0.65850198254E-01  0.13090074558E+00  0.17825406483E-01 0.  0.
         14    1    1    2    0    0 -0.81388355191E-03  0.22118927658E-01  0.54182688522E-02  0.22787430845E-01  0.00000000000E+00 0.  1.
     999901    1    3    3    0    0 -0.11074748564E+00 -0.28041120812E-01 -0.71268467106E-01  0.89024182357E+00  0.88000000000E+00 0. -1.
        -11    1    4    4    0    0  0.74831419476E-01  0.87554882921E-02  0.51976098077E-01  0.91532375738E-01  0.51100000000E-03 0.  1.
         11    1    4    4    0    0  0.36729949717E-01 -0.28332951376E-02  0.13874100178E-01  0.39368369845E-01  0.51100000000E-03 0. -1.
</event>
<event>
 8    1  0.1066842E+005  0.1043930E+01  0.7957747E-01            NaN
         13   -1    0    0    0    0  0.00000000000E+00  0.00000000000E+00  0.74505805969E-08  0.10566000000E+00  0.10566000000E+00 0.  1.
     999900   -1    0    0    0    0 -0.00000000000E+00 -0.00000000000E+00 -0.74505805969E-08  0.93827000000E+00  0.93827000000E+00 0.  1.
     999902    2    1    2    0    0  0.61637087619E-02  0.22188013681E-01 -0.53589497884E-02  0.10202864470E+01  0.10200124589E+01 0.  0.
     999903    2    3    3    0    0 -0.38804210300E-01 -0.12184950489E-01  0.12143081304E+00  0.12939966496E+00  0.18563167294E-01 0.  0.
         14    1    1    2    0    0 -0.61637087619E-02 -0.22188013681E-01  0.53589497884E-02  0.23643553025E-01  0.00000000000E+00 0.  1.
     999901    1    3    3    0    0  0.44967919062E-01  0.34372964171E-01 -0.12678976283E+00  0.89088678202E+00  0.88000000000E+00 0.  1.
        -11    1    4    4    0    0 -0.36818625159E-01 -0.91295156406E-02  0.88830188008E-01  0.96592042307E-01  0.51100000000E-03 0.  1.
         11    1    4    4    0    0 -0.19855851405E-02 -0.30554348486E-02  0.32600625035E-01  0.32807622653E-01  0.51100000000E-03 0. -1.
</event>
<event>
 8    1  0.1066842E+005  0.1043930E+01  0.7957747E-01            NaN
         13   -1    0    0    0    0  0.00000000000E+00  0.00000000000E+00  0.74505805969E-08  0.10566000000E+00  0.10566000000E+00 0.  1.
     999900   -1    0    0    0    0 -0.00000000000E+00 -0.00000000000E+00 -0.74505805969E-08  0.93827000000E+00  0.93827000000E+00 0. -1.
     999902    2    1    2    0    0  0.63259542353E-02 -0.17650259525E-01 -0.20785189957E-01  0.10159376175E+01  0.10155519037E+01 0.  0.
     999903    2    3    3    0    0  0.94956447460E-01 -0.35755639748E-01 -0.77809860147E-01  0.12946427769E+00  0.20283790924E-01 0.  0.
         14    1    1    2    0    0 -0.63259542353E-02  0.17650259525E-01  0.20785189957E-01  0.27992382533E-01  0.00000000000E+00 0.  1.
     999901    1    3    3    0    0 -0.88630493224E-01  0.18105380223E-01  0.57024670190E-01  0.88647333978E+00  0.88000000000E+00 0.  1.
        -11    1    4    4    0    0  0.74967928689E-01 -0.30465834544E-01 -0.71097440942E-01  0.10771937911E+00  0.51100000000E-03 0. -1.
         11    1    4    4    0    0  0.19988518771E-01 -0.52898052035E-02 -0.67124192047E-02  0.21744898581E-01  0.51100000000E-03 0.  1.
</event>
<event>
 8    1  0.1066842E+005  0.1043930E+01  0.7957747E-01            NaN
         13   -1    0    0    0    0  0.00000000000E+00  0.00000000000E+00  0.74505805969E-08  0.10566000000E+00  0.10566000000E+00 0. -1.
     999900   -1    0    0    0    0 -0.00000000000E+00 -0.00000000000E+00 -0.74505805969E-08  0.93827000000E+00  0.93827000000E+00 0. -1.
     999902    2    1    2    0    0  0.27188511530E-01  0.26056814502E-01 -0.61422986663E-02  0.10057737348E+01  0.10050497028E+01 0.  0.
     999903    2    3    3    0    0 -0.90918025719E-01 -0.16877814566E-01 -0.65078276041E-01  0.11489440181E+00  0.20361569932E-01 0.  0.
         14    1    1    2    0    0 -0.27188511530E-01 -0.26056814502E-01  0.61422986663E-02  0.38156265201E-01  0.00000000000E+00 0. -1.
     999901    1    3    3    0    0  0.11810653725E+00  0.42934629068E-01  0.58935977375E-01  0.89087933299E+00  0.88000000000E+00 0. -1.
        -11    1    4    4    0    0 -0.47434071969E-01 -0.65937501371E-02 -0.45661741164E-01  0.66171930995E-01  0.51100000000E-03 0. -1.
         11    1    4    4    0    0 -0.43483953750E-01 -0.10284064429E-01 -0.19416534877E-01  0.48722470817E-01  0.51100000000E-03 0.  1.
</event>
<event>
 8    1  0.1066842E+005  0.1043930E+01  0.7957747E-01            NaN
         13   -1    0    0    0    0  0.00000000000E+00  0.00000000000E+00  0.74505805969E-08  0.10566000000E+00  0.10566000000E+00 0. -1.
     999900   -1    0    0    0    0 -0.00000000000E+00 -0.00000000000E+00 -0.74505805969E-08  0.93827000000E+00  0.93827000000E+00 0. -1.
     999902    2    1    2    0    0  0.16794736727E-01  0.64754811868E-02 -0.19670763644E-01  0.10172666547E+01  0.10169171613E+01 0.  0.
     999903    2    3    3    0    0  0.73125205154E-01 -0.66084435597E-01 -0.83045767304E-01  0.13021848565E+00  0.18595867275E-01 0.  0.
         14    1    1    2    0    0 -0.16794736727E-01 -0.64754811868E-02  0.19670763644E-01  0.26663345264E-01  0.00000000000E+00 0. -1.
     999901    1    3    3    0    0 -0.56330468427E-01  0.72559916784E-01  0.63375003660E-01  0.88704816909E+00  0.88000000000E+00 0.  1.
        -11    1    4    4    0    0  0.18017800558E-01 -0.80370706541E-02 -0.21998998789E-01  0.29554233375E-01  0.51100000000E-03 0.  1.
         11    1    4    4    0    0  0.55107404597E-01 -0.58047364943E-01 -0.61046768515E-01  0.10066425227E+00  0.51100000000E-03 0. -1.
</event>
<event>
 8    1  0.1066842E+005  0.1043930E+01  0.7957747E-01            NaN
         13   -1    0    0    0    0  0.00000000000E+00  0.00000000000E+00  0.74505805969E-08  0.10566000000E+00  0.10566000000E+00 0. -1.
     999900   -1    0    0    0    0 -0.00000000000E+00 -0.00000000000E+00 -0.74505805969E-08  0.93827000000E+00  0.93827000000E+00 0.  1.
     999902    2    1    2    0    0  0.64562318009E-02  0.10749175817E-01 -0.19886931480E-01  0.10204200499E+01  0.10201491854E+01 0.  0.
     999903    2    3    3    0    0 -0.10035425027E+00 -0.78787160470E-01  0.26454499907E-04  0.12922883724E+00  0.20535322526E-01 0.  0.
         14    1    1    2    0    0 -0.64562318009E-02 -0.10749175817E-01  0.19886931480E-01  0.23509950095E-01  0.00000000000E+00 0. -1.
     999901    1    3    3    0    0  0.10681048207E+00  0.89536336287E-01 -0.19913385979E-01  0.89119121267E+00  0.88000000000E+00 0. -1.
        -11    1    4    4    0    0 -0.87188283819E-01 -0.59098547271E-01  0.28543974976E-02  0.10537003289E+00  0.51100000000E-03 0. -1.
         11    1    4    4    0    0 -0.13165966452E-01 -0.19688613199E-01 -0.28279429977E-02  0.23858804348E-01  0.51100000000E-03 0.  1.
</event>
<event>
 7    1  0.1066842E+005  0.1043930E+01  0.7957747E-01            NaN
         13   -1    0    0    0    0  0.00000000000E+00  0.00000000000E+00  0.74505805969E-08  0.10566000000E+00  0.10566000000E+00 0. -1.
     999900   -1    0    0    0    0 -0.00000000000E+00 -0.00000000000E+00 -0.74505805969E-08  0.93827000000E+00  0.93827000000E+00 0. -1.
     999903    2    1    2    0    0 -0.62786013094E-01  0.17130634098E-01  0.91401679226E-01  0.11383512969E+00  0.19199680217E-01 0.  0.
         14    1    1    2    0    0 -0.34778103876E-01 -0.11670042062E-01  0.12167990039E-01  0.38649273894E-01  0.00000000000E+00 0. -1.
     999901    1    1    2    0    0  0.97564116970E-01 -0.54605920366E-02 -0.10356966926E+00  0.89144559642E+00  0.88000000000E+00 0. -1.
        -11    1    3    3    0    0 -0.25347816033E-01  0.15881028009E-01  0.33970633950E-01  0.45265703576E-01  0.51100000000E-03 0.  1.
         11    1    3    3    0    0 -0.37438197062E-01  0.12496060894E-02  0.57431045275E-01  0.68569426110E-01  0.51100000000E-03 0. -1.
</event>
<event>
 8    1  0.1066842E+005  0.1043930E+01  0.7957747E-01            NaN
         13   -1    0    0    0    0  0.00000000000E+00  0.00000000000E+00  0.74505805969E-08  0.10566000000E+00  0.10566000000E+00 0. -1.
     999900   -1    0    0    0    0 -0.00000000000E+00 -0.00000000000E+00 -0.74505805969E-08  0.93827000000E+00  0.93827000000E+00 0. -1.
     999902    2    1    2    0    0  0.87651021301E-02  0.10264760273E-01  0.27183869234E-01  0.10135794635E+01  0.10131249547E+01 0.  0.
     999903    2    3    3    0    0 -0.11253613261E+00 -0.39984743701E-01 -0.19065655484E-01  0.12263725397E+00  0.20328206269E-01 0.  0.
         14    1    1    2    0    0 -0.87651021301E-02 -0.10264760273E-01 -0.27183869234E-01  0.30350536492E-01  0.00000000000E+00 0.  1.
     999901    1    3    3    0    0  0.12130123474E+00  0.50249503974E-01  0.46249524718E-01  0.89094220954E+00  0.88000000000E+00 0. -1.
        -11    1    4    4    0    0 -0.28241536974E-01 -0.19713328550E-01 -0.57250774883E-02  0.34917579619E-01  0.51100000000E-03 0. -1.
         11    1    4    4    0    0 -0.84294595638E-01 -0.20271415151E-01 -0.13340577996E-01  0.87719674351E-01  0.51100000000E-03 0.  1.
</event>
<event>
 8    1  0.1066842E+005  0.1043930E+01  0.7957747E-01            NaN
         13   -1    0    0    0    0  0.00000000000E+00  0.00000000000E+00  0.74505805969E-08  0.10566000000E+00  0.10566000000E+00 0.  1.
     999900   -1    0    0    0    0 -0.00000000000E+00 -0.00000000000E+00 -0.74505805969E-08  0.93827000000E+00  0.93827000000E+00 0. -1.
     999902    2    1    2    0    0  0.19400651938E-02 -0.22198294022E-01 -0.10197530601E-01  0.10194245365E+01  0.10191299563E+01 0.  0.
     999903    2    3    3    0    0 -0.83487708425E-01  0.93876101212E-01 -0.17649172897E-01  0.12766969537E+00  0.14322638511E-01 0.  0.
         14    1    1    2    0    0 -0.19400651938E-02  0.22198294022E-01  0.10197530601E-01  0.24505463489E-01  0.00000000000E+00 0.  1.
     999901    1    3    3    0    0  0.85427773619E-01 -0.11607439523E+00  0.74516422964E-02  0.89175484115E+00  0.88000000000E+00 0.  1.
        -11    1    4    4    0    0 -0.12614316311E-01  0.22753695637E-01 -0.28424949569E-02  0.26176182680E-01  0.51100000000E-03 0. -1.
         11    1    4    4    0    0 -0.70873392114E-01  0.71122405575E-01 -0.14806677941E-01  0.10149351268E+00  0.51100000000E-03 0.  1.
</event>
<event>
 8    1  0.1066842E+005  0.1043930E+01  0.7957747E-01            NaN
         13   -1    0    0    0    0  0.00000000000E+00  0.00000000000E+00  0.74505805969E-08  0.10566000000E+00  0.10566000000E+00 0. -1.
     999900   -1    0    0    0    0 -0.00000000000E+00 -0.00000000000E+00 -0.74505805969E-08  0.93827000000E+00  0.93827000000E+00 0. -1.
     999902    2    1    2    0    0  0.35607255255E-02  0.64172566588E-02 -0.21924071333E-01  0.10208102065E+01  0.10205483589E+01 0.  0.
     999903    2    3    3    0    0 -0.61902648211E-01 -0.94388871654E-01  0.59105563085E-01  0.12895083949E+00  0.19840727560E-01 0.  0.
         14    1    1    2    0    0 -0.35607255255E-02 -0.64172566588E-02  0.21924071333E-01  0.23119793535E-01  0.00000000000E+00 0. -1.
     999901    1    3    3    0    0  0.65463373736E-01  0.10080612831E+00 -0.81029634417E-01  0.89185936697E+00  0.88000000000E+00 0. -1.
        -11    1    4    4    0    0 -0.40911959506E-01 -0.76115020315E-01  0.48982495279E-01  0.99331921923E-01  0.51100000000E-03 0.  1.
         11    1    4    4    0    0 -0.20990688705E-01 -0.18273851339E-01  0.10123067806E-01  0.29618917568E-01  0.51100000000E-03 0. -1.
</event>
<event>
 8    1  0.1066842E+005  0.1043930E+01  0.7957747E-01            NaN
         13   -1    0    0    0    0  0.00000000000E+00  0.00000000000E+00  0.74505805969E-08  0.10566000000E+00  0.10566000000E+00 0.  1.
     999900   -1    0    0    0    0 -0.00000000000E+00 -0.00000000000E+00 -0.74505805969E-08  0.93827000000E+00  0.93827000000E+00 0.  1.
     999902    2    1    2    0    0 -0.10301580721E-01  0.20421364026E-01  0.25739169065E-02  0.10209130558E+01  0.10206535591E+01 0.  0.
     999903    2    3    3    0    0  0.67871983575E-01  0.10326260590E+00 -0.43107553992E-01  0.13239711651E+00  0.20024068482E-01 0.  0.
         14    1    1    2    0    0  0.10301580721E-01 -0.20421364026E-01 -0.25739169065E-02  0.23016944243E-01  0.00000000000E+00 0. -1.
     999901    1    3    3    0    0 -0.78173564296E-01 -0.82841241871E-01  0.45681470898E-01  0.88851593925E+00  0.88000000000E+00 0.  1.
        -11    1    4    4    0    0  0.64794206175E-01  0.87365812170E-01 -0.34880751869E-01  0.11422785239E+00  0.51100000000E-03 0. -1.
         11    1    4    4    0    0  0.30777773991E-02  0.15896793727E-01 -0.82268021227E-02  0.18169264120E-01  0.51100000000E-03 0.  1.
</event>
<event>
 8    1  0.1066842E+005  0.1043930E+01  0.7957747E-01            NaN
         13   -1    0    0    0    0  0.00000000000E+00  0.00000000000E+00  0.74505805969E-08  0.10566000000E+00  0.10566000000E+00 0.  1.
     999900   -1    0    0    0    0 -0.00000000000E+00 -0.00000000000E+00 -0.74505805969E-08  0.93827000000E+00  0.93827000000E+00 0.  1.
     999902    2    1    2    0    0 -0.99893869900E-02 -0.18763682693E-01 -0.12640123028E-01  0.10191987172E+01  0.10188986155E+01 0.  0.
     999903    2    3    3    0    0 -0.14340252170E-01  0.32339490053E-02 -0.12925288371E+00  0.13122272549E+00  0.17233527761E-01 0.  0.
         14    1    1    2    0    0  0.99893869900E-02  0.18763682693E-01  0.12640123028E-01  0.24731282838E-01  0.00000000000E+00 0.  1.
     999901    1    3    3    0    0  0.43508651804E-02 -0.21997631698E-01  0.11661276069E+00  0.88797599167E+00  0.88000000000E+00 0. -1.
        -11    1    4    4    0    0 -0.14685883019E-01 -0.40933256368E-02 -0.83285733243E-01  0.84671157767E-01  0.51100000000E-03 0.  1.
         11    1    4    4    0    0  0.34563084820E-03  0.73272746421E-02 -0.45967150470E-01  0.46551567725E-01  0.51100000000E-03 0. -1.
</event>
<event>
 8    1  0.1066842E+005  0.1043930E+01  0.7957747E-01            NaN
         13   -1    0    0    0    0  0.00000000000E+00  0.00000000000E+00  0.74505805969E-08  0.10566000000E+00  0.10566000000E+00 0.  1.
     999900   -1    0    0    0    0 -0.00000000000E+00 -0.00000000000E+00 -0.74505805969E-08  0.93827000000E+00  0.93827000000E+00 0. -1.
     999902    2    1    2    0    0  0.91929016498E-02 -0.23062146720E-02  0.21210197844E-01  0.10206985438E+01  0.10204341315E+01 0.  0.
     999903    2    3    3    0    0 -0.81882084203E-01  0.95525020907E-01  0.28693700240E-01  0.13057405442E+00  0.19913561229E-01 0.  0.
         14    1    1    2    0    0 -0.91929016498E-02  0.23062146720E-02 -0.21210197844E-01  0.23231456249E-01  0.00000000000E+00 0. -1.
     999901    1    3    3    0    0  0.91074985853E-01 -0.97831235579E-01 -0.74835023963E-02  0.89012448933E+00  0.88000000000E+00 0. -1.
        -11    1    4    4    0    0 -0.30791326115E-01  0.22825408226E-01  0.11953372752E-01  0.40152823883E-01  0.51100000000E-03 0.  1.
         11    1    4    4    0    0 -0.51090758088E-01  0.72699612681E-01  0.16740327488E-01  0.90421230535E-01  0.51100000000E-03 0. -1.
</event>
<event>
 8    1  0.1066842E+005  0.1043930E+01  0.7957747E-01            NaN
         13   -1    0    0    0    0  0.00000000000E+00  0.00000000000E+00  0.74505805969E-08  0.10566000000E+00  0.10566000000E+00 0.  1.
     999900   -1    0    0    0    0 -0.00000000000E+00 -0.00000000000E+00 -0.74505805969E-08  0.93827000000E+00  0.93827000000E+00 0.  1.
     999902    2    1    2    0    0 -0.84326407553E-02  0.17407873486E-02  0.22005582121E-01  0.10202998198E+01  0.10200261452E+01 0.  0.
     999903    2    3    3    0    0 -0.15584343044E-01 -0.12774857681E+00 -0.92357920688E-02  0.13024663841E+00  0.17785284337E-01 0.  0.
         14    1    1    2    0    0  0.84326407553E-02 -0.17407873486E-02 -0.22005582121E-01  0.23630180176E-01  0.00000000000E+00 0. -1.
     999901    1    3    3    0    0  0.71517022887E-02  0.12948936416E+00  0.31241374189E-01  0.89005318141E+00  0.88000000000E+00 0. -1.
        -11    1    4    4    0    0 -0.69011328077E-02 -0.17465740261E-01  0.26983099950E-02  0.18979455069E-01  0.51100000000E-03 0. -1.
         11    1    4    4    0    0 -0.86832102363E-02 -0.11028283655E+00 -0.11934102064E-01  0.11126718335E+00  0.51100000000E-03 0.  1.
</event>
<event>
 8    1  0.1066842E+005  0.1043930E+01  0.7957747E-01            NaN
         13   -1    0    0    0    0  0.00000000000E+00  0.00000000000E+00  0.74505805969E-08  0.10566000000E+00  0.10566000000E+00 0. -1.
     999900   -1    0    0    0    0 -0.00000000000E+00 -0.00000000000E+00 -0.74505805969E-08  0.93827000000E+00  0.93827000000E+00 0.  1.
     999902    2    1    2    0    0  0.48891965378E-03  0.14797491990E-01  0.14218524005E-01  0.10234026710E+01  0.10231967825E+01 0.  0.
     999903    2    3    3    0    0 -0.12135671525E+00  0.16131237810E-01  0.51654572774E-01  0.13421787840E+00  0.18936072004E-01 0.  0.
         14    1    1    2    0    0 -0.48891965378E-03 -0.14797491990E-01 -0.14218524005E-01  0.20527329016E-01  0.00000000000E+00 0.  1.
     999901    1    3    3    0    0  0.12184563490E+00 -0.13337458200E-02 -0.37436048768E-01  0.88918479259E+00  0.88000000000E+00 0. -1.
        -11    1    4    4    0    0 -0.75639812813E-01  0.59070494171E-02  0.40725419804E-01  0.86110948517E-01  0.51100000000E-03 0. -1.
         11    1    4    4    0    0 -0.45716902437E-01  0.10224188393E-01  0.10929152970E-01  0.48106929879E-01  0.51100000000E-03 0.  1.
</event>
<event>
 8    1  0.1066842E+005  0.1043930E+01  0.7957747E-01            NaN
         13   -1    0    0    0    0  0.00000000000E+00  0.00000000000E+00  0.74505805969E-08  0.10566000000E+00  0.10566000000E+00 0.  1.
     999900   -1    0    0    0    0 -0.00000000000E+00 -0.00000000000E+00 -0.74505805969E-08  0.93827000000E+00  0.93827000000E+00 0. -1.
     999902    2    1    2    0    0  0.22629191144E-01  0.13778762219E-01  0.66030584422E-04  0.10174358697E+01  0.10170908563E+01 0.  0.
     999903    2    3    3    0    0 -0.44635559412E-01  0.46841209656E-01  0.10823712795E+00  0.12765013235E+00  0.19820401995E-01 0.  0.
         14    1    1    2    0    0 -0.22629191144E-01 -0.13778762219E-01 -0.66030584422E-04  0.26494130296E-01  0.00000000000E+00 0.  1.
     999901    1    3    3    0    0  0.67264750557E-01 -0.33062447437E-01 -0.10817109737E+00  0.88978573736E+00  0.88000000000E+00 0.  1.
        -11    1    4    4    0    0 -0.10133072772E-01  0.16310602921E-01  0.48815550835E-01  0.52458879666E-01  0.51100000000E-03 0. -1.
         11    1    4    4    0    0 -0.34502486640E-01  0.30530606734E-01  0.59421577115E-01  0.75191252681E-01  0.51100000000E-03 0.  1.
</event>
<event>
 7    1  0.1066842E+005  0.1043930E+01  0.7957747E-01            NaN
         13   -1    0    0    0    0  0.00000000000E+00  0.00000000000E+00  0.74505805969E-08  0.10566000000E+00  0.10566000000E+00 0.  1.
     999900   -1    0    0    0    0 -0.00000000000E+00 -0.00000000000E+00 -0.74505805969E-08  0.93827000000E+00  0.93827000000E+00 0. -1.
     999903    2    1    2    0    0  0.69512400514E-01  0.84819086244E-01 -0.21454476015E-01  0.11263291612E+00  0.14128978611E-01 0.  0.
         14    1    1    2    0    0 -0.41547571571E-01 -0.24793438934E-01  0.51743439272E-02  0.48658906201E-01  0.00000000000E+00 0. -1.
     999901    1    1    2    0    0 -0.27964828943E-01 -0.60025647310E-01  0.16280132088E-01  0.88263817768E+00  0.88000000000E+00 0. -1.
        -11    1    3    3    0    0  0.64373435199E-02  0.15698849615E-01 -0.25185526829E-02  0.17160929446E-01  0.51100000000E-03 0. -1.
         11    1    3    3    0    0  0.63075056994E-01  0.69120236629E-01 -0.18935923332E-01  0.95471986676E-01  0.51100000000E-03 0.  1.
</event>
<event>
 8    1  0.1066842E+005  0.1043930E+01  0.7957747E-01            NaN
         13   -1    0    0    0    0  0.00000000000E+00  0.00000000000E+00  0.74505805969E-08  0.10566000000E+00  0.10566000000E+00 0.  1.
     999900   -1    0    0    0    0 -0.00000000000E+00 -0.00000000000E+00 -0.74505805969E-08  0.93827000000E+00  0.93827000000E+00 0.  1.
     999902    2    1    2    0    0  0.10235959405E-01 -0.87972955317E-02  0.18866968400E-01  0.10207323758E+01  0.10204687419E+01 0.  0.
     999903    2    3    3    0    0  0.52812088519E-01 -0.38064568510E-01  0.11509748312E+00  0.13398009243E+00  0.21568645663E-01 0.  0.
         14    1    1    2    0    0 -0.10235959405E-01  0.87972955317E-02 -0.18866968400E-01  0.23197624237E-01  0.00000000000E+00 0. -1.
     999901    1    3    3    0    0 -0.42576129114E-01  0.29267272978E-01 -0.96230514724E-01  0.88675228334E+00  0.88000000000E+00 0.  1.
        -11    1    4    4    0    0  0.13545348421E-01 -0.62598938274E-02  0.46091012673E-01  0.48448996943E-01  0.51100000000E-03 0. -1.
         11    1    4    4    0    0  0.39266740098E-01 -0.31804674683E-01  0.69006470451E-01  0.85531095485E-01  0.51100000000E-03 0.  1.
</event>
<event>
 8    1  0.1066842E+005  0.1043930E+01  0.7957747E-01            NaN
         13   -1    0    0    0    0  0.00000000000E+00  0.00000000000E+00  0.74505805969E-08  0.10566000000E+00  0.10566000000E+00 0. -1.
     999900   -1    0    0    0    0 -0.00000000000E+00 -0.00000000000E+00 -0.74505805969E-08  0.93827000000E+00  0.93827000000E+00 0.  1.
     999902    2    1    2    0    0 -0.22984827840E-01 -0.44520966946E-02  0.17179307150E-02  0.10204550184E+01  0.10201849684E+01 0.  0.
     999903    2    3    3    0    0 -0.10317626790E+00 -0.71823115876E-01 -0.39419548540E-01  0.13328997541E+00  0.20209267802E-01 0.  0.
         14    1    1    2    0    0  0.22984827840E-01  0.44520966946E-02 -0.17179307150E-02  0.23474981613E-01  0.00000000000E+00 0.  1.
     999901    1    3    3    0    0  0.80191440061E-01  0.67371019182E-01  0.41137479255E-01  0.88716504298E+00  0.88000000000E+00 0.  1.
        -11    1    4    4    0    0 -0.15565727583E-01 -0.19022284662E-01 -0.32870532560E-02  0.24803326976E-01  0.51100000000E-03 0. -1.
         11    1    4    4    0    0 -0.87610540317E-01 -0.52800831214E-01 -0.36132495284E-01  0.10848664843E+00  0.51100000000E-03 0.  1.
</event>
<event>
 8    1  0.1066842E+005  0.1043930E+01  0.7957747E-01            NaN
         13   -1    0    0    0    0  0.00000000000E+00  0.00000000000E+00  0.74505805969E-08  0.10566000000E+00  0.10566000000E+00 0.  1.
     999900   -1    0    0    0    0 -0.00000000000E+00 -0.00000000000E+00 -0.74505805969E-08  0.93827000000E+00  0.93827000000E+00 0.  1.
     999902    2    1    2    0    0 -0.15416884087E-02 -0.22126368105E-01  0.71173105889E-02  0.10206360291E+01  0.10203701754E+01 0.  0.
     999903    2    3    3    0    0 -0.43409157351E-01 -0.78580306896E-01  0.97816481824E-01  0.13318672251E+00  0.10555537103E-01 0.  0.
         14    1    1    2    0    0  0.15416884087E-02  0.22126368105E-01 -0.71173105889E-02  0.23293970866E-01  0.00000000000E+00 0. -1.
     999901    1    3    3    0    0  0.41867468943E-01  0.56453938790E-01 -0.90699171235E-01  0.88744930662E+00  0.88000000000E+00 0.  1.
        -11    1    4    4    0    0 -0.39440829697E-01 -0.71017363776E-01  0.92524476106E-01  0.12312629615E+00  0.51100000000E-03 0.  1.
         11    1    4    4    0    0 -0.39683276544E-02 -0.75629431195E-02  0.52920057172E-02  0.10060426358E-01  0.51100000000E-03 0. -1.
</event>
<event>
 8    1  0.1066842E+005  0.1043930E+01  0.7957747E-01            NaN
         13   -1    0    0    0    0  0.00000000000E+00  0.00000000000E+00  0.74505805969E-08  0.10566000000E+00  0.10566000000E+00 0.  1.
     999900   -1    0    0    0    0 -0.00000000000E+00 -0.00000000000E+00 -0.74505805969E-08  0.93827000000E+00  0.93827000000E+00 0. -1.
     999902    2    1    2    0    0 -0.38548899885E-02  0.22853084534E-01  0.61907651517E-02  0.10199414773E+01  0.10196593391E+01 0.  0.
     999903    2    3    3    0    0 -0.12749401894E+00  0.20316739448E-01  0.14294433923E-01  0.13125776711E+00  0.18888510226E-01 0.  0.
         14    1    1    2    0    0  0.38548899885E-02 -0.22853084534E-01 -0.61907651517E-02  0.23988522729E-01  0.00000000000E+00 0. -1.
     999901    1    3    3    0    0  0.12363912895E+00  0.25363450867E-02 -0.81036687709E-02  0.88868371016E+00  0.88000000000E+00 0. -1.
        -11    1    4    4    0    0 -0.76423052809E-01  0.41600182175E-02  0.35330782941E-02  0.76619400386E-01  0.51100000000E-03 0. -1.
         11    1    4    4    0    0 -0.51070966132E-01  0.16156721230E-01  0.10761355629E-01  0.54638366726E-01  0.51100000000E-03 0.  1.
</event>
<event>
 8    1  0.1066842E+005  0.1043930E+01  0.7957747E-01            NaN
         13   -1    0    0    0    0  0.00000000000E+00  0.00000000000E+00  0.74505805969E-08  0.10566000000E+00  0.10566000000E+00 0. -1.
     999900   -1    0    0    0    0 -0.00000000000E+00 -0.00000000000E+00 -0.74505805969E-08  0.93827000000E+00  0.93827000000E+00 0. -1.
     999902    2    1    2    0    0  0.19113535076E-01  0.91059953571E-02  0.87168601750E-02  0.10210339299E+01  0.10207771823E+01 0.  0.
     999903    2    3    3    0    0 -0.10072679199E+00 -0.64491190962E-01  0.44406701300E-01  0.12915276373E+00  0.20086834539E-01 0.  0.
         14    1    1    2    0    0 -0.19113535076E-01 -0.91059953571E-02 -0.87168601750E-02  0.22896070096E-01  0.00000000000E+00 0. -1.
     999901    1    3    3    0    0  0.11984032706E+00  0.73597186319E-01 -0.35689841125E-01  0.89188116618E+00  0.88000000000E+00 0.  1.
        -11    1    4    4    0    0 -0.23115865610E-01 -0.15870695512E-01  0.16866164410E-02  0.28094982024E-01  0.51100000000E-03 0.  1.
         11    1    4    4    0    0 -0.77610926377E-01 -0.48620495450E-01  0.42720084859E-01  0.10105778170E+00  0.51100000000E-03 0. -1.
</event>
<event>
 8    1  0.1066842E+005  0.1043930E+01  0.7957747E-01            NaN
         13   -1    0    0    0    0  0.00000000000E+00  0.00000000000E+00  0.74505805969E-08  0.10566000000E+00  0.10566000000E+00 0. -1.
     999900   -1    0    0    0    0 -0.00000000000E+00 -0.00000000000E+00 -0.74505805969E-08  0.93827000000E+00  0.93827000000E+00 0. -1.
     999902    2    1    2    0    0  0.87965439155E-02 -0.11968275212E-03  0.21798037842E-01  0.10204236612E+01  0.10201528809E+01 0.  0.
     999903    2    3    3    0    0 -0.34030840169E-01  0.29577121436E-01 -0.11791581628E+00  0.12787895868E+00  0.20395689496E-01 0.  0.
         14    1    1    2    0    0 -0.87965439155E-02  0.11968275212E-03 -0.21798037842E-01  0.23506338775E-01  0.00000000000E+00 0.  1.
     999901    1    3    3    0    0  0.42827384085E-01 -0.29696804188E-01  0.13971385412E+00  0.89254470254E+00  0.88000000000E+00 0.  1.
        -11    1    4    4    0    0 -0.15516130458E-01  0.11665100163E-02 -0.36440049487E-01  0.39626372249E-01  0.51100000000E-03 0. -1.
         11    1    4    4    0    0 -0.18514709712E-01  0.28410611420E-01 -0.81475766790E-01  0.88252586432E-01  0.51100000000E-03 0.  1.
</event>
<event>
 8    1  0.1066842E+005  0.1043930E+01  0.7957747E-01            NaN
         13   -1    0    0    0    0  0.00000000000E+00  0.00000000000E+00  0.74505805969E-08  0.10566000000E+00  0.10566000000E+00 0.  1.
     999900   -1    0    0    0    0 -0.00000000000E+00 -0.00000000000E+00 -0.74505805969E-08  0.93827000000E+00  0.93827000000E+00 0. -1.
     999902    2    1    2    0    0  0.21292425902E-01 -0.88386773542E-03  0.54375135347E-02  0.10219364742E+01  0.10216997808E+01 0.  0.
     999903    2    3    3    0    0 -0.10513342870E+00  0.19583945229E-01  0.72278297003E-01  0.13015728719E+00  0.16739129320E-01 0.  0.
         14    1    1    2    0    0 -0.21292425902E-01  0.88386773542E-03 -0.54375135347E-02  0.21993525784E-01  0.00000000000E+00 0. -1.
     999901    1    3    3    0    0  0.12642585460E+00 -0.20467812965E-01 -0.66840783468E-01  0.89177918703E+00  0.88000000000E+00 0. -1.
        -11    1    4    4    0    0 -0.34734624081E-01  0.77677379850E-02  0.14977003001E-01  0.38618694998E-01  0.51100000000E-03 0. -1.
         11    1    4    4    0    0 -0.70398804617E-01  0.11816207244E-01  0.57301294002E-01  0.91538592192E-01  0.51100000000E-03 0.  1.
</event>
<event>
 8    1  0.1066842E+005  0.1043930E+01  0.7957747E-01            NaN
         13   -1    0    0    0    0  0.00000000000E+00  0.00000000000E+00  0.74505805969E-08  0.10566000000E+00  0.10566000000E+00 0.  1.
     999900   -1    0    0    0    0 -0.00000000000E+00 -0.00000000000E+00 -0.74505805969E-08  0.93827000000E+00  0.93827000000E+00 0. -1.
     999902    2    1    2    0    0  0.10030361573E-01  0.10854336214E-01  0.20639631190E-01  0.10185445880E+01  0.10182281957E+01 0.  0.
     999903    2    3    3    0    0 -0.55281113135E-01  0.22629803212E-01  0.11485949779E+00  0.13103028746E+00  0.20202042912E-01 0.  0.
         14    1    1    2    0    0 -0.10030361573E-01 -0.10854336214E-01 -0.20639631190E-01  0.25385412023E-01  0.00000000000E+00 0. -1.
     999901    1    3    3    0    0  0.65311474708E-01 -0.11775466999E-01 -0.94219866599E-01  0.88751430051E+00  0.88000000000E+00 0. -1.
        -11    1    4    4    0    0 -0.36437174580E-01  0.41818087365E-02  0.66348150338E-01  0.75812224541E-01  0.51100000000E-03 0. -1.
         11    1    4    4    0    0 -0.18843938555E-01  0.18447994476E-01  0.48511347452E-01  0.55218062923E-01  0.51100000000E-03 0.  1.
</event>
<event>
 8    1  0.1066842E+005  0.1043930E+01  0.7957747E-01            NaN
         13   -1    0    0    0    0  0.00000000000E+00  0.00000000000E+00  0.74505805969E-08  0.10566000000E+00  0.10566000000E+00 0.  1.
     999900   -1    0    0    0    0 -0.00000000000E+00 -0.00000000000E+00 -0.74505805969E-08  0.93827000000E+00  0.93827000000E+00 0.  1.
     999902    2    1    2    0    0  0.94670433902E-02  0.15018947950E-01  0.16136434514E-01  0.10199387885E+01  0.10196565864E+01 0.  0.
     999903    2    3    3    0    0  0.43162599097E-02  0.65692791284E-01 -0.10815407337E+00  0.12974639400E+00  0.28331082596E-01 0.  0.
         14    1    1    2    0    0 -0.94670433902E-02 -0.15018947950E-01 -0.16136434514E-01  0.23991211451E-01  0.00000000000E+00 0. -1.
     999901    1    3    3    0    0  0.51507834805E-02 -0.50673843334E-01  0.12429050789E+00  0.89019239455E+00  0.88000000000E+00 0. -1.
        -11    1    4    4    0    0 -0.36056911661E-02  0.23621395400E-01 -0.17926421793E-01  0.29876228824E-01  0.51100000000E-03 0. -1.
         11    1    4    4    0    0  0.79219510758E-02  0.42071395884E-01 -0.90227651582E-01  0.99870165172E-01  0.51100000000E-03 0.  1.
</event>
<event>
 8    1  0.1066842E+005  0.1043930E+01  0.7957747E-01            NaN
         13   -1    0    0    0    0  0.00000000000E+00  0.00000000000E+00  0.74505805969E-08  0.10566000000E+00  0.10566000000E+00 0. -1.
     999900   -1    0    0    0    0 -0.00000000000E+00 -0.00000000000E+00 -0.74505805969E-08  0.93827000000E+00  0.93827000000E+00 0. -1.
     999902    2    1    2    0    0  0.31240097503E-02 -0.10067024555E-01 -0.19836136056E-01  0.10214672149E+01  0.10212201988E+01 0.  0.
     999903    2    3    3    0    0 -0.12613209249E+00  0.15165069588E-01  0.23055265227E-01  0.13063419417E+00  0.19861101168E-01 0.  0.
         14    1    1    2    0    0 -0.31240097503E-02  0.10067024555E-01  0.19836136056E-01  0.22462785088E-01  0.00000000000E+00 0. -1.
     999901    1    3    3    0    0  0.12925610224E+00 -0.25232094143E-01 -0.42891401283E-01  0.89083302074E+00  0.88000000000E+00 0. -1.
        -11    1    4    4    0    0 -0.77339854690E-01  0.58443068573E-03  0.94321408806E-02  0.77916757410E-01  0.51100000000E-03 0. -1.
         11    1    4    4    0    0 -0.48792237801E-01  0.14580638902E-01  0.13623124347E-01  0.52717436759E-01  0.51100000000E-03 0.  1.
</event>
<event>
 8    1  0.1066842E+005  0.1043930E+01  0.7957747E-01            NaN
         13   -1    0    0    0    0  0.00000000000E+00  0.00000000000E+00  0.74505805969E-08  0.10566000000E+00  0.10566000000E+00 0. -1.
     999900   -1    0    0    0    0 -0.00000000000E+00 -0.00000000000E+00 -0.74505805969E-08  0.93827000000E+00  0.93827000000E+00 0.  1.
     999902    2    1    2    0    0  0.16631841598E-01 -0.17063601261E-01  0.13771759613E-02  0.10200620035E+01  0.10197827267E+01 0.  0.
     999903    2    3    3    0    0 -0.35907830851E-01  0.82350013955E-01 -0.89383144825E-01  0.12827676036E+00  0.19866644260E-01 0.  0.
         14    1    1    2    0    0 -0.16631841598E-01  0.17063601261E-01 -0.13771759613E-02  0.23867996492E-01  0.00000000000E+00 0.  1.
     999901    1    3    3    0    0  0.52539672449E-01 -0.99413615216E-01  0.90760320786E-01  0.89178524315E+00  0.88000000000E+00 0. -1.
        -11    1    4    4    0    0 -0.80532272337E-03  0.21287264490E-01 -0.25009702216E-01  0.32856392074E-01  0.51100000000E-03 0. -1.
         11    1    4    4    0    0 -0.35102508128E-01  0.61062749465E-01 -0.64373442609E-01  0.95420368284E-01  0.51100000000E-03 0.  1.
</event>
<event>
 8    1  0.1066842E+005  0.1043930E+01  0.7957747E-01            NaN
         13   -1    0    0    0    0  0.00000000000E+00  0.00000000000E+00  0.74505805969E-08  0.10566000000E+00  0.10566000000E+00 0. -1.
     999900   -1    0    0    0    0 -0.00000000000E+00 -0.00000000000E+00 -0.74505805969E-08  0.93827000000E+00  0.93827000000E+00 0.  1.
     999902    2    1    2    0    0 -0.13533576924E-01  0.13129070287E-01  0.13974317246E-01  0.10204606214E+01  0.10201907018E+01 0.  0.
     999903    2    3    3    0    0  0.41185324132E-01 -0.11443328144E+00 -0.35918115464E-01  0.12818512212E+00  0.18711164860E-01 0.  0.
         14    1    1    2    0    0  0.13533576924E-01 -0.13129070287E-01 -0.13974317246E-01  0.23469378633E-01  0.00000000000E+00 0. -1.
     999901    1    3    3    0    0 -0.54718901056E-01  0.12756235173E+00  0.49892432709E-01  0.89227549924E+00  0.88000000000E+00 0.  1.
        -11    1    4    4    0    0  0.30075828450E-01 -0.65281951979E-01 -0.28158167399E-01  0.77197358915E-01  0.51100000000E-03 0. -1.
         11    1    4    4    0    0  0.11109495682E-01 -0.49151329459E-01 -0.77599480645E-02  0.50987763207E-01  0.51100000000E-03 0.  1.
</event>
<event>
 8    1  0.1066842E+005  0.1043930E+01  0.7957747E-01            NaN
         13   -1    0    0    0    0  0.00000000000E+00  0.00000000000E+00  0.74505805969E-08  0.10566000000E+00  0.10566000000E+00 0. -1.
     999900   -1    0    0    0    0 -0.00000000000E+00 -0.00000000000E+00 -0.74505805969E-08  0.93827000000E+00  0.93827000000E+00 0.  1.
     999902    2    1    2    0    0 -0.19102716249E-01 -0.98482179438E-03 -0.74331928010E-02  0.10234084017E+01  0.10232026293E+01 0.  0.
     999903    2    3    3    0    0 -0.84481819693E-01  0.54478326533E-01  0.85812963755E-01  0.13433841923E+00  0.24039139194E-01 0.  0.
         14    1    1    2    0    0  0.19102716249E-01  0.98482179438E-03  0.74331928010E-02  0.20521598312E-01  0.00000000000E+00 0. -1.
     999901    1    3    3    0    0  0.65379103444E-01 -0.55463148327E-01 -0.93246156556E-01  0.88906998245E+00  0.88000000000E+00 0.  1.
        -11    1    4    4    0    0 -0.24156118351E-01  0.28968409807E-01  0.34716744108E-01  0.51265975686E-01  0.51100000000E-03 0. -1.
         11    1    4    4    0    0 -0.60325701342E-01  0.25509916726E-01  0.51096219646E-01  0.83072443547E-01  0.51100000000E-03 0.  1.
</event>
<event>
 8    1  0.1066842E+005  0.1043930E+01  0.7957747E-01            NaN
         13   -1    0    0    0    0  0.00000000000E+00  0.00000000000E+00  0.74505805969E-08  0.10566000000E+00  0.10566000000E+00 0. -1.
     999900   -1    0    0    0    0 -0.00000000000E+00 -0.00000000000E+00 -0.74505805969E-08  0.93827000000E+00  0.93827000000E+00 0.  1.
     999902    2    1    2    0    0  0.18648917438E-01  0.80738532055E-02  0.11336273793E-01  0.10206602701E+01  0.10203949758E+01 0.  0.
     999903    2    3    3    0    0  0.12639817662E+00  0.13062610562E-01 -0.33701555710E-01  0.13293103397E+00  0.19690964577E-01 0.  0.
         14    1    1    2    0    0 -0.18648917438E-01 -0.80738532055E-02 -0.11336273793E-01  0.23269729924E-01  0.00000000000E+00 0. -1.
     999901    1    3    3    0    0 -0.10774925919E+00 -0.49887573569E-02  0.45037829503E-01  0.88772923611E+00  0.88000000000E+00 0. -1.
        -11    1    4    4    0    0  0.99643741413E-01  0.42395897287E-02 -0.31835630501E-01  0.10469296927E+00  0.51100000000E-03 0. -1.
         11    1    4    4    0    0  0.26754435211E-01  0.88230208336E-02 -0.18659252088E-02  0.28238064699E-01  0.51100000000E-03 0.  1.
</event>
<event>
 8    1  0.1066842E+005  0.1043930E+01  0.7957747E-01            NaN
         13   -1    0    0    0    0  0.00000000000E+00  0.00000000000E+00  0.74505805969E-08  0.10566000000E+00  0.10566000000E+00 0. -1.
     999900   -1    0    0    0    0 -0.00000000000E+00 -0.00000000000E+00 -0.74505805969E-08  0.93827000000E+00  0.93827000000E+00 0. -1.
     999902    2    1    2    0    0  0.21385500039E-01 -0.58192980931E-02  0.56916142654E-02  0.10210477292E+01  0.10207912946E+01 0.  0.
     999903    2    3    3    0    0 -0.15526185860E-01 -0.21883557221E-01  0.12731360720E+00  0.13177137054E+00  0.20856341729E-01 0.  0.
         14    1    1    2    0    0 -0.21385500039E-01  0.58192980931E-02 -0.56916142654E-02  0.22882270760E-01  0.00000000000E+00 0.  1.
     999901    1    3    3    0    0  0.36911685898E-01  0.16064259128E-01 -0.12162199294E+00  0.88927635870E+00  0.88000000000E+00 0.  1.
        -11    1    4    4    0    0  0.50308771582E-02 -0.46971479267E-02  0.33573197951E-01  0.34275263169E-01  0.51100000000E-03 0. -1.
         11    1    4    4    0    0 -0.20557063018E-01 -0.17186409295E-01  0.93740409254E-01  0.97496107370E-01  0.51100000000E-03 0.  1.
</event>
<event>
 8    1  0.1066842E+005  0.1043930E+01  0.7957747E-01            NaN
         13   -1    0    0    0    0  0.00000000000E+00  0.00000000000E+00  0.74505805969E-08  0.10566000000E+00  0.10566000000E+00 0. -1.
     999900   -1    0    0    0    0 -0.00000000000E+00 -0.00000000000E+00 -0.74505805969E-08  0.93827000000E+00  0.93827000000E+00 0. -1.
     999902    2    1    2    0    0  0.18878292854E-01 -0.14162650144E-01  0.41162584218E-02  0.10199734939E+01  0.10196921173E+01 0.  0.
     999903    2    3    3    0    0 -0.38571702384E-01  0.36284060322E-01  0.11646918991E+00  0.12954182683E+00  0.20290476625E-01 0.  0.
         14    1    1    2    0    0 -0.18878292854E-01  0.14162650144E-01 -0.41162584218E-02  0.23956506080E-01  0.00000000000E+00 0. -1.
     999901    1    3    3    0    0  0.57449995238E-01 -0.50446710465E-01 -0.11235293149E+00  0.89043166709E+00  0.88000000000E+00 0. -1.
        -11    1    4    4    0    0 -0.12586245805E-01  0.25540119079E-01  0.54588789991E-01  0.61570353090E-01  0.51100000000E-03 0. -1.
         11    1    4    4    0    0 -0.25985456579E-01  0.10743941243E-01  0.61880399916E-01  0.67971473736E-01  0.51100000000E-03 0.  1.
</event>
<event>
 8    1  0.1066842E+005  0.1043930E+01  0.7957747E-01            NaN
         13   -1    0    0    0    0  0.00000000000E+00  0.00000000000E+00  0.74505805969E-08  0.10566000000E+00  0.10566000000E+00 0.  1.
     999900   -1    0    0    0    0 -0.00000000000E+00 -0.00000000000E+00 -0.74505805969E-08  0.93827000000E+00  0.93827000000E+00 0.  1.
     999902    2    1    2    0    0 -0.51061828643E-02 -0.14339855605E-01  0.18060184427E-01  0.10203106261E+01  0.10200372047E+01 0.  0.
     999903    2    3    3    0    0 -0.11289053850E+00 -0.36229291657E-01 -0.51378333707E-01  0.13074987913E+00  0.19974044725E-01 0.  0.
         14    1    1    2    0    0  0.51061828643E-02  0.14339855605E-01 -0.18060184427E-01  0.23619373907E-01  0.00000000000E+00 0. -1.
     999901    1    3    3    0    0  0.10778435563E+00  0.21889436052E-01  0.69438518135E-01  0.88956074696E+00  0.88000000000E+00 0.  1.
        -11    1    4    4    0    0 -0.81750632805E-01 -0.21248493751E-01 -0.44641977795E-01  0.95539686796E-01  0.51100000000E-03 0. -1.
         11    1    4    4    0    0 -0.31139905693E-01 -0.14980797906E-01 -0.67363559123E-02  0.35210192337E-01  0.51100000000E-03 0.  1.
</event>
<event>
 8    1  0.1066842E+005  0.1043930E+01  0.7957747E-01            NaN
         13   -1    0    0    0    0  0.00000000000E+00  0.00000000000E+00  0.74505805969E-08  0.10566000000E+00  0.10566000000E+00 0.  1.
     999900   -1    0    0    0    0 -0.00000000000E+00 -0.00000000000E+00 -0.74505805969E-08  0.93827000000E+00  0.93827000000E+00 0. -1.
     999902    2    1    2    0    0  0.11579204296E-01 -0.20440210358E-01  0.42598960327E-02  0.10200547642E+01  0.10197753160E+01 0.  0.
     999903    2    3    3    0    0  0.33826781637E-01  0.40921220529E-01 -0.11626185384E+00  0.12944504488E+00  0.20503744542E-01 0.  0.
         14    1    1    2    0    0 -0.11579204296E-01  0.20440210358E-01 -0.42598960327E-02  0.23875235828E-01  0.00000000000E+00 0.  1.
     999901    1    3    3    0    0 -0.22247577341E-01 -0.61361430887E-01  0.12052174988E+00  0.89060971929E+00  0.88000000000E+00 0.  1.
        -11    1    4    4    0    0  0.35291766709E-02 -0.22134286727E-02 -0.82589373646E-02  0.92642064882E-02  0.51100000000E-03 0. -1.
         11    1    4    4    0    0  0.30297604966E-01  0.43134649201E-01 -0.10800291648E+00  0.12018083840E+00  0.51100000000E-03 0.  1.
</event>
<event>
 8    1  0.1066842E+005  0.1043930E+01  0.7957747E-01            NaN
         13   -1    0    0    0    0  0.00000000000E+00  0.00000000000E+00  0.74505805969E-08  0.10566000000E+00  0.10566000000E+00 0.  1.
     999900   -1    0    0    0    0 -0.00000000000E+00 -0.00000000000E+00 -0.74505805969E-08  0.93827000000E+00  0.93827000000E+00 0. -1.
     999902    2    1    2    0    0 -0.31893760328E-02  0.13413714832E-01  0.18894681058E-01  0.10205396422E+01  0.10202715582E+01 0.  0.
     999903    2    3    3    0    0  0.80066759410E-01 -0.86379563648E-01 -0.47258761087E-01  0.12853820700E+00  0.20409928480E-01 0.  0.
         14    1    1    2    0    0  0.31893760328E-02 -0.13413714832E-01 -0.18894681058E-01  0.23390357786E-01  0.00000000000E+00 0. -1.
     999901    1    3    3    0    0 -0.83256135442E-01  0.99793278480E-01  0.66153442145E-01  0.89200143522E+00  0.88000000000E+00 0.  1.
        -11    1    4    4    0    0  0.71507606317E-01 -0.76382592616E-01 -0.48467184437E-01  0.11531247679E+00  0.51100000000E-03 0. -1.
         11    1    4    4    0    0  0.85591530923E-02 -0.99969710325E-02  0.12084233496E-02  0.13225730206E-01  0.51100000000E-03 0.  1.
</event>
<event>
 8    1  0.1066842E+005  0.1043930E+01  0.7957747E-01            NaN
         13   -1    0    0    0    0  0.00000000000E+00  0.00000000000E+00  0.74505805969E-08  0.10566000000E+00  0.10566000000E+00 0.  1.
     999900   -1    0    0    0    0 -0.00000000000E+00 -0.00000000000E+00 -0.74505805969E-08  0.93827000000E+00  0.93827000000E+00 0.  1.
     999902    2    1    2    0    0  0.16118742763E-01 -0.61283642273E-02 -0.16646900765E-01  0.10199614785E+01  0.10196798162E+01 0.  0.
     999903    2    3    3    0    0  0.42728200398E-02  0.10157143539E+00 -0.80306392926E-01  0.13103397661E+00  0.19641099867E-01 0.  0.
         14    1    1    2    0    0 -0.16118742763E-01  0.61283642273E-02  0.16646900765E-01  0.23968521470E-01  0.00000000000E+00 0.  1.
     999901    1    3    3    0    0  0.11845922723E-01 -0.10769979962E+00  0.63659492161E-01  0.88892750192E+00  0.88000000000E+00 0. -1.
        -11    1    4    4    0    0 -0.35542012971E-02  0.32252955014E-01 -0.35628121280E-01  0.48192422651E-01  0.51100000000E-03 0. -1.
         11    1    4    4    0    0  0.78270213368E-02  0.69318480375E-01 -0.44678271646E-01  0.82841553962E-01  0.51100000000E-03 0.  1.
</event>
<event>
 7    1  0.1335113E+005  0.1043930E+01  0.7957747E-01            NaN
         13   -1    0    0    0    0  0.00000000000E+00  0.00000000000E+00  0.74505805969E-08  0.10566000000E+00  0.10566000000E+00 0.  1.
     999900   -1    0    0    0    0 -0.00000000000E+00 -0.00000000000E+00 -0.74505805969E-08  0.93827000000E+00  0.93827000000E+00 0.  1.
     999903    2    1    2    0    0  0.81855222296E-01 -0.74157664622E-01 -0.14665938061E-01  0.11314763337E+00  0.19689097453E-01 0.  0.
         14    1    1    2    0    0  0.18503046157E-01 -0.16921316476E-01  0.31484481133E-01  0.40248803965E-01  0.00000000000E+00 0.  1.
     999901    1    1    2    0    0 -0.10035826845E+00  0.91078981098E-01 -0.16818543072E-01  0.89053356267E+00  0.88000000000E+00 0.  1.
        -11    1    3    3    0    0  0.39502713136E-01 -0.38813373002E-01  0.23066658567E-02  0.55430353574E-01  0.51100000000E-03 0. -1.
         11    1    3    3    0    0  0.42352509159E-01 -0.35344291619E-01 -0.16972603918E-01  0.57717279795E-01  0.51100000000E-03 0.  1.
</event>
<event>
 8    1  0.1066842E+005  0.1043930E+01  0.7957747E-01            NaN
         13   -1    0    0    0    0  0.00000000000E+00  0.00000000000E+00  0.74505805969E-08  0.10566000000E+00  0.10566000000E+00 0. -1.
     999900   -1    0    0    0    0 -0.00000000000E+00 -0.00000000000E+00 -0.74505805969E-08  0.93827000000E+00  0.93827000000E+00 0. -1.
     999902    2    1    2    0    0  0.31719969470E-02 -0.22538898868E-01  0.57291497026E-02  0.10204590247E+01  0.10201890679E+01 0.  0.
     999903    2    3    3    0    0  0.79314696106E-01  0.95492405119E-01  0.29033349947E-01  0.12901514808E+00  0.19807891634E-01 0.  0.
         14    1    1    2    0    0 -0.31719969470E-02  0.22538898868E-01 -0.57291497026E-02  0.23470975334E-01  0.00000000000E+00 0.  1.
     999901    1    3    3    0    0 -0.76142699159E-01 -0.11803130399E+00 -0.23304200244E-01  0.89144387659E+00  0.88000000000E+00 0.  1.
        -11    1    4    4    0    0  0.77232472007E-01  0.95983506661E-01  0.27233213512E-01  0.12617288664E+00  0.51100000000E-03 0. -1.
         11    1    4    4    0    0  0.20822240992E-02 -0.49110154140E-03  0.18001364344E-02  0.28422614422E-02  0.51100000000E-03 0.  1.
</event>
<event>
 8    1  0.1066842E+005  0.1043930E+01  0.7957747E-01            NaN
         13   -1    0    0    0    0  0.00000000000E+00  0.00000000000E+00  0.74505805969E-08  0.10566000000E+00  0.10566000000E+00 0.  1.
     999900   -1    0    0    0    0 -0.00000000000E+00 -0.00000000000E+00 -0.74505805969E-08  0.93827000000E+00  0.93827000000E+00 0. -1.
     999902    2    1    2    0    0  0.44951647736E-02  0.96949001659E-02 -0.20459136703E-01  0.10208481051E+01  0.10205871251E+01 0.  0.
     999903    2    3    3    0    0  0.72667449813E-01  0.91758287535E-01  0.55285554063E-01  0.13117450310E+00  0.21215941683E-01 0.  0.
         14    1    1    2    0    0 -0.44951647736E-02 -0.96949001659E-02  0.20459136703E-01  0.23081894857E-01  0.00000000000E+00 0.  1.
     999901    1    3    3    0    0 -0.68172285039E-01 -0.82063387369E-01 -0.75744690767E-01  0.88967360204E+00  0.88000000000E+00 0. -1.
        -11    1    4    4    0    0  0.17462778273E-01  0.12726952198E-01  0.40136823631E-02  0.21983964710E-01  0.51100000000E-03 0. -1.
         11    1    4    4    0    0  0.55204671539E-01  0.79031335337E-01  0.51271871700E-01  0.10919053839E+00  0.51100000000E-03 0.  1.
</event>
<event>
 8    1  0.1066842E+005  0.1043930E+01  0.7957747E-01            NaN
         13   -1    0    0    0    0  0.00000000000E+00  0.00000000000E+00  0.74505805969E-08  0.10566000000E+00  0.10566000000E+00 0. -1.
     999900   -1    0    0    0    0 -0.00000000000E+00 -0.00000000000E+00 -0.74505805969E-08  0.93827000000E+00  0.93827000000E+00 0.  1.
     999902    2    1    2    0    0 -0.70663063175E-02 -0.20914724674E-01 -0.97820173664E-04  0.10218535881E+01  0.10216150878E+01 0.  0.
     999903    2    3    3    0    0 -0.12754333533E+00  0.15496654787E-01 -0.26087431924E-01  0.13251902621E+00  0.19320701496E-01 0.  0.
         14    1    1    2    0    0  0.70663063175E-02  0.20914724674E-01  0.97820173664E-04  0.22076411890E-01  0.00000000000E+00 0. -1.
     999901    1    3    3    0    0  0.12047702901E+00 -0.36411379461E-01  0.25989611750E-01  0.88933456190E+00  0.88000000000E+00 0.  1.
        -11    1    4    4    0    0 -0.10791935987E+00  0.14734173227E-01 -0.28856556597E-01  0.11267939508E+00  0.51100000000E-03 0. -1.
         11    1    4    4    0    0 -0.19623975455E-01  0.76248156017E-03  0.27691246726E-02  0.19839631126E-01  0.51100000000E-03 0.  1.
</event>
<event>
 8    1  0.1066842E+005  0.1043930E+01  0.7957747E-01            NaN
         13   -1    0    0    0    0  0.00000000000E+00  0.00000000000E+00  0.74505805969E-08  0.10566000000E+00  0.10566000000E+00 0. -1.
     999900   -1    0    0    0    0 -0.00000000000E+00 -0.00000000000E+00 -0.74505805969E-08  0.93827000000E+00  0.93827000000E+00 0. -1.
     999902    2    1    2    0    0 -0.13098444562E-01 -0.63453694379E-02 -0.18631448607E-01  0.10202875839E+01  0.10200136224E+01 0.  0.
     999903    2    3    3    0    0 -0.13547256888E-01  0.65661126699E-01  0.10766350594E+00  0.12835958652E+00  0.19744396970E-01 0.  0.
         14    1    1    2    0    0  0.13098444562E-01  0.63453694379E-02  0.18631448607E-01  0.23642416130E-01  0.00000000000E+00 0. -1.
     999901    1    3    3    0    0  0.44881232637E-03 -0.72006496137E-01 -0.12629495454E+00  0.89192799735E+00  0.88000000000E+00 0. -1.
        -11    1    4    4    0    0 -0.31556043644E-02  0.42309358738E-01  0.52059076278E-01  0.67159870605E-01  0.51100000000E-03 0. -1.
         11    1    4    4    0    0 -0.10391652524E-01  0.23351767960E-01  0.55604429659E-01  0.61199715913E-01  0.51100000000E-03 0.  1.
</event>
<event>
 8    1  0.1066842E+005  0.1043930E+01  0.7957747E-01            NaN
         13   -1    0    0    0    0  0.00000000000E+00  0.00000000000E+00  0.74505805969E-08  0.10566000000E+00  0.10566000000E+00 0.  1.
     999900   -1    0    0    0    0 -0.00000000000E+00 -0.00000000000E+00 -0.74505805969E-08  0.93827000000E+00  0.93827000000E+00 0. -1.
     999902    2    1    2    0    0 -0.91370254574E-02  0.21392485874E-01 -0.49776861481E-02  0.10201413253E+01  0.10198639235E+01 0.  0.
     999903    2    3    3    0    0 -0.12624290392E-01  0.79057491770E-01  0.10303092422E+00  0.13165763165E+00  0.17575577138E-01 0.  0.
         14    1    1    2    0    0  0.91370254574E-02 -0.21392485874E-01  0.49776861481E-02  0.23788674731E-01  0.00000000000E+00 0.  1.
     999901    1    3    3    0    0  0.34872649344E-02 -0.57665005897E-01 -0.10800861037E+00  0.88848369362E+00  0.88000000000E+00 0. -1.
        -11    1    4    4    0    0  0.21126292425E-02  0.63281037378E-02  0.36335437142E-02  0.76139254104E-02  0.51100000000E-03 0. -1.
         11    1    4    4    0    0 -0.14736919634E-01  0.72729388033E-01  0.99397380506E-01  0.12404370623E+00  0.51100000000E-03 0.  1.
</event>
<event>
 8    1  0.1066842E+005  0.1043930E+01  0.7957747E-01            NaN
         13   -1    0    0    0    0  0.00000000000E+00  0.00000000000E+00  0.74505805969E-08  0.10566000000E+00  0.10566000000E+00 0.  1.
     999900   -1    0    0    0    0 -0.00000000000E+00 -0.00000000000E+00 -0.74505805969E-08  0.93827000000E+00  0.93827000000E+00 0. -1.
     999902    2    1    2    0    0  0.81295727552E-02 -0.19666663520E-01 -0.13938649593E-01  0.10184907870E+01  0.10181730352E+01 0.  0.
     999903    2    3    3    0    0 -0.98713845602E-01 -0.11010869332E-01 -0.79455217017E-01  0.12956848472E+00  0.24681940069E-01 0.  0.
         14    1    1    2    0    0 -0.81295727552E-02  0.19666663520E-01  0.13938649593E-01  0.25439213032E-01  0.00000000000E+00 0.  1.
     999901    1    3    3    0    0  0.10684341836E+00 -0.86557941876E-02  0.65516567423E-01  0.88892230224E+00  0.88000000000E+00 0. -1.
        -11    1    4    4    0    0 -0.54862856827E-01 -0.15629303547E-01 -0.54517272539E-01  0.78908822793E-01  0.51100000000E-03 0.  1.
         11    1    4    4    0    0 -0.43850988776E-01  0.46184342147E-02 -0.24937944478E-01  0.50659661931E-01  0.51100000000E-03 0. -1.
</event>
<event>
 8    1  0.1066842E+005  0.1043930E+01  0.7957747E-01            NaN
         13   -1    0    0    0    0  0.00000000000E+00  0.00000000000E+00  0.74505805969E-08  0.10566000000E+00  0.10566000000E+00 0. -1.
     999900   -1    0    0    0    0 -0.00000000000E+00 -0.00000000000E+00 -0.74505805969E-08  0.93827000000E+00  0.93827000000E+00 0. -1.
     999902    2    1    2    0    0  0.43651629710E-02  0.23329132875E-01 -0.15527254906E-02  0.10201452560E+01  0.10198679470E+01 0.  0.
     999903    2    3    3    0    0 -0.63316403597E-01 -0.10897906548E+00 -0.52750315262E-02  0.12767670794E+00  0.19700561299E-01 0.  0.
         14    1    1    2    0    0 -0.43651629710E-02 -0.23329132875E-01  0.15527254906E-02  0.23784743953E-01  0.00000000000E+00 0. -1.
     999901    1    3    3    0    0  0.67681566568E-01  0.13230819835E+00  0.37223060356E-02  0.89246854811E+00  0.88000000000E+00 0. -1.
        -11    1    4    4    0    0 -0.13227768779E-01 -0.15536146432E-01  0.54146855212E-02  0.21116951795E-01  0.51100000000E-03 0. -1.
         11    1    4    4    0    0 -0.50088634818E-01 -0.93442919044E-01 -0.10689717047E-01  0.10655975614E+00  0.51100000000E-03 0.  1.
</event>
<event>
 8    1  0.1066842E+005  0.1043930E+01  0.7957747E-01            NaN
         13   -1    0    0    0    0  0.00000000000E+00  0.00000000000E+00  0.74505805969E-08  0.10566000000E+00  0.10566000000E+00 0. -1.
     999900   -1    0    0    0    0 -0.00000000000E+00 -0.00000000000E+00 -0.74505805969E-08  0.93827000000E+00  0.93827000000E+00 0. -1.
     999902    2    1    2    0    0 -0.18267684741E-01 -0.53739760206E-02 -0.12244956765E-01  0.10212909433E+01  0.10210399913E+01 0.  0.
     999903    2    3    3    0    0 -0.68723795888E-01  0.10953826493E+00  0.15841032497E-01  0.13194316816E+00  0.20891857456E-01 0.  0.
         14    1    1    2    0    0  0.18267684741E-01  0.53739760206E-02  0.12244956765E-01  0.22639056743E-01  0.00000000000E+00 0. -1.
     999901    1    3    3    0    0  0.50456111148E-01 -0.11491224095E+00 -0.28085989262E-01  0.88934777509E+00  0.88000000000E+00 0. -1.
        -11    1    4    4    0    0 -0.23198780262E-01  0.42904304585E-01 -0.36718855264E-02  0.48915300489E-01  0.51100000000E-03 0.  1.
         11    1    4    4    0    0 -0.45525015626E-01  0.66633960349E-01  0.19512918023E-01  0.83027867673E-01  0.51100000000E-03 0. -1.
</event>
<event>
 8    1  0.1066842E+005  0.1043930E+01  0.7957747E-01            NaN
         13   -1    0    0    0    0  0.00000000000E+00  0.00000000000E+00  0.74505805969E-08  0.10566000000E+00  0.10566000000E+00 0. -1.
     999900   -1    0    0    0    0 -0.00000000000E+00 -0.00000000000E+00 -0.74505805969E-08  0.93827000000E+00  0.93827000000E+00 0.  1.
     999902    2    1    2    0    0  0.10760861695E-01 -0.14928277207E-01 -0.15445664184E-01  0.10199046353E+01  0.10196216195E+01 0.  0.
     999903    2    3    3    0    0 -0.64244692438E-01 -0.52420139789E-01  0.96667315218E-01  0.12883741394E+00  0.19474543307E-01 0.  0.
         14    1    1    2    0    0 -0.10760861695E-01  0.14928277207E-01  0.15445664184E-01  0.24025364657E-01  0.00000000000E+00 0. -1.
     999901    1    3    3    0    0  0.75005554133E-01  0.37491862582E-01 -0.11211297940E+00  0.89106722140E+00  0.88000000000E+00 0.  1.
        -11    1    4    4    0    0 -0.99089068134E-02 -0.45409774148E-02  0.23390350825E-01  0.25810396022E-01  0.51100000000E-03 0.  1.
         11    1    4    4    0    0 -0.54335785625E-01 -0.47879162374E-01  0.73276964394E-01  0.10302701792E+00  0.51100000000E-03 0. -1.
</event>
<event>
 7    1  0.1066842E+005  0.1043930E+01  0.7957747E-01            NaN
         13   -1    0    0    0    0  0.00000000000E+00  0.00000000000E+00  0.74505805969E-08  0.10566000000E+00  0.10566000000E+00 0.  1.
     999900   -1    0    0    0    0 -0.00000000000E+00 -0.00000000000E+00 -0.74505805969E-08  0.93827000000E+00  0.93827000000E+00 0. -1.
     999903    2    1    2    0    0 -0.15030242406E-01  0.84631810646E-01 -0.72865952303E-02  0.88594912884E-01  0.20186940306E-01 0.  0.
         14    1    1    2    0    0  0.48810964538E-01 -0.50373945994E-01 -0.22066671476E-01  0.73532188082E-01  0.00000000000E+00 0.  1.
     999901    1    1    2    0    0 -0.33780722131E-01 -0.34257864652E-01  0.29353266706E-01  0.88180289903E+00  0.88000000000E+00 0.  1.
        -11    1    3    3    0    0 -0.46822914441E-02  0.54574612613E-01  0.38387593816E-02  0.54911832875E-01  0.51100000000E-03 0. -1.
         11    1    3    3    0    0 -0.10347950962E-01  0.30057198032E-01 -0.11125354612E-01  0.33683080009E-01  0.51100000000E-03 0.  1.
</event>
<event>
 7    1  0.1066842E+005  0.1043930E+01  0.7957747E-01            NaN
         13   -1    0    0    0    0  0.00000000000E+00  0.00000000000E+00  0.74505805969E-08  0.10566000000E+00  0.10566000000E+00 0. -1.
     999900   -1    0    0    0    0 -0.00000000000E+00 -0.00000000000E+00 -0.74505805969E-08  0.93827000000E+00  0.93827000000E+00 0.  1.
     999903    2    1    2    0    0 -0.75167969299E-01 -0.47655006334E-01 -0.15932314527E-02  0.91005776747E-01  0.18928543993E-01 0.  0.
         14    1    1    2    0    0 -0.18380957479E-01  0.28274413975E-01 -0.56554113514E-01  0.65845803502E-01  0.00000000000E+00 0.  1.
     999901    1    1    2    0    0  0.93548926778E-01  0.19380592359E-01  0.58147344967E-01  0.88707841975E+00  0.88000000000E+00 0. -1.
        -11    1    3    3    0    0 -0.44650285912E-01 -0.33556586809E-01 -0.90049225208E-02  0.56577754470E-01  0.51100000000E-03 0. -1.
         11    1    3    3    0    0 -0.30517683387E-01 -0.14098419525E-01  0.74116910681E-02  0.34428022277E-01  0.51100000000E-03 0.  1.
</event>
<event>
 8    1  0.1066842E+005  0.1043930E+01  0.7957747E-01            NaN
         13   -1    0    0    0    0  0.00000000000E+00  0.00000000000E+00  0.74505805969E-08  0.10566000000E+00  0.10566000000E+00 0.  1.
     999900   -1    0    0    0    0 -0.00000000000E+00 -0.00000000000E+00 -0.74505805969E-08  0.93827000000E+00  0.93827000000E+00 0.  1.
     999902    2    1    2    0    0  0.80163457400E-02 -0.20336183158E-01 -0.13040800134E-01  0.10184764224E+01  0.10181583071E+01 0.  0.
     999903    2    3    3    0    0 -0.71777485313E-01  0.45350169958E-01  0.91672855733E-01  0.12626192903E+00  0.18152601205E-01 0.  0.
         14    1    1    2    0    0 -0.80163457400E-02  0.20336183158E-01  0.13040800134E-01  0.25453577599E-01  0.00000000000E+00 0. -1.
     999901    1    3    3    0    0  0.79793831053E-01 -0.65686353116E-01 -0.10471365587E+00  0.89221449337E+00  0.88000000000E+00 0.  1.
        -11    1    4    4    0    0 -0.21123737994E-01  0.52677839511E-02  0.17764788449E-01  0.28103570667E-01  0.51100000000E-03 0. -1.
         11    1    4    4    0    0 -0.50653747320E-01  0.40082386007E-01  0.73908067284E-01  0.98158358361E-01  0.51100000000E-03 0.  1.
</event>
<event>
 8    1  0.1066842E+005  0.1043930E+01  0.7957747E-01            NaN
         13   -1    0    0    0    0  0.00000000000E+00  0.00000000000E+00  0.74505805969E-08  0.10566000000E+00  0.10566000000E+00 0. -1.
     999900   -1    0    0    0    0 -0.00000000000E+00 -0.00000000000E+00 -0.74505805969E-08  0.93827000000E+00  0.93827000000E+00 0.  1.
     999902    2    1    2    0    0  0.22225248379E-01 -0.59367193949E-02  0.28879788062E-02  0.10207449461E+01  0.10204816011E+01 0.  0.
     999903    2    3    3    0    0 -0.86290364223E-01  0.66806956209E-01 -0.64926096753E-01  0.12851962178E+00  0.19816629050E-01 0.  0.
         14    1    1    2    0    0 -0.22225248379E-01  0.59367193949E-02 -0.28879788062E-02  0.23185053899E-01  0.00000000000E+00 0.  1.
     999901    1    3    3    0    0  0.10851561260E+00 -0.72743675604E-01  0.67814075560E-01  0.89222532432E+00  0.88000000000E+00 0. -1.
        -11    1    4    4    0    0 -0.12382854314E-01  0.12449639974E-01 -0.19153954873E-01  0.25989684968E-01  0.51100000000E-03 0.  1.
         11    1    4    4    0    0 -0.73907509908E-01  0.54357316235E-01 -0.45772141880E-01  0.10252993681E+00  0.51100000000E-03 0. -1.
</event>
<event>
 8    1  0.1066842E+005  0.1043930E+01  0.7957747E-01            NaN
         13   -1    0    0    0    0  0.00000000000E+00  0.00000000000E+00  0.74505805969E-08  0.10566000000E+00  0.10566000000E+00 0.  1.
     999900   -1    0    0    0    0 -0.00000000000E+00 -0.00000000000E+00 -0.74505805969E-08  0.93827000000E+00  0.93827000000E+00 0. -1.
     999902    2    1    2    0    0 -0.66986156540E-02 -0.88743562108E-02 -0.21258602557E-01  0.10199392970E+01  0.10196571069E+01 0.  0.
     999903    2    3    3    0    0  0.12693088682E-01 -0.92571201674E-02 -0.13046275367E+00  0.13297721697E+00  0.20386303341E-01 0.  0.
         14    1    1    2    0    0  0.66986156540E-02  0.88743562108E-02  0.21258602557E-01  0.23990703043E-01  0.00000000000E+00 0.  1.
     999901    1    3    3    0    0 -0.19391704336E-01  0.38276395669E-03  0.10920415112E+00  0.88696207998E+00  0.88000000000E+00 0.  1.
        -11    1    4    4    0    0  0.14266695856E-01  0.12555197812E-02 -0.90220564878E-01  0.91351663305E-01  0.51100000000E-03 0. -1.
         11    1    4    4    0    0 -0.15736071742E-02 -0.10512639949E-01 -0.40242188796E-01  0.41625553670E-01  0.51100000000E-03 0.  1.
</event>
<event>
 8    1  0.1066842E+005  0.1043930E+01  0.7957747E-01            NaN
         13   -1    0    0    0    0  0.00000000000E+00  0.00000000000E+00  0.74505805969E-08  0.10566000000E+00  0.10566000000E+00 0. -1.
     999900   -1    0    0    0    0 -0.00000000000E+00 -0.00000000000E+00 -0.74505805969E-08  0.93827000000E+00  0.93827000000E+00 0. -1.
     999902    2    1    2    0    0  0.99854848166E-02 -0.18105375352E-01  0.11767391190E-01  0.10201395393E+01  0.10198620954E+01 0.  0.
     999903    2    3    3    0    0  0.26622253005E-02 -0.12300419072E+00  0.47315515570E-01  0.13316656299E+00  0.18906536093E-01 0.  0.
         14    1    1    2    0    0 -0.99854848166E-02  0.18105375352E-01 -0.11767391190E-01  0.23790460674E-01  0.00000000000E+00 0.  1.
     999901    1    3    3    0    0  0.73232595161E-02  0.10489881537E+00 -0.35548124380E-01  0.88697297633E+00  0.88000000000E+00 0. -1.
        -11    1    4    4    0    0  0.43431822701E-02 -0.10036504345E+00  0.30756922009E-01  0.10506309796E+00  0.51100000000E-03 0. -1.
         11    1    4    4    0    0 -0.16809569696E-02 -0.22639147270E-01  0.16558593561E-01  0.28103465038E-01  0.51100000000E-03 0.  1.
</event>
<event>
 8    1  0.1066842E+005  0.1043930E+01  0.7957747E-01            NaN
         13   -1    0    0    0    0  0.00000000000E+00  0.00000000000E+00  0.74505805969E-08  0.10566000000E+00  0.10566000000E+00 0.  1.
     999900   -1    0    0    0    0 -0.00000000000E+00 -0.00000000000E+00 -0.74505805969E-08  0.93827000000E+00  0.93827000000E+00 0. -1.
     999902    2    1    2    0    0  0.14657791576E-01  0.13707120066E-01  0.12479382471E-01  0.10202980094E+01  0.10200242923E+01 0.  0.
     999903    2    3    3    0    0 -0.72438245146E-02 -0.15384099103E-01 -0.12605825753E+00  0.12871590013E+00  0.19696577227E-01 0.  0.
         14    1    1    2    0    0 -0.14657791576E-01 -0.13707120066E-01 -0.12479382471E-01  0.23631990632E-01  0.00000000000E+00 0. -1.
     999901    1    3    3    0    0  0.21901616091E-01  0.29091219170E-01  0.13853764000E+00  0.89158210924E+00  0.88000000000E+00 0.  1.
        -11    1    4    4    0    0 -0.12394203301E-01 -0.35200140412E-02 -0.55296279737E-01  0.56779806693E-01  0.51100000000E-03 0. -1.
         11    1    4    4    0    0  0.51503787861E-02 -0.11864085062E-01 -0.70761977796E-01  0.71936093434E-01  0.51100000000E-03 0.  1.
</event>
<event>
 8    1  0.1066842E+005  0.1043930E+01  0.7957747E-01            NaN
         13   -1    0    0    0    0  0.00000000000E+00  0.00000000000E+00  0.74505805969E-08  0.10566000000E+00  0.10566000000E+00 0.  1.
     999900   -1    0    0    0    0 -0.00000000000E+00 -0.00000000000E+00 -0.74505805969E-08  0.93827000000E+00  0.93827000000E+00 0. -1.
     999902    2    1    2    0    0 -0.23189285935E-01  0.32031272444E-02  0.43261381610E-02  0.10201241503E+01  0.10198463432E+01 0.  0.
     999903    2    3    3    0    0 -0.84816381538E-01  0.79504742495E-01  0.61195946440E-01  0.13285079309E+00  0.19737444313E-01 0.  0.
         14    1    1    2    0    0  0.23189285935E-01 -0.32031272444E-02 -0.43261381610E-02  0.23805849653E-01  0.00000000000E+00 0.  1.
     999901    1    3    3    0    0  0.61627095603E-01 -0.76301615251E-01 -0.56869808279E-01  0.88727335726E+00  0.88000000000E+00 0.  1.
        -11    1    4    4    0    0 -0.66922582034E-01  0.52334939109E-01  0.39121617400E-01  0.93532560676E-01  0.51100000000E-03 0.  1.
         11    1    4    4    0    0 -0.17893799504E-01  0.27169803386E-01  0.22074329040E-01  0.39318232416E-01  0.51100000000E-03 0. -1.
</event>
<event>
 8    1  0.1066842E+005  0.1043930E+01  0.7957747E-01            NaN
         13   -1    0    0    0    0  0.00000000000E+00  0.00000000000E+00  0.74505805969E-08  0.10566000000E+00  0.10566000000E+00 0.  1.
     999900   -1    0    0    0    0 -0.00000000000E+00 -0.00000000000E+00 -0.74505805969E-08  0.93827000000E+00  0.93827000000E+00 0. -1.
     999902    2    1    2    0    0  0.70321736839E-02  0.11250410808E-01 -0.18943868454E-01  0.10208022383E+01  0.10205402081E+01 0.  0.
     999903    2    3    3    0    0  0.11403727991E+00 -0.57086799297E-01  0.21814696883E-01  0.13075654974E+00  0.18920635238E-01 0.  0.
         14    1    1    2    0    0 -0.70321736839E-02 -0.11250410808E-01  0.18943868454E-01  0.23127761718E-01  0.00000000000E+00 0.  1.
     999901    1    3    3    0    0 -0.10700510622E+00  0.68337210105E-01 -0.40758565337E-01  0.89004568854E+00  0.88000000000E+00 0.  1.
        -11    1    4    4    0    0  0.87971878912E-01 -0.37439444889E-01  0.22017310483E-01  0.98111093128E-01  0.51100000000E-03 0. -1.
         11    1    4    4    0    0  0.26065400994E-01 -0.19647354407E-01 -0.20261360029E-03  0.32645456613E-01  0.51100000000E-03 0.  1.
</event>
<event>
 8    1  0.1066842E+005  0.1043930E+01  0.7957747E-01            NaN
         13   -1    0    0    0    0  0.00000000000E+00  0.00000000000E+00  0.74505805969E-08  0.10566000000E+00  0.10566000000E+00 0. -1.
     999900   -1    0    0    0    0 -0.00000000000E+00 -0.00000000000E+00 -0.74505805969E-08  0.93827000000E+00  0.93827000000E+00 0. -1.
     999902    2    1    2    0    0 -0.54754576018E-02  0.22835050863E-01 -0.22781654467E-02  0.10203374117E+01  0.10200646173E+01 0.  0.
     999903    2    3    3    0    0  0.11057955537E+00  0.48161834450E-01 -0.42497586353E-01  0.13144607201E+00  0.30407641083E-01 0.  0.
         14    1    1    2    0    0  0.54754576018E-02 -0.22835050863E-01  0.22781654467E-02  0.23592588278E-01  0.00000000000E+00 0.  1.
     999901    1    3    3    0    0 -0.11605501297E+00 -0.25326783588E-01  0.40219420906E-01  0.88889133972E+00  0.88000000000E+00 0.  1.
        -11    1    4    4    0    0  0.68733647185E-01  0.43924164890E-01 -0.21114499454E-01  0.84259893928E-01  0.51100000000E-03 0.  1.
         11    1    4    4    0    0  0.41845908188E-01  0.42376695605E-02 -0.21383086899E-01  0.47186178079E-01  0.51100000000E-03 0. -1.
</event>
<event>
 8    1  0.1066842E+005  0.1043930E+01  0.7957747E-01            NaN
         13   -1    0    0    0    0  0.00000000000E+00  0.00000000000E+00  0.74505805969E-08  0.10566000000E+00  0.10566000000E+00 0.  1.
     999900   -1    0    0    0    0 -0.00000000000E+00 -0.00000000000E+00 -0.74505805969E-08  0.93827000000E+00  0.93827000000E+00 0. -1.
     999902    2    1    2    0    0 -0.22473484010E-01  0.81533862713E-02 -0.78088759688E-03  0.10200104478E+01  0.10197299489E+01 0.  0.
     999903    2    3    3    0    0  0.10239380714E+00  0.75336455358E-01  0.17846532301E-02  0.12865642883E+00  0.19728619956E-01 0.  0.
         14    1    1    2    0    0  0.22473484010E-01 -0.81533862713E-02  0.78088759688E-03  0.23919552184E-01  0.00000000000E+00 0.  1.
     999901    1    3    3    0    0 -0.12486729115E+00 -0.67183069086E-01 -0.25655408270E-02  0.89135401899E+00  0.88000000000E+00 0.  1.
        -11    1    4    4    0    0  0.87614596514E-01  0.58258022503E-01 -0.41506053100E-02  0.10529863890E+00  0.51100000000E-03 0.  1.
         11    1    4    4    0    0  0.14779210622E-01  0.17078432855E-01  0.59352585401E-02  0.23357789928E-01  0.51100000000E-03 0. -1.
</event>
<event>
 8    1  0.1066842E+005  0.1043930E+01  0.7957747E-01            NaN
         13   -1    0    0    0    0  0.00000000000E+00  0.00000000000E+00  0.74505805969E-08  0.10566000000E+00  0.10566000000E+00 0.  1.
     999900   -1    0    0    0    0 -0.00000000000E+00 -0.00000000000E+00 -0.74505805969E-08  0.93827000000E+00  0.93827000000E+00 0.  1.
     999902    2    1    2    0    0  0.13347284295E-01  0.39480925338E-02  0.17578275873E-01  0.10215082870E+01  0.10212621833E+01 0.  0.
     999903    2    3    3    0    0 -0.12584498178E+00 -0.98932249323E-02  0.25820378503E-01  0.13042243181E+00  0.20210973089E-01 0.  0.
         14    1    1    2    0    0 -0.13347284295E-01 -0.39480925338E-02 -0.17578275873E-01  0.22421713034E-01  0.00000000000E+00 0. -1.
     999901    1    3    3    0    0  0.13919226608E+00  0.13841317466E-01 -0.82421026291E-02  0.89108585516E+00  0.88000000000E+00 0. -1.
        -11    1    4    4    0    0 -0.81163999355E-01  0.20795149484E-02  0.21314710861E-01  0.83943416620E-01  0.51100000000E-03 0.  1.
         11    1    4    4    0    0 -0.44680982428E-01 -0.11972739881E-01  0.45056676418E-02  0.46479015189E-01  0.51100000000E-03 0. -1.
</event>
<event>
 8    1  0.1066842E+005  0.1043930E+01  0.7957747E-01            NaN
         13   -1    0    0    0    0  0.00000000000E+00  0.00000000000E+00  0.74505805969E-08  0.10566000000E+00  0.10566000000E+00 0.  1.
     999900   -1    0    0    0    0 -0.00000000000E+00 -0.00000000000E+00 -0.74505805969E-08  0.93827000000E+00  0.93827000000E+00 0.  1.
     999902    2    1    2    0    0 -0.18230170466E-01 -0.50273043457E-02 -0.14688164032E-01  0.10199851662E+01  0.10197040669E+01 0.  0.
     999903    2    3    3    0    0 -0.95050331124E-01  0.72717962386E-01  0.49200244080E-01  0.13092533002E+00  0.19957718360E-01 0.  0.
         14    1    1    2    0    0  0.18230170466E-01  0.50273043457E-02  0.14688164032E-01  0.23944833823E-01  0.00000000000E+00 0.  1.
     999901    1    3    3    0    0  0.76820160658E-01 -0.77745266732E-01 -0.63888408112E-01  0.88905983616E+00  0.88000000000E+00 0.  1.
        -11    1    4    4    0    0 -0.87234802969E-01  0.66345939728E-01  0.38377441617E-01  0.11612400145E+00  0.51100000000E-03 0. -1.
         11    1    4    4    0    0 -0.78155281549E-02  0.63720226579E-02  0.10822802463E-01  0.14801328564E-01  0.51100000000E-03 0.  1.
</event>
<event>
 8    1  0.1066842E+005  0.1043930E+01  0.7957747E-01            NaN
         13   -1    0    0    0    0  0.00000000000E+00  0.00000000000E+00  0.74505805969E-08  0.10566000000E+00  0.10566000000E+00 0.  1.
     999900   -1    0    0    0    0 -0.00000000000E+00 -0.00000000000E+00 -0.74505805969E-08  0.93827000000E+00  0.93827000000E+00 0. -1.
     999902    2    1    2    0    0  0.15820171409E-01  0.58632699196E-02  0.17566745382E-01  0.10195733520E+01  0.10192823818E+01 0.  0.
     999903    2    3    3    0    0 -0.26186099041E-01 -0.50146031931E-01  0.11678933654E+00  0.13123406366E+00  0.19552340852E-01 0.  0.
         14    1    1    2    0    0 -0.15820171409E-01 -0.58632699196E-02 -0.17566745382E-01  0.24356647981E-01  0.00000000000E+00 0. -1.
     999901    1    3    3    0    0  0.42006270450E-01  0.56009301850E-01 -0.99222591160E-01  0.88833928836E+00  0.88000000000E+00 0. -1.
        -11    1    4    4    0    0 -0.26328154927E-01 -0.44726324603E-01  0.89971266417E-01  0.10386869478E+00  0.51100000000E-03 0.  1.
         11    1    4    4    0    0  0.14205588571E-03 -0.54197073273E-02  0.26818070124E-01  0.27365368873E-01  0.51100000000E-03 0. -1.
</event>
<event>
 8    1  0.1066842E+005  0.1043930E+01  0.7957747E-01            NaN
         13   -1    0    0    0    0  0.00000000000E+00  0.00000000000E+00  0.74505805969E-08  0.10566000000E+00  0.10566000000E+00 0.  1.
     999900   -1    0    0    0    0 -0.00000000000E+00 -0.00000000000E+00 -0.74505805969E-08  0.93827000000E+00  0.93827000000E+00 0.  1.
     999902    2    1    2    0    0  0.20730200531E-01  0.12130623383E-01 -0.87968899317E-03  0.10198952940E+01  0.10196120555E+01 0.  0.
     999903    2    3    3    0    0  0.21117793540E-02  0.22765930396E-01  0.12682395725E+00  0.13041905680E+00  0.20051609488E-01 0.  0.
         14    1    1    2    0    0 -0.20730200531E-01 -0.12130623383E-01  0.87968899317E-03  0.24034705957E-01  0.00000000000E+00 0. -1.
     999901    1    3    3    0    0  0.18618421177E-01 -0.10635307012E-01 -0.12770364625E+00  0.88947623725E+00  0.88000000000E+00 0.  1.
        -11    1    4    4    0    0  0.87734500336E-02  0.45833930658E-02  0.61140193015E-01  0.61938398755E-01  0.51100000000E-03 0.  1.
         11    1    4    4    0    0 -0.66616706797E-02  0.18182537330E-01  0.65683764239E-01  0.68480658041E-01  0.51100000000E-03 0. -1.
</event>
<event>
 8    1  0.1066842E+005  0.1043930E+01  0.7957747E-01            NaN
         13   -1    0    0    0    0  0.00000000000E+00  0.00000000000E+00  0.74505805969E-08  0.10566000000E+00  0.10566000000E+00 0.  1.
     999900   -1    0    0    0    0 -0.00000000000E+00 -0.00000000000E+00 -0.74505805969E-08  0.93827000000E+00  0.93827000000E+00 0.  1.
     999902    2    1    2    0    0 -0.18348476010E-01 -0.10406945946E-01 -0.11076123125E-01  0.10201045598E+01  0.10198262898E+01 0.  0.
     999903    2    3    3    0    0 -0.12094377768E-01  0.12074858009E+00  0.38891328931E-01  0.12896055799E+00  0.19793849659E-01 0.  0.
         14    1    1    2    0    0  0.18348476010E-01  0.10406945946E-01  0.11076123125E-01  0.23825440170E-01  0.00000000000E+00 0.  1.
     999901    1    3    3    0    0 -0.62540982421E-02 -0.13115552603E+00 -0.49967452056E-01  0.89114400184E+00  0.88000000000E+00 0.  1.
        -11    1    4    4    0    0  0.46107822798E-02  0.50818745754E-01  0.14810828341E-01  0.53135919964E-01  0.51100000000E-03 0. -1.
         11    1    4    4    0    0 -0.16705160048E-01  0.69929834331E-01  0.24080500590E-01  0.75824638024E-01  0.51100000000E-03 0.  1.
</event>
<event>
 8    1  0.1066842E+005  0.1043930E+01  0.7957747E-01            NaN
         13   -1    0    0    0    0  0.00000000000E+00  0.00000000000E+00  0.74505805969E-08  0.10566000000E+00  0.10566000000E+00 0.  1.
     999900   -1    0    0    0    0 -0.00000000000E+00 -0.00000000000E+00 -0.74505805969E-08  0.93827000000E+00  0.93827000000E+00 0.  1.
     999902    2    1    2    0    0 -0.94364428436E-02 -0.16023313021E-01 -0.16245656052E-01  0.10192376053E+01  0.10189384583E+01 0.  0.
     999903    2    3    3    0    0 -0.76255764147E-01 -0.65627236152E-01 -0.84155187044E-01  0.13270668355E+00  0.20176537385E-01 0.  0.
         14    1    1    2    0    0  0.94364428436E-02  0.16023313021E-01  0.16245656052E-01  0.24692394665E-01  0.00000000000E+00 0.  1.
     999901    1    3    3    0    0  0.66819321303E-01  0.49603923131E-01  0.67909530991E-01  0.88653092179E+00  0.88000000000E+00 0. -1.
        -11    1    4    4    0    0 -0.18792782260E-02 -0.69232105898E-02 -0.24716475618E-02  0.76047810087E-02  0.51100000000E-03 0.  1.
         11    1    4    4    0    0 -0.74376485921E-01 -0.58704025562E-01 -0.81683539482E-01  0.12510190254E+00  0.51100000000E-03 0. -1.
</event>
<event>
 8    1  0.1066842E+005  0.1043930E+01  0.7957747E-01            NaN
         13   -1    0    0    0    0  0.00000000000E+00  0.00000000000E+00  0.74505805969E-08  0.10566000000E+00  0.10566000000E+00 0. -1.
     999900   -1    0    0    0    0 -0.00000000000E+00 -0.00000000000E+00 -0.74505805969E-08  0.93827000000E+00  0.93827000000E+00 0. -1.
     999902    2    1    2    0    0  0.65193246849E-02 -0.17428012305E-01  0.15979382301E-01  0.10194029157E+01  0.10191078091E+01 0.  0.
     999903    2    3    3    0    0  0.18386202231E-01  0.91808270887E-02  0.12858992683E+00  0.13174871055E+00  0.20000335758E-01 0.  0.
         14    1    1    2    0    0 -0.65193246849E-02  0.17428012305E-01 -0.15979382301E-01  0.24527084334E-01  0.00000000000E+00 0.  1.
     999901    1    3    3    0    0 -0.11866877546E-01 -0.26608839394E-01 -0.11261054453E+00  0.88765420511E+00  0.88000000000E+00 0. -1.
        -11    1    4    4    0    0  0.33054510476E-02 -0.62436464841E-03  0.77634523173E-01  0.77709048039E-01  0.51100000000E-03 0. -1.
         11    1    4    4    0    0  0.15080751183E-01  0.98051917372E-02  0.50955403661E-01  0.54039662513E-01  0.51100000000E-03 0.  1.
</event>
<event>
 8    1  0.1066842E+005  0.1043930E+01  0.7957747E-01            NaN
         13   -1    0    0    0    0  0.00000000000E+00  0.00000000000E+00  0.74505805969E-08  0.10566000000E+00  0.10566000000E+00 0. -1.
     999900   -1    0    0    0    0 -0.00000000000E+00 -0.00000000000E+00 -0.74505805969E-08  0.93827000000E+00  0.93827000000E+00 0.  1.
     999902    2    1    2    0    0  0.44128996795E-02  0.23122962025E-01  0.24871441125E-02  0.10202586895E+01  0.10199840501E+01 0.  0.
     999903    2    3    3    0    0  0.12684813658E+00 -0.14337208391E-01  0.21203074271E-01  0.13079596532E+00  0.19026531185E-01 0.  0.
         14    1    1    2    0    0 -0.44128996795E-02 -0.23122962025E-01 -0.24871441125E-02  0.23671310531E-01  0.00000000000E+00 0. -1.
     999901    1    3    3    0    0 -0.12243523690E+00  0.37460170416E-01 -0.18715930158E-01  0.88946272415E+00  0.88000000000E+00 0. -1.
        -11    1    4    4    0    0  0.85867654941E-01 -0.13586212463E-01  0.62445391893E-02  0.87161314382E-01  0.51100000000E-03 0. -1.
         11    1    4    4    0    0  0.40980481636E-01 -0.75099592821E-03  0.14958535081E-01  0.43634650942E-01  0.51100000000E-03 0.  1.
</event>
<event>
 8    1  0.1066842E+005  0.1043930E+01  0.7957747E-01            NaN
         13   -1    0    0    0    0  0.00000000000E+00  0.00000000000E+00  0.74505805969E-08  0.10566000000E+00  0.10566000000E+00 0.  1.
     999900   -1    0    0    0    0 -0.00000000000E+00 -0.00000000000E+00 -0.74505805969E-08  0.93827000000E+00  0.93827000000E+00 0.  1.
     999902    2    1    2    0    0  0.21197898950E-01 -0.89914622208E-02  0.93942156227E-02  0.10190613732E+01  0.10187578877E+01 0.  0.
     999903    2    3    3    0    0  0.46744089448E-01  0.85182116381E-01  0.85451936659E-01  0.13040730793E+00  0.16218188349E-01 0.  0.
         14    1    1    2    0    0 -0.21197898950E-01  0.89914622208E-02 -0.93942156227E-02  0.24868626820E-01  0.00000000000E+00 0. -1.
     999901    1    3    3    0    0 -0.25546190499E-01 -0.94173578602E-01 -0.76057721036E-01  0.88865406525E+00  0.88000000000E+00 0. -1.
        -11    1    4    4    0    0  0.15158904894E-01  0.26915064511E-01  0.17601497248E-01  0.35556812590E-01  0.51100000000E-03 0.  1.
         11    1    4    4    0    0  0.31585184555E-01  0.58267051871E-01  0.67850439411E-01  0.94850495340E-01  0.51100000000E-03 0. -1.
</event>
<event>
 8    1  0.1066842E+005  0.1043930E+01  0.7957747E-01            NaN
         13   -1    0    0    0    0  0.00000000000E+00  0.00000000000E+00  0.74505805969E-08  0.10566000000E+00  0.10566000000E+00 0.  1.
     999900   -1    0    0    0    0 -0.00000000000E+00 -0.00000000000E+00 -0.74505805969E-08  0.93827000000E+00  0.93827000000E+00 0.  1.
     999902    2    1    2    0    0 -0.18799148692E-01 -0.16173912013E-01 -0.95441221121E-02  0.10173575765E+01  0.10170104940E+01 0.  0.
     999903    2    3    3    0    0 -0.91704367793E-01 -0.37661171494E-01 -0.83260297252E-01  0.13101060850E+00  0.20086003329E-01 0.  0.
         14    1    1    2    0    0  0.18799148692E-01  0.16173912013E-01  0.95441221121E-02  0.26572423454E-01  0.00000000000E+00 0.  1.
     999901    1    3    3    0    0  0.72905219101E-01  0.21487259481E-01  0.73716175140E-01  0.88634696805E+00  0.88000000000E+00 0. -1.
        -11    1    4    4    0    0 -0.28035980360E-01 -0.91457688249E-02 -0.36934979879E-01  0.47266427217E-01  0.51100000000E-03 0. -1.
         11    1    4    4    0    0 -0.63668387433E-01 -0.28515402669E-01 -0.46325317373E-01  0.83744181280E-01  0.51100000000E-03 0.  1.
</event>
<event>
 8    1  0.1066842E+005  0.1043930E+01  0.7957747E-01            NaN
         13   -1    0    0    0    0  0.00000000000E+00  0.00000000000E+00  0.74505805969E-08  0.10566000000E+00  0.10566000000E+00 0.  1.
     999900   -1    0    0    0    0 -0.00000000000E+00 -0.00000000000E+00 -0.74505805969E-08  0.93827000000E+00  0.93827000000E+00 0. -1.
     999902    2    1    2    0    0  0.10637407893E-01  0.86743868325E-02  0.18989512075E-01  0.10204992296E+01  0.10202302076E+01 0.  0.
     999903    2    3    3    0    0  0.13963063980E-01  0.94011288175E-01 -0.86422881677E-01  0.13010312701E+00  0.20611155230E-01 0.  0.
         14    1    1    2    0    0 -0.10637407893E-01 -0.86743868325E-02 -0.18989512075E-01  0.23430770420E-01  0.00000000000E+00 0. -1.
     999901    1    3    3    0    0 -0.33256560874E-02 -0.85336901342E-01  0.10541239375E+00  0.89039610257E+00  0.88000000000E+00 0.  1.
        -11    1    4    4    0    0  0.25146700898E-02  0.39524975004E-01 -0.49047758660E-01  0.63043564027E-01  0.51100000000E-03 0. -1.
         11    1    4    4    0    0  0.11448393890E-01  0.54486313171E-01 -0.37375123018E-01  0.67059562981E-01  0.51100000000E-03 0.  1.
</event>
<event>
 8    1  0.1066842E+005  0.1043930E+01  0.7957747E-01            NaN
         13   -1    0    0    0    0  0.00000000000E+00  0.00000000000E+00  0.74505805969E-08  0.10566000000E+00  0.10566000000E+00 0.  1.
     999900   -1    0    0    0    0 -0.00000000000E+00 -0.00000000000E+00 -0.74505805969E-08  0.93827000000E+00  0.93827000000E+00 0.  1.
     999902    2    1    2    0    0 -0.10639287925E-01 -0.16733805478E-01  0.13231271523E-01  0.10200913499E+01  0.10198127676E+01 0.  0.
     999903    2    3    3    0    0  0.20510095083E-01  0.10511754956E+00  0.69110083301E-01  0.12939472454E+00  0.22280661987E-01 0.  0.
         14    1    1    2    0    0  0.10639287925E-01  0.16733805478E-01 -0.13231271523E-01  0.23838650118E-01  0.00000000000E+00 0. -1.
     999901    1    3    3    0    0 -0.31149383008E-01 -0.12185135504E+00 -0.55878811778E-01  0.89069662534E+00  0.88000000000E+00 0.  1.
        -11    1    4    4    0    0  0.24483772892E-02  0.20655490301E-01  0.38979502479E-02  0.21168348261E-01  0.51100000000E-03 0. -1.
         11    1    4    4    0    0  0.18061717794E-01  0.84462059263E-01  0.65212133053E-01  0.10822637628E+00  0.51100000000E-03 0.  1.
</event>
<event>
 8    1  0.1066842E+005  0.1043930E+01  0.7957747E-01            NaN
         13   -1    0    0    0    0  0.00000000000E+00  0.00000000000E+00  0.74505805969E-08  0.10566000000E+00  0.10566000000E+00 0.  1.
     999900   -1    0    0    0    0 -0.00000000000E+00 -0.00000000000E+00 -0.74505805969E-08  0.93827000000E+00  0.93827000000E+00 0. -1.
     999902    2    1    2    0    0  0.27117847953E-02 -0.26225125125E-02 -0.27065928182E-01  0.10166024349E+01  0.10162350686E+01 0.  0.
     999903    2    3    3    0    0 -0.48256234870E-01  0.62848439215E-01  0.93765761925E-01  0.12447885491E+00  0.20600405221E-01 0.  0.
         14    1    1    2    0    0 -0.27117847953E-02  0.26225125125E-02  0.27065928182E-01  0.27327565150E-01  0.00000000000E+00 0.  1.
     999901    1    3    3    0    0  0.50968019665E-01 -0.65470951727E-01 -0.12083169011E+00  0.89212357994E+00  0.88000000000E+00 0. -1.
        -11    1    4    4    0    0 -0.42058064271E-01  0.48160092279E-01  0.62679303517E-01  0.89538994125E-01  0.51100000000E-03 0. -1.
         11    1    4    4    0    0 -0.61981705993E-02  0.14688346936E-01  0.31086458407E-01  0.34939860787E-01  0.51100000000E-03 0.  1.
</event>
<event>
 8    1  0.1066842E+005  0.1043930E+01  0.7957747E-01            NaN
         13   -1    0    0    0    0  0.00000000000E+00  0.00000000000E+00  0.74505805969E-08  0.10566000000E+00  0.10566000000E+00 0. -1.
     999900   -1    0    0    0    0 -0.00000000000E+00 -0.00000000000E+00 -0.74505805969E-08  0.93827000000E+00  0.93827000000E+00 0. -1.
     999902    2    1    2    0    0  0.59687679696E-02  0.14374367968E-01  0.17193141363E-01  0.10207383473E+01  0.10204748507E+01 0.  0.
     999903    2    3    3    0    0  0.50380955559E-01  0.12069199433E+00  0.15652450341E-01  0.13322595086E+00  0.19983908634E-01 0.  0.
         14    1    1    2    0    0 -0.59687679696E-02 -0.14374367968E-01 -0.17193141363E-01  0.23191652712E-01  0.00000000000E+00 0.  1.
     999901    1    3    3    0    0 -0.44412187590E-01 -0.10631762636E+00  0.15406910217E-02  0.88751239643E+00  0.88000000000E+00 0.  1.
        -11    1    4    4    0    0  0.45462902793E-01  0.11628600600E+00  0.11449411832E-01  0.12538205962E+00  0.51100000000E-03 0. -1.
         11    1    4    4    0    0  0.49180527661E-02  0.44059883237E-02  0.42030385095E-02  0.78438912430E-02  0.51100000000E-03 0.  1.
</event>
<event>
 8    1  0.1066842E+005  0.1043930E+01  0.7957747E-01            NaN
         13   -1    0    0    0    0  0.00000000000E+00  0.00000000000E+00  0.74505805969E-08  0.10566000000E+00  0.10566000000E+00 0.  1.
     999900   -1    0    0    0    0 -0.00000000000E+00 -0.00000000000E+00 -0.74505805969E-08  0.93827000000E+00  0.93827000000E+00 0. -1.
     999902    2    1    2    0    0  0.11218972451E-01  0.12987949877E-01 -0.15901474815E-01  0.10205332249E+01  0.10202649920E+01 0.  0.
     999903    2    3    3    0    0 -0.11323402257E+00 -0.56551932300E-01  0.10916296841E-01  0.12865681188E+00  0.20330882696E-01 0.  0.
         14    1    1    2    0    0 -0.11218972451E-01 -0.12987949877E-01  0.15901474815E-01  0.23396775123E-01  0.00000000000E+00 0.  1.
     999901    1    3    3    0    0  0.12445299503E+00  0.69539882176E-01 -0.26817771656E-01  0.89187641300E+00  0.88000000000E+00 0.  1.
        -11    1    4    4    0    0 -0.53684084470E-01 -0.25485483333E-01  0.15233507781E-01  0.61349911707E-01  0.51100000000E-03 0.  1.
         11    1    4    4    0    0 -0.59549938105E-01 -0.31066448967E-01 -0.43172109405E-02  0.67306900174E-01  0.51100000000E-03 0. -1.
</event>
<event>
 8    1  0.1066842E+005  0.1043930E+01  0.7957747E-01            NaN
         13   -1    0    0    0    0  0.00000000000E+00  0.00000000000E+00  0.74505805969E-08  0.10566000000E+00  0.10566000000E+00 0. -1.
     999900   -1    0    0    0    0 -0.00000000000E+00 -0.00000000000E+00 -0.74505805969E-08  0.93827000000E+00  0.93827000000E+00 0.  1.
     999902    2    1    2    0    0 -0.10229982543E-01  0.19710327731E-01 -0.64708099597E-02  0.10207994803E+01  0.10205373868E+01 0.  0.
     999903    2    3    3    0    0  0.99310430542E-01 -0.76334798478E-01  0.20541878828E-01  0.12841309885E+00  0.19452303124E-01 0.  0.
         14    1    1    2    0    0  0.10229982543E-01 -0.19710327731E-01  0.64708099597E-02  0.23130519744E-01  0.00000000000E+00 0. -1.
     999901    1    3    3    0    0 -0.10954041308E+00  0.96045126210E-01 -0.27012688787E-01  0.89238638141E+00  0.88000000000E+00 0. -1.
        -11    1    4    4    0    0  0.49207390264E-01 -0.40911678713E-01  0.96250659605E-03  0.64002501917E-01  0.51100000000E-03 0.  1.
         11    1    4    4    0    0  0.50103040278E-01 -0.35423119766E-01  0.19579372232E-01  0.64410596931E-01  0.51100000000E-03 0. -1.
</event>
<event>
 8    1  0.1066842E+005  0.1043930E+01  0.7957747E-01            NaN
         13   -1    0    0    0    0  0.00000000000E+00  0.00000000000E+00  0.74505805969E-08  0.10566000000E+00  0.10566000000E+00 0.  1.
     999900   -1    0    0    0    0 -0.00000000000E+00 -0.00000000000E+00 -0.74505805969E-08  0.93827000000E+00  0.93827000000E+00 0. -1.
     999902    2    1    2    0    0 -0.18649642511E-01 -0.13342978710E-01 -0.50090533826E-02  0.10204579983E+01  0.10201880177E+01 0.  0.
     999903    2    3    3    0    0  0.54335442342E-01 -0.73092280783E-01 -0.92120072660E-01  0.13114077068E+00  0.20419895786E-01 0.  0.
         14    1    1    2    0    0  0.18649642511E-01  0.13342978710E-01  0.50090533826E-02  0.23472001671E-01  0.00000000000E+00 0.  1.
     999901    1    3    3    0    0 -0.72985084853E-01  0.59749302073E-01  0.87111019277E-01  0.88931722765E+00  0.88000000000E+00 0.  1.
        -11    1    4    4    0    0  0.34663517353E-01 -0.35049320350E-01 -0.38720091205E-01  0.62685890568E-01  0.51100000000E-03 0. -1.
         11    1    4    4    0    0  0.19671924988E-01 -0.38042960433E-01 -0.53399981455E-01  0.68454880115E-01  0.51100000000E-03 0.  1.
</event>
<event>
 8    1  0.1066842E+005  0.1043930E+01  0.7957747E-01            NaN
         13   -1    0    0    0    0  0.00000000000E+00  0.00000000000E+00  0.74505805969E-08  0.10566000000E+00  0.10566000000E+00 0. -1.
     999900   -1    0    0    0    0 -0.00000000000E+00 -0.00000000000E+00 -0.74505805969E-08  0.93827000000E+00  0.93827000000E+00 0. -1.
     999902    2    1    2    0    0 -0.69450185725E-02 -0.15378064637E-01 -0.17352390554E-01  0.10197262066E+01  0.10194389206E+01 0.  0.
     999903    2    3    3    0    0  0.12436731852E+00  0.16178653787E-01 -0.24919412967E-01  0.12939142906E+00  0.19803686920E-01 0.  0.
         14    1    1    2    0    0  0.69450185725E-02  0.15378064637E-01  0.17352390554E-01  0.24203793357E-01  0.00000000000E+00 0. -1.
     999901    1    3    3    0    0 -0.13131233710E+00 -0.31556718424E-01  0.75670224139E-02  0.89033477759E+00  0.88000000000E+00 0. -1.
        -11    1    4    4    0    0  0.72741863187E-01  0.58878364299E-02 -0.23701459443E-01  0.76733731687E-01  0.51100000000E-03 0.  1.
         11    1    4    4    0    0  0.51625455336E-01  0.10290817357E-01 -0.12179535240E-02  0.52657697370E-01  0.51100000000E-03 0. -1.
</event>
<event>
 8    1  0.1066842E+005  0.1043930E+01  0.7957747E-01            NaN
         13   -1    0    0    0    0  0.00000000000E+00  0.00000000000E+00  0.74505805969E-08  0.10566000000E+00  0.10566000000E+00 0.  1.
     999900   -1    0    0    0    0 -0.00000000000E+00 -0.00000000000E+00 -0.74505805969E-08  0.93827000000E+00  0.93827000000E+00 0.  1.
     999902    2    1    2    0    0 -0.29319552170E-02 -0.14874924489E-01  0.18729852349E-01  0.10198329647E+01  0.10195482376E+01 0.  0.
     999903    2    3    3    0    0 -0.70436317470E-01  0.78588659739E-01  0.74239313663E-01  0.13057845628E+00  0.20045081509E-01 0.  0.
         14    1    1    2    0    0  0.29319552170E-02  0.14874924489E-01 -0.18729852349E-01  0.24097035273E-01  0.00000000000E+00 0. -1.
     999901    1    3    3    0    0  0.67504362253E-01 -0.93463584228E-01 -0.55509461314E-01  0.88925450845E+00  0.88000000000E+00 0. -1.
        -11    1    4    4    0    0 -0.64849233453E-01  0.61274769564E-01  0.61780830802E-01  0.10852259046E+00  0.51100000000E-03 0.  1.
         11    1    4    4    0    0 -0.55870840162E-02  0.17313890175E-01  0.12458482861E-01  0.22055865819E-01  0.51100000000E-03 0. -1.
</event>
<event>
 8    1  0.1066842E+005  0.1043930E+01  0.7957747E-01            NaN
         13   -1    0    0    0    0  0.00000000000E+00  0.00000000000E+00  0.74505805969E-08  0.10566000000E+00  0.10566000000E+00 0. -1.
     999900   -1    0    0    0    0 -0.00000000000E+00 -0.00000000000E+00 -0.74505805969E-08  0.93827000000E+00  0.93827000000E+00 0.  1.
     999902    2    1    2    0    0  0.38878100964E-02  0.21090466570E-01  0.31293668768E-02  0.10222570725E+01  0.10220273023E+01 0.  0.
     999903    2    3    3    0    0  0.12112558945E+00 -0.45244835225E-01  0.17387497987E-01  0.13189289791E+00  0.19362538527E-01 0.  0.
         14    1    1    2    0    0 -0.38878100964E-02 -0.21090466570E-01 -0.31293668768E-02  0.21672927456E-01  0.00000000000E+00 0.  1.
     999901    1    3    3    0    0 -0.11723777935E+00  0.66335301795E-01 -0.14258131111E-01  0.89036417464E+00  0.88000000000E+00 0.  1.
        -11    1    4    4    0    0  0.10756123896E+00 -0.42721216078E-01  0.98282553519E-02  0.11615239195E+00  0.51100000000E-03 0. -1.
         11    1    4    4    0    0  0.13564350486E-01 -0.25236191471E-02  0.75592426354E-02  0.15740505962E-01  0.51100000000E-03 0.  1.
</event>
<event>
 8    1  0.1066842E+005  0.1043930E+01  0.7957747E-01            NaN
         13   -1    0    0    0    0  0.00000000000E+00  0.00000000000E+00  0.74505805969E-08  0.10566000000E+00  0.10566000000E+00 0.  1.
     999900   -1    0    0    0    0 -0.00000000000E+00 -0.00000000000E+00 -0.74505805969E-08  0.93827000000E+00  0.93827000000E+00 0.  1.
     999902    2    1    2    0    0 -0.25730496684E-01  0.69425884445E-02  0.43249911457E-02  0.10169306752E+01  0.10165721984E+01 0.  0.
     999903    2    3    3    0    0 -0.12805568967E+00 -0.14801498980E-01 -0.11710419351E-01  0.13058966581E+00  0.17296903322E-01 0.  0.
         14    1    1    2    0    0  0.25730496684E-01 -0.69425884445E-02 -0.43249911457E-02  0.26999324849E-01  0.00000000000E+00 0. -1.
     999901    1    3    3    0    0  0.10232519299E+00  0.21744087424E-01  0.16035410496E-01  0.88634100935E+00  0.88000000000E+00 0.  1.
        -11    1    4    4    0    0 -0.55079813804E-01  0.21990817314E-02 -0.55724137618E-02  0.55406992025E-01  0.51100000000E-03 0.  1.
         11    1    4    4    0    0 -0.72975875867E-01 -0.17000580711E-01 -0.61380055889E-02  0.75182673780E-01  0.51100000000E-03 0. -1.
</event>
<event>
 8    1  0.1066842E+005  0.1043930E+01  0.7957747E-01            NaN
         13   -1    0    0    0    0  0.00000000000E+00  0.00000000000E+00  0.74505805969E-08  0.10566000000E+00  0.10566000000E+00 0.  1.
     999900   -1    0    0    0    0 -0.00000000000E+00 -0.00000000000E+00 -0.74505805969E-08  0.93827000000E+00  0.93827000000E+00 0.  1.
     999902    2    1    2    0    0 -0.91458546754E-02  0.34715216607E-02 -0.21851302125E-01  0.10199888738E+01  0.10197078626E+01 0.  0.
     999903    2    3    3    0    0  0.61371124970E-01  0.94992203251E-01 -0.63978057325E-01  0.13143761297E+00  0.19817180051E-01 0.  0.
         14    1    1    2    0    0  0.91458546754E-02 -0.34715216607E-02  0.21851302125E-01  0.23941126225E-01  0.00000000000E+00 0.  1.
     999901    1    3    3    0    0 -0.70516979645E-01 -0.91520681590E-01  0.42126755200E-01  0.88855126081E+00  0.88000000000E+00 0. -1.
        -11    1    4    4    0    0  0.51351248025E-01  0.73786825191E-01 -0.41749074994E-01  0.99119587516E-01  0.51100000000E-03 0.  1.
         11    1    4    4    0    0  0.10019876945E-01  0.21205378060E-01 -0.22228982331E-01  0.32318025452E-01  0.51100000000E-03 0. -1.
</event>
<event>
 8    1  0.1066842E+005  0.1043930E+01  0.7957747E-01            NaN
         13   -1    0    0    0    0  0.00000000000E+00  0.00000000000E+00  0.74505805969E-08  0.10566000000E+00  0.10566000000E+00 0. -1.
     999900   -1    0    0    0    0 -0.00000000000E+00 -0.00000000000E+00 -0.74505805969E-08  0.93827000000E+00  0.93827000000E+00 0. -1.
     999902    2    1    2    0    0  0.10942472848E-01 -0.19787473368E-01 -0.37901082547E-02  0.10210030130E+01  0.10207455637E+01 0.  0.
     999903    2    3    3    0    0  0.11770774723E+00 -0.55057969279E-01  0.22623589361E-01  0.13345554092E+00  0.20299282443E-01 0.  0.
         14    1    1    2    0    0 -0.10942472848E-01  0.19787473368E-01  0.37901082547E-02  0.22926987044E-01  0.00000000000E+00 0. -1.
     999901    1    3    3    0    0 -0.10676527438E+00  0.35270495911E-01 -0.26413697616E-01  0.88754747204E+00  0.88000000000E+00 0.  1.
        -11    1    4    4    0    0  0.49933275522E-01 -0.15212396848E-01  0.15791754618E-01  0.54537965282E-01  0.51100000000E-03 0.  1.
         11    1    4    4    0    0  0.67774471708E-01 -0.39845572431E-01  0.68318347429E-02  0.78917575638E-01  0.51100000000E-03 0. -1.
</event>
<event>
 8    1  0.1066842E+005  0.1043930E+01  0.7957747E-01            NaN
         13   -1    0    0    0    0  0.00000000000E+00  0.00000000000E+00  0.74505805969E-08  0.10566000000E+00  0.10566000000E+00 0. -1.
     999900   -1    0    0    0    0 -0.00000000000E+00 -0.00000000000E+00 -0.74505805969E-08  0.93827000000E+00  0.93827000000E+00 0. -1.
     999902    2    1    2    0    0 -0.18904421434E-01  0.15753239563E-01  0.16722416230E-02  0.10192654891E+01  0.10189670255E+01 0.  0.
     999903    2    3    3    0    0  0.11116342566E+00  0.31817081164E-01  0.51654174494E-01  0.12815725466E+00  0.19659458837E-01 0.  0.
         14    1    1    2    0    0  0.18904421434E-01 -0.15753239563E-01 -0.16722416230E-02  0.24664510912E-01  0.00000000000E+00 0. -1.
     999901    1    3    3    0    0 -0.13006784709E+00 -0.16063841601E-01 -0.49981932871E-01  0.89110823443E+00  0.88000000000E+00 0. -1.
        -11    1    4    4    0    0  0.87446253033E-01  0.16826794018E-01  0.36269299842E-01  0.96154622346E-01  0.51100000000E-03 0. -1.
         11    1    4    4    0    0  0.23717172623E-01  0.14990287145E-01  0.15384874651E-01  0.32002632313E-01  0.51100000000E-03 0.  1.
</event>
<event>
 8    1  0.1066842E+005  0.1043930E+01  0.7957747E-01            NaN
         13   -1    0    0    0    0  0.00000000000E+00  0.00000000000E+00  0.74505805969E-08  0.10566000000E+00  0.10566000000E+00 0.  1.
     999900   -1    0    0    0    0 -0.00000000000E+00 -0.00000000000E+00 -0.74505805969E-08  0.93827000000E+00  0.93827000000E+00 0.  1.
     999902    2    1    2    0    0  0.18529912102E-01 -0.11273691495E-01  0.10560741225E-01  0.10198056758E+01  0.10195202957E+01 0.  0.
     999903    2    3    3    0    0 -0.39861750810E-01 -0.11524119007E+00  0.43968411404E-01  0.13113537728E+00  0.19843762403E-01 0.  0.
         14    1    1    2    0    0 -0.18529912102E-01  0.11273691495E-01 -0.10560741225E-01  0.24124324191E-01  0.00000000000E+00 0. -1.
     999901    1    3    3    0    0  0.58391662912E-01  0.10396749858E+00 -0.33407670179E-01  0.88867029853E+00  0.88000000000E+00 0. -1.
        -11    1    4    4    0    0 -0.18943494718E-01 -0.82388966909E-01  0.28286594422E-01  0.89147015684E-01  0.51100000000E-03 0.  1.
         11    1    4    4    0    0 -0.20918256092E-01 -0.32852223164E-01  0.15681816982E-01  0.41988361597E-01  0.51100000000E-03 0. -1.
</event>
<event>
 8    1  0.1066842E+005  0.1043930E+01  0.7957747E-01            NaN
         13   -1    0    0    0    0  0.00000000000E+00  0.00000000000E+00  0.74505805969E-08  0.10566000000E+00  0.10566000000E+00 0. -1.
     999900   -1    0    0    0    0 -0.00000000000E+00 -0.00000000000E+00 -0.74505805969E-08  0.93827000000E+00  0.93827000000E+00 0. -1.
     999902    2    1    2    0    0  0.16849481667E-01  0.13609473323E-01  0.74736613425E-02  0.10210175927E+01  0.10207604744E+01 0.  0.
     999903    2    3    3    0    0 -0.12084834278E+00  0.34824892404E-01 -0.23592666684E-01  0.12951554465E+00  0.20014177471E-01 0.  0.
         14    1    1    2    0    0 -0.16849481667E-01 -0.13609473323E-01 -0.74736613425E-02  0.22912407347E-01  0.00000000000E+00 0. -1.
     999901    1    3    3    0    0  0.13769782445E+00 -0.21215419082E-01  0.31066328026E-01  0.89150204801E+00  0.88000000000E+00 0. -1.
        -11    1    4    4    0    0 -0.46413683016E-01  0.14390126413E-01 -0.19034093106E-01  0.52190646008E-01  0.51100000000E-03 0. -1.
         11    1    4    4    0    0 -0.74434659764E-01  0.20434765991E-01 -0.45585735780E-02  0.77324898638E-01  0.51100000000E-03 0.  1.
</event>
<event>
 8    1  0.1066842E+005  0.1043930E+01  0.7957747E-01            NaN
         13   -1    0    0    0    0  0.00000000000E+00  0.00000000000E+00  0.74505805969E-08  0.10566000000E+00  0.10566000000E+00 0.  1.
     999900   -1    0    0    0    0 -0.00000000000E+00 -0.00000000000E+00 -0.74505805969E-08  0.93827000000E+00  0.93827000000E+00 0.  1.
     999902    2    1    2    0    0  0.16346864915E-01  0.15481554703E-01 -0.56846878997E-02  0.10207090137E+01  0.10204448424E+01 0.  0.
     999903    2    3    3    0    0 -0.11097726027E+00  0.64681880702E-01  0.37300441901E-02  0.13013574769E+00  0.20535374584E-01 0.  0.
         14    1    1    2    0    0 -0.16346864915E-01 -0.15481554703E-01  0.56846878997E-02  0.23220986308E-01  0.00000000000E+00 0. -1.
     999901    1    3    3    0    0  0.12732412519E+00 -0.49200325999E-01 -0.94147320898E-02  0.89057326600E+00  0.88000000000E+00 0.  1.
        -11    1    4    4    0    0 -0.34144770826E-01  0.96058083389E-02  0.29656595158E-02  0.35597657029E-01  0.51100000000E-03 0.  1.
         11    1    4    4    0    0 -0.76832489445E-01  0.55076072363E-01  0.76438467427E-03  0.94538090663E-01  0.51100000000E-03 0. -1.
</event>
<event>
 8    1  0.1066842E+005  0.1043930E+01  0.7957747E-01            NaN
         13   -1    0    0    0    0  0.00000000000E+00  0.00000000000E+00  0.74505805969E-08  0.10566000000E+00  0.10566000000E+00 0.  1.
     999900   -1    0    0    0    0 -0.00000000000E+00 -0.00000000000E+00 -0.74505805969E-08  0.93827000000E+00  0.93827000000E+00 0.  1.
     999902    2    1    2    0    0 -0.11572946496E-01 -0.19538902388E-01 -0.70943961180E-02  0.10201385676E+01  0.10198611008E+01 0.  0.
     999903    2    3    3    0    0 -0.10027755805E+00  0.63965681270E-01  0.49091310183E-01  0.12997096703E+00  0.18311157974E-01 0.  0.
         14    1    1    2    0    0  0.11572946496E-01  0.19538902388E-01  0.70943961180E-02  0.23791432353E-01  0.00000000000E+00 0.  1.
     999901    1    3    3    0    0  0.88704611550E-01 -0.83504583658E-01 -0.56185706301E-01  0.89016760062E+00  0.88000000000E+00 0. -1.
        -11    1    4    4    0    0 -0.34068751065E-01  0.16434487331E-01  0.78864841070E-02  0.38642333335E-01  0.51100000000E-03 0.  1.
         11    1    4    4    0    0 -0.66208806981E-01  0.47531193939E-01  0.41204826076E-01  0.91328633692E-01  0.51100000000E-03 0. -1.
</event>
<event>
 8    1  0.1066842E+005  0.1043930E+01  0.7957747E-01            NaN
         13   -1    0    0    0    0  0.00000000000E+00  0.00000000000E+00  0.74505805969E-08  0.10566000000E+00  0.10566000000E+00 0. -1.
     999900   -1    0    0    0    0 -0.00000000000E+00 -0.00000000000E+00 -0.74505805969E-08  0.93827000000E+00  0.93827000000E+00 0.  1.
     999902    2    1    2    0    0 -0.42438994097E-02  0.17176136170E-01  0.16535656939E-01  0.10197130992E+01  0.10194254982E+01 0.  0.
     999903    2    3    3    0    0 -0.73765642386E-01  0.72416132668E-01  0.77905155623E-01  0.13311795744E+00  0.31075891812E-01 0.  0.
         14    1    1    2    0    0  0.42438994097E-02 -0.17176136170E-01 -0.16535656939E-01  0.24216900841E-01  0.00000000000E+00 0.  1.
     999901    1    3    3    0    0  0.69521742976E-01 -0.55239996498E-01 -0.61369498684E-01  0.88659514172E+00  0.88000000000E+00 0.  1.
        -11    1    4    4    0    0 -0.88317532746E-02  0.27024795357E-01  0.16466185939E-01  0.32859333992E-01  0.51100000000E-03 0.  1.
         11    1    4    4    0    0 -0.64933889112E-01  0.45391337311E-01  0.61438969684E-01  0.10025862344E+00  0.51100000000E-03 0. -1.
</event>
<event>
 8    1  0.1066842E+005  0.1043930E+01  0.7957747E-01            NaN
         13   -1    0    0    0    0  0.00000000000E+00  0.00000000000E+00  0.74505805969E-08  0.10566000000E+00  0.10566000000E+00 0. -1.
     999900   -1    0    0    0    0 -0.00000000000E+00 -0.00000000000E+00 -0.74505805969E-08  0.93827000000E+00  0.93827000000E+00 0. -1.
     999902    2    1    2    0    0  0.16991261768E-01  0.88514194649E-03 -0.16950176245E-01  0.10199134447E+01  0.10196306389E+01 0.  0.
     999903    2    3    3    0    0 -0.83904340430E-01 -0.92078611261E-01  0.26856162096E-01  0.12820655497E+00  0.14044867379E-01 0.  0.
         14    1    1    2    0    0 -0.16991261768E-01 -0.88514194649E-03  0.16950176245E-01  0.24016555279E-01  0.00000000000E+00 0. -1.
     999901    1    3    3    0    0  0.10089560220E+00  0.92963753208E-01 -0.43806338340E-01  0.89170688975E+00  0.88000000000E+00 0.  1.
        -11    1    4    4    0    0 -0.56501463244E-01 -0.68277071902E-01  0.14154403453E-01  0.89748438172E-01  0.51100000000E-03 0. -1.
         11    1    4    4    0    0 -0.27402877186E-01 -0.23801539359E-01  0.12701758643E-01  0.38458116797E-01  0.51100000000E-03 0.  1.
</event>
<event>
 8    1  0.1066842E+005  0.1043930E+01  0.7957747E-01            NaN
         13   -1    0    0    0    0  0.00000000000E+00  0.00000000000E+00  0.74505805969E-08  0.10566000000E+00  0.10566000000E+00 0. -1.
     999900   -1    0    0    0    0 -0.00000000000E+00 -0.00000000000E+00 -0.74505805969E-08  0.93827000000E+00  0.93827000000E+00 0.  1.
     999902    2    1    2    0    0  0.47437015089E-02 -0.10963522959E-01 -0.20141880442E-01  0.10205121246E+01  0.10202434021E+01 0.  0.
     999903    2    3    3    0    0  0.32834007226E-01 -0.96815405103E-01 -0.83557480370E-01  0.13361802200E+00  0.20509231626E-01 0.  0.
         14    1    1    2    0    0 -0.47437015089E-02  0.10963522959E-01  0.20141880442E-01  0.23417875382E-01  0.00000000000E+00 0.  1.
     999901    1    3    3    0    0 -0.28090305717E-01  0.85851882144E-01  0.63415599927E-01  0.88689410262E+00  0.88000000000E+00 0. -1.
        -11    1    4    4    0    0  0.30484748429E-01 -0.70555857658E-01 -0.53583434188E-01  0.93695754851E-01  0.51100000000E-03 0. -1.
         11    1    4    4    0    0  0.23492587971E-02 -0.26259547445E-01 -0.29974046181E-01  0.39922267150E-01  0.51100000000E-03 0.  1.
</event>
<event>
 8    1  0.1066842E+005  0.1043930E+01  0.7957747E-01            NaN
         13   -1    0    0    0    0  0.00000000000E+00  0.00000000000E+00  0.74505805969E-08  0.10566000000E+00  0.10566000000E+00 0. -1.
     999900   -1    0    0    0    0 -0.00000000000E+00 -0.00000000000E+00 -0.74505805969E-08  0.93827000000E+00  0.93827000000E+00 0. -1.
     999902    2    1    2    0    0  0.67466792426E-02 -0.33816963095E-02  0.22337478898E-01  0.10203521181E+01  0.10200796677E+01 0.  0.
     999903    2    3    3    0    0  0.84596636185E-01 -0.23431400963E-01 -0.92974529042E-01  0.12919586603E+00  0.18484786816E-01 0.  0.
         14    1    1    2    0    0 -0.67466792426E-02  0.33816963095E-02 -0.22337478898E-01  0.23577881887E-01  0.00000000000E+00 0.  1.
     999901    1    3    3    0    0 -0.77849956942E-01  0.20049704654E-01  0.11531200794E+00  0.89115625208E+00  0.88000000000E+00 0.  1.
        -11    1    4    4    0    0  0.79593362643E-01 -0.22446442662E-01 -0.79233027811E-01  0.11452982137E+00  0.51100000000E-03 0.  1.
         11    1    4    4    0    0  0.50032735416E-02 -0.98495830119E-03 -0.13741501231E-01  0.14666044664E-01  0.51100000000E-03 0. -1.
</event>
<event>
 8    1  0.1066842E+005  0.1043930E+01  0.7957747E-01            NaN
         13   -1    0    0    0    0  0.00000000000E+00  0.00000000000E+00  0.74505805969E-08  0.10566000000E+00  0.10566000000E+00 0.  1.
     999900   -1    0    0    0    0 -0.00000000000E+00 -0.00000000000E+00 -0.74505805969E-08  0.93827000000E+00  0.93827000000E+00 0.  1.
     999902    2    1    2    0    0  0.99408110633E-02 -0.17660759771E-01 -0.12232380371E-01  0.10202582174E+01  0.10199835670E+01 0.  0.
     999903    2    3    3    0    0 -0.29502051302E-01 -0.10788602526E+00 -0.69043967340E-01  0.13294547982E+00  0.19941557098E-01 0.  0.
         14    1    1    2    0    0 -0.99408110633E-02  0.17660759771E-01  0.12232380371E-01  0.23671782565E-01  0.00000000000E+00 0. -1.
     999901    1    3    3    0    0  0.39442862365E-01  0.90225265492E-01  0.56811586969E-01  0.88731273762E+00  0.88000000000E+00 0. -1.
        -11    1    4    4    0    0  0.30114688396E-02 -0.90989434313E-02 -0.53112937573E-02  0.10969534107E-01  0.51100000000E-03 0.  1.
         11    1    4    4    0    0 -0.32513520142E-01 -0.98787081832E-01 -0.63732673583E-01  0.12197594571E+00  0.51100000000E-03 0. -1.
</event>
<event>
 8    1  0.1066842E+005  0.1043930E+01  0.7957747E-01            NaN
         13   -1    0    0    0    0  0.00000000000E+00  0.00000000000E+00  0.74505805969E-08  0.10566000000E+00  0.10566000000E+00 0.  1.
     999900   -1    0    0    0    0 -0.00000000000E+00 -0.00000000000E+00 -0.74505805969E-08  0.93827000000E+00  0.93827000000E+00 0.  1.
     999902    2    1    2    0    0  0.14408902066E-01  0.14191973172E-02  0.20514873116E-01  0.10188204281E+01  0.10185109593E+01 0.  0.
     999903    2    3    3    0    0 -0.59241797346E-01 -0.77512853278E-01  0.83472159262E-01  0.12999068404E+00  0.20301319858E-01 0.  0.
         14    1    1    2    0    0 -0.14408902066E-01 -0.14191973172E-02 -0.20514873116E-01  0.25109571855E-01  0.00000000000E+00 0. -1.
     999901    1    3    3    0    0  0.73650699411E-01  0.78932050596E-01 -0.62957286146E-01  0.88882974411E+00  0.88000000000E+00 0.  1.
        -11    1    4    4    0    0 -0.41321947192E-01 -0.46312036766E-01  0.63667612170E-01  0.88916444090E-01  0.51100000000E-03 0.  1.
         11    1    4    4    0    0 -0.17919850154E-01 -0.31200816512E-01  0.19804547092E-01  0.41074239945E-01  0.51100000000E-03 0. -1.
</event>
<event>
 8    1  0.1066842E+005  0.1043930E+01  0.7957747E-01            NaN
         13   -1    0    0    0    0  0.00000000000E+00  0.00000000000E+00  0.74505805969E-08  0.10566000000E+00  0.10566000000E+00 0.  1.
     999900   -1    0    0    0    0 -0.00000000000E+00 -0.00000000000E+00 -0.74505805969E-08  0.93827000000E+00  0.93827000000E+00 0.  1.
     999902    2    1    2    0    0 -0.37285862388E-02 -0.22814440909E-01  0.12858308528E-02  0.10207771507E+01  0.10205145452E+01 0.  0.
     999903    2    3    3    0    0 -0.11343363193E+00  0.23637563216E-01 -0.56717835905E-01  0.13085726044E+00  0.21926843218E-01 0.  0.
         14    1    1    2    0    0  0.37285862388E-02  0.22814440909E-01 -0.12858308528E-02  0.23152849291E-01  0.00000000000E+00 0.  1.
     999901    1    3    3    0    0  0.10970504569E+00 -0.46452004125E-01  0.58003666758E-01  0.88991989027E+00  0.88000000000E+00 0. -1.
        -11    1    4    4    0    0 -0.63084947135E-02 -0.27454252824E-02 -0.21364838886E-03  0.69022628294E-02  0.51100000000E-03 0.  1.
         11    1    4    4    0    0 -0.10712513721E+00  0.26382988499E-01 -0.56504187516E-01  0.12395499761E+00  0.51100000000E-03 0. -1.
</event>
<event>
 8    1  0.1066842E+005  0.1043930E+01  0.7957747E-01            NaN
         13   -1    0    0    0    0  0.00000000000E+00  0.00000000000E+00  0.74505805969E-08  0.10566000000E+00  0.10566000000E+00 0.  1.
     999900   -1    0    0    0    0 -0.00000000000E+00 -0.00000000000E+00 -0.74505805969E-08  0.93827000000E+00  0.93827000000E+00 0. -1.
     999902    2    1    2    0    0 -0.80951378425E-02 -0.17257076468E-01 -0.13865722865E-01  0.10203589114E+01  0.10200866198E+01 0.  0.
     999903    2    3    3    0    0 -0.96890224564E-02  0.10459105936E+00 -0.73783566058E-01  0.12994347099E+00  0.20202083540E-01 0.  0.
         14    1    1    2    0    0  0.80951378425E-02  0.17257076468E-01  0.13865722865E-01  0.23571088551E-01  0.00000000000E+00 0.  1.
     999901    1    3    3    0    0  0.15938846139E-02 -0.12184813583E+00  0.59917843193E-01  0.89041544046E+00  0.88000000000E+00 0.  1.
        -11    1    4    4    0    0  0.65637254639E-03  0.64477443632E-01 -0.35889229818E-01  0.73797489796E-01  0.51100000000E-03 0.  1.
         11    1    4    4    0    0 -0.10345395003E-01  0.40113615726E-01 -0.37894336240E-01  0.56145981196E-01  0.51100000000E-03 0. -1.
</event>
<event>
 8    1  0.1066842E+005  0.1043930E+01  0.7957747E-01            NaN
         13   -1    0    0    0    0  0.00000000000E+00  0.00000000000E+00  0.74505805969E-08  0.10566000000E+00  0.10566000000E+00 0.  1.
     999900   -1    0    0    0    0 -0.00000000000E+00 -0.00000000000E+00 -0.74505805969E-08  0.93827000000E+00  0.93827000000E+00 0.  1.
     999902    2    1    2    0    0 -0.24617219747E-03  0.95444671101E-02 -0.21868390995E-01  0.10200682319E+01  0.10197891026E+01 0.  0.
     999903    2    3    3    0    0 -0.75230455750E-01 -0.75492967580E-01  0.68416949548E-01  0.12821317034E+00  0.19973192935E-01 0.  0.
         14    1    1    2    0    0  0.24617219747E-03 -0.95444671101E-02  0.21868390995E-01  0.23861768122E-01  0.00000000000E+00 0.  1.
     999901    1    3    3    0    0  0.74984283553E-01  0.85037434690E-01 -0.90285340544E-01  0.89185506154E+00  0.88000000000E+00 0.  1.
        -11    1    4    4    0    0 -0.51862077509E-01 -0.42919882547E-01  0.51212416941E-01  0.84585839072E-01  0.51100000000E-03 0. -1.
         11    1    4    4    0    0 -0.23368378241E-01 -0.32573085033E-01  0.17204532607E-01  0.43627331266E-01  0.51100000000E-03 0.  1.
</event>
<event>
 8    1  0.1066842E+005  0.1043930E+01  0.7957747E-01            NaN
         13   -1    0    0    0    0  0.00000000000E+00  0.00000000000E+00  0.74505805969E-08  0.10566000000E+00  0.10566000000E+00 0. -1.
     999900   -1    0    0    0    0 -0.00000000000E+00 -0.00000000000E+00 -0.74505805969E-08  0.93827000000E+00  0.93827000000E+00 0.  1.
     999902    2    1    2    0    0  0.44362137408E-02  0.12747198140E-02 -0.26169645839E-01  0.10173564179E+01  0.10170093047E+01 0.  0.
     999903    2    3    3    0    0  0.80713964498E-01 -0.97492734412E-01 -0.11167936890E-01  0.12842539888E+00  0.18675731202E-01 0.  0.
         14    1    1    2    0    0 -0.44362137408E-02 -0.12747198140E-02  0.26169645839E-01  0.26573582113E-01  0.00000000000E+00 0. -1.
     999901    1    3    3    0    0 -0.76277750758E-01  0.98767454226E-01 -0.15001708949E-01  0.88893101900E+00  0.88000000000E+00 0. -1.
        -11    1    4    4    0    0  0.12770545339E-01 -0.26647956930E-01 -0.57982738668E-02  0.30117794368E-01  0.51100000000E-03 0.  1.
         11    1    4    4    0    0  0.67943419160E-01 -0.70844777483E-01 -0.53696630234E-02  0.98307604516E-01  0.51100000000E-03 0. -1.
</event>
<event>
 8    1  0.1066842E+005  0.1043930E+01  0.7957747E-01            NaN
         13   -1    0    0    0    0  0.00000000000E+00  0.00000000000E+00  0.74505805969E-08  0.10566000000E+00  0.10566000000E+00 0.  1.
     999900   -1    0    0    0    0 -0.00000000000E+00 -0.00000000000E+00 -0.74505805969E-08  0.93827000000E+00  0.93827000000E+00 0. -1.
     999902    2    1    2    0    0  0.32331101549E-02  0.34199083457E-02  0.22332348633E-01  0.10211071481E+01  0.10208520585E+01 0.  0.
     999903    2    3    3    0    0 -0.30331121517E-01  0.10061273832E+00  0.79353052129E-01  0.13328714128E+00  0.20631410610E-01 0.  0.
         14    1    1    2    0    0 -0.32331101549E-02 -0.34199083457E-02 -0.22332348633E-01  0.22822851921E-01  0.00000000000E+00 0. -1.
     999901    1    3    3    0    0  0.33564231672E-01 -0.97192829973E-01 -0.57020703497E-01  0.88782000680E+00  0.88000000000E+00 0. -1.
        -11    1    4    4    0    0 -0.14692164643E-01  0.56654158553E-01  0.56418655181E-01  0.81295013111E-01  0.51100000000E-03 0. -1.
         11    1    4    4    0    0 -0.15638956874E-01  0.43958579766E-01  0.22934396949E-01  0.51992128169E-01  0.51100000000E-03 0.  1.
</event>
<event>
 8    1  0.1066842E+005  0.1043930E+01  0.7957747E-01            NaN
         13   -1    0    0    0    0  0.00000000000E+00  0.00000000000E+00  0.74505805969E-08  0.10566000000E+00  0.10566000000E+00 0.  1.
     999900   -1    0    0    0    0 -0.00000000000E+00 -0.00000000000E+00 -0.74505805969E-08  0.93827000000E+00  0.93827000000E+00 0.  1.
     999902    2    1    2    0    0  0.16175565517E-01 -0.13892788764E-01 -0.97701755096E-02  0.10204754732E+01  0.10202058991E+01 0.  0.
     999903    2    3    3    0    0 -0.30127659934E-01 -0.39247339152E-01 -0.12066238973E+00  0.13194639368E+00  0.20060134275E-01 0.  0.
         14    1    1    2    0    0 -0.16175565517E-01  0.13892788764E-01  0.97701755096E-02  0.23454526832E-01  0.00000000000E+00 0. -1.
     999901    1    3    3    0    0  0.46303225451E-01  0.25354550388E-01  0.11089221422E+00  0.88852907948E+00  0.88000000000E+00 0. -1.
        -11    1    4    4    0    0 -0.16689426963E-01 -0.15114082310E-01 -0.77442766968E-01  0.80651197965E-01  0.51100000000E-03 0. -1.
         11    1    4    4    0    0 -0.13438232972E-01 -0.24133256842E-01 -0.43219622763E-01  0.51295195720E-01  0.51100000000E-03 0.  1.
</event>
<event>
 8    1  0.1066842E+005  0.1043930E+01  0.7957747E-01            NaN
         13   -1    0    0    0    0  0.00000000000E+00  0.00000000000E+00  0.74505805969E-08  0.10566000000E+00  0.10566000000E+00 0. -1.
     999900   -1    0    0    0    0 -0.00000000000E+00 -0.00000000000E+00 -0.74505805969E-08  0.93827000000E+00  0.93827000000E+00 0. -1.
     999902    2    1    2    0    0  0.57473899305E-03 -0.12750234728E-01 -0.30788951254E-01  0.10106004586E+01  0.10100507060E+01 0.  0.
     999903    2    3    3    0    0  0.94424394457E-01  0.34426219162E-01  0.61362968300E-01  0.11957557011E+00  0.20779130261E-01 0.  0.
         14    1    1    2    0    0 -0.57473899305E-03  0.12750234728E-01  0.30788951254E-01  0.33329541398E-01  0.00000000000E+00 0. -1.
     999901    1    3    3    0    0 -0.93849655464E-01 -0.47176453890E-01 -0.92151919554E-01  0.89102488849E+00  0.88000000000E+00 0. -1.
        -11    1    4    4    0    0  0.41912833201E-01  0.78622626595E-02  0.34637584519E-01  0.54941097035E-01  0.51100000000E-03 0.  1.
         11    1    4    4    0    0  0.52511561255E-01  0.26563956503E-01  0.26725383781E-01  0.64634473076E-01  0.51100000000E-03 0. -1.
</event>
<event>
 8    1  0.1066842E+005  0.1043930E+01  0.7957747E-01            NaN
         13   -1    0    0    0    0  0.00000000000E+00  0.00000000000E+00  0.74505805969E-08  0.10566000000E+00  0.10566000000E+00 0.  1.
     999900   -1    0    0    0    0 -0.00000000000E+00 -0.00000000000E+00 -0.74505805969E-08  0.93827000000E+00  0.93827000000E+00 0. -1.
     999902    2    1    2    0    0  0.88662727711E-02  0.15278899169E-01 -0.16368746584E-01  0.10198469890E+01  0.10195625972E+01 0.  0.
     999903    2    3    3    0    0  0.11291277478E-02  0.61665403984E-01  0.11130888167E+00  0.12939028149E+00  0.23415397252E-01 0.  0.
         14    1    1    2    0    0 -0.88662727711E-02 -0.15278899169E-01  0.16368746584E-01  0.24083010970E-01  0.00000000000E+00 0.  1.
     999901    1    3    3    0    0  0.77371450233E-02 -0.46386504815E-01 -0.12767762825E+00  0.89045670754E+00  0.88000000000E+00 0. -1.
        -11    1    4    4    0    0 -0.87821660828E-02  0.49353105289E-01  0.86141139752E-01  0.99666506518E-01  0.51100000000E-03 0. -1.
         11    1    4    4    0    0  0.99112938306E-02  0.12312298695E-01  0.25167741916E-01  0.29723774974E-01  0.51100000000E-03 0.  1.
</event>
<event>
 8    1  0.1066842E+005  0.1043930E+01  0.7957747E-01            NaN
         13   -1    0    0    0    0  0.00000000000E+00  0.00000000000E+00  0.74505805969E-08  0.10566000000E+00  0.10566000000E+00 0. -1.
     999900   -1    0    0    0    0 -0.00000000000E+00 -0.00000000000E+00 -0.74505805969E-08  0.93827000000E+00  0.93827000000E+00 0. -1.
     999902    2    1    2    0    0 -0.20970701245E-01 -0.10000909900E-01 -0.35289987093E-02  0.10204301629E+01  0.10201595341E+01 0.  0.
     999903    2    3    3    0    0  0.78401898439E-01 -0.31934623366E-01  0.95115986576E-01  0.12909025333E+00  0.21226510658E-01 0.  0.
         14    1    1    2    0    0  0.20970701245E-01  0.10000909900E-01  0.35289987093E-02  0.23499837051E-01  0.00000000000E+00 0.  1.
     999901    1    3    3    0    0 -0.99372599683E-01  0.21933713466E-01 -0.98644985285E-01  0.89133990962E+00  0.88000000000E+00 0. -1.
        -11    1    4    4    0    0  0.15338615300E-01 -0.16114583754E-01  0.24800016357E-01  0.33320487109E-01  0.51100000000E-03 0. -1.
         11    1    4    4    0    0  0.63063283139E-01 -0.15820039612E-01  0.70315970219E-01  0.95769766223E-01  0.51100000000E-03 0.  1.
</event>
<event>
 8    1  0.1066842E+005  0.1043930E+01  0.7957747E-01            NaN
         13   -1    0    0    0    0  0.00000000000E+00  0.00000000000E+00  0.74505805969E-08  0.10566000000E+00  0.10566000000E+00 0.  1.
     999900   -1    0    0    0    0 -0.00000000000E+00 -0.00000000000E+00 -0.74505805969E-08  0.93827000000E+00  0.93827000000E+00 0.  1.
     999902    2    1    2    0    0 -0.19038423071E-01  0.28389890534E-02 -0.16125390627E-01  0.10188192526E+01  0.10185097544E+01 0.  0.
     999903    2    3    3    0    0 -0.37593729748E-01 -0.12232401114E+00 -0.88387177594E-02  0.12973929466E+00  0.19434747956E-01 0.  0.
         14    1    1    2    0    0  0.19038423071E-01 -0.28389890534E-02  0.16125390627E-01  0.25110747396E-01  0.00000000000E+00 0.  1.
     999901    1    3    3    0    0  0.18555306677E-01  0.12516300019E+00 -0.72866728680E-02  0.88907995795E+00  0.88000000000E+00 0.  1.
        -11    1    4    4    0    0 -0.10283382076E-01 -0.51386983886E-01  0.43530622076E-02  0.52588785225E-01  0.51100000000E-03 0. -1.
         11    1    4    4    0    0 -0.27310347673E-01 -0.70937027255E-01 -0.13191779967E-01  0.77150509431E-01  0.51100000000E-03 0.  1.
</event>
<event>
 8    1  0.1066842E+005  0.1043930E+01  0.7957747E-01            NaN
         13   -1    0    0    0    0  0.00000000000E+00  0.00000000000E+00  0.74505805969E-08  0.10566000000E+00  0.10566000000E+00 0. -1.
     999900   -1    0    0    0    0 -0.00000000000E+00 -0.00000000000E+00 -0.74505805969E-08  0.93827000000E+00  0.93827000000E+00 0.  1.
     999902    2    1    2    0    0  0.18598581079E-02 -0.30933299326E-03  0.23692784161E-01  0.10201623165E+01  0.10198854098E+01 0.  0.
     999903    2    3    3    0    0 -0.56755180935E-01 -0.65063736059E-01 -0.92723095425E-01  0.12820855503E+00  0.19632138089E-01 0.  0.
         14    1    1    2    0    0 -0.18598581079E-02  0.30933299326E-03 -0.23692784161E-01  0.23767683530E-01  0.00000000000E+00 0.  1.
     999901    1    3    3    0    0  0.58615039043E-01  0.64754403066E-01  0.11641587959E+00  0.89195376144E+00  0.88000000000E+00 0. -1.
        -11    1    4    4    0    0 -0.28515836507E-01 -0.40217375244E-01 -0.64475462825E-01  0.81166105184E-01  0.51100000000E-03 0. -1.
         11    1    4    4    0    0 -0.28239344428E-01 -0.24846360815E-01 -0.28247632600E-01  0.47042449851E-01  0.51100000000E-03 0.  1.
</event>
<event>
 8    1  0.1066842E+005  0.1043930E+01  0.7957747E-01            NaN
         13   -1    0    0    0    0  0.00000000000E+00  0.00000000000E+00  0.74505805969E-08  0.10566000000E+00  0.10566000000E+00 0.  1.
     999900   -1    0    0    0    0 -0.00000000000E+00 -0.00000000000E+00 -0.74505805969E-08  0.93827000000E+00  0.93827000000E+00 0. -1.
     999902    2    1    2    0    0 -0.19941611206E-01 -0.16391058614E-02 -0.10041455390E-01  0.10215428306E+01  0.10212974931E+01 0.  0.
     999903    2    3    3    0    0  0.96921185654E-01 -0.58552199231E-01  0.59257210030E-01  0.12929941177E+00  0.19617458575E-01 0.  0.
         14    1    1    2    0    0  0.19941611206E-01  0.16391058614E-02  0.10041455390E-01  0.22387169358E-01  0.00000000000E+00 0.  1.
     999901    1    3    3    0    0 -0.11686279686E+00  0.56913093369E-01 -0.69298665420E-01  0.89224341887E+00  0.88000000000E+00 0. -1.
        -11    1    4    4    0    0  0.31426300082E-01 -0.23788437012E-01  0.11351891485E-01  0.41019856577E-01  0.51100000000E-03 0.  1.
         11    1    4    4    0    0  0.65494885571E-01 -0.34763762219E-01  0.47905318545E-01  0.88279555196E-01  0.51100000000E-03 0. -1.
</event>
<event>
 8    1  0.1066842E+005  0.1043930E+01  0.7957747E-01            NaN
         13   -1    0    0    0    0  0.00000000000E+00  0.00000000000E+00  0.74505805969E-08  0.10566000000E+00  0.10566000000E+00 0.  1.
     999900   -1    0    0    0    0 -0.00000000000E+00 -0.00000000000E+00 -0.74505805969E-08  0.93827000000E+00  0.93827000000E+00 0. -1.
     999902    2    1    2    0    0  0.20744512317E-01 -0.10548132529E-01  0.70076501388E-02  0.10196255755E+01  0.10193358667E+01 0.  0.
     999903    2    3    3    0    0  0.62935985003E-01  0.52271886850E-01 -0.99752853077E-01  0.12994907233E+00  0.15583367373E-01 0.  0.
         14    1    1    2    0    0 -0.20744512317E-01  0.10548132529E-01 -0.70076501388E-02  0.24304424527E-01  0.00000000000E+00 0. -1.
     999901    1    3    3    0    0 -0.42191472685E-01 -0.62820019379E-01  0.10676050322E+00  0.88967650315E+00  0.88000000000E+00 0.  1.
        -11    1    4    4    0    0  0.39125551553E-01  0.39418918631E-01 -0.59014854786E-01  0.81041187903E-01  0.51100000000E-03 0. -1.
         11    1    4    4    0    0  0.23810433450E-01  0.12852968219E-01 -0.40737998291E-01  0.48907884424E-01  0.51100000000E-03 0.  1.
</event>
<event>
 8    1  0.1066842E+005  0.1043930E+01  0.7957747E-01            NaN
         13   -1    0    0    0    0  0.00000000000E+00  0.00000000000E+00  0.74505805969E-08  0.10566000000E+00  0.10566000000E+00 0.  1.
     999900   -1    0    0    0    0 -0.00000000000E+00 -0.00000000000E+00 -0.74505805969E-08  0.93827000000E+00  0.93827000000E+00 0. -1.
     999902    2    1    2    0    0 -0.12725595317E-02  0.23461239143E-01  0.32239701716E-02  0.10202141164E+01  0.10199384296E+01 0.  0.
     999903    2    3    3    0    0 -0.67633004534E-01  0.78418419355E-01  0.80443972594E-01  0.13264049746E+00  0.19964895273E-01 0.  0.
         14    1    1    2    0    0  0.12725595317E-02 -0.23461239143E-01 -0.32239701716E-02  0.23715883571E-01  0.00000000000E+00 0.  1.
     999901    1    3    3    0    0  0.66360445002E-01 -0.54957180212E-01 -0.77220002422E-01  0.88757361897E+00  0.88000000000E+00 0. -1.
        -11    1    4    4    0    0 -0.17404124607E-01  0.15132974321E-01  0.28156597053E-01  0.36400076150E-01  0.51100000000E-03 0. -1.
         11    1    4    4    0    0 -0.50228879926E-01  0.63285445034E-01  0.52287375540E-01  0.96240421309E-01  0.51100000000E-03 0.  1.
</event>
<event>
 8    1  0.1066842E+005  0.1043930E+01  0.7957747E-01            NaN
         13   -1    0    0    0    0  0.00000000000E+00  0.00000000000E+00  0.74505805969E-08  0.10566000000E+00  0.10566000000E+00 0.  1.
     999900   -1    0    0    0    0 -0.00000000000E+00 -0.00000000000E+00 -0.74505805969E-08  0.93827000000E+00  0.93827000000E+00 0. -1.
     999902    2    1    2    0    0  0.88786476466E-02  0.20759203791E-01 -0.18404127810E-02  0.10212769197E+01  0.10210256533E+01 0.  0.
     999903    2    3    3    0    0 -0.41334860882E-01 -0.60048567538E-01 -0.10594432729E+00  0.13004803928E+00  0.19336257378E-01 0.  0.
         14    1    1    2    0    0 -0.88786476466E-02 -0.20759203791E-01  0.18404127810E-02  0.22653080260E-01  0.00000000000E+00 0.  1.
     999901    1    3    3    0    0  0.50213508529E-01  0.80807771329E-01  0.10410391451E+00  0.89122888046E+00  0.88000000000E+00 0.  1.
        -11    1    4    4    0    0 -0.25296882492E-01 -0.47871901397E-01 -0.66485874206E-01  0.85745459339E-01  0.51100000000E-03 0.  1.
         11    1    4    4    0    0 -0.16037978390E-01 -0.12176666140E-01 -0.39458453081E-01  0.44302579944E-01  0.51100000000E-03 0. -1.
</event>
<event>
 8    1  0.1066842E+005  0.1043930E+01  0.7957747E-01            NaN
         13   -1    0    0    0    0  0.00000000000E+00  0.00000000000E+00  0.74505805969E-08  0.10566000000E+00  0.10566000000E+00 0. -1.
     999900   -1    0    0    0    0 -0.00000000000E+00 -0.00000000000E+00 -0.74505805969E-08  0.93827000000E+00  0.93827000000E+00 0. -1.
     999902    2    1    2    0    0  0.43410531174E-03  0.22403879545E-01 -0.73783151558E-02  0.10203384379E+01  0.10200656676E+01 0.  0.
     999903    2    3    3    0    0  0.68851262893E-01 -0.10315624323E+00 -0.26680724522E-01  0.12858800486E+00  0.21007308593E-01 0.  0.
         14    1    1    2    0    0 -0.43410531174E-03 -0.22403879545E-01  0.73783151558E-02  0.23591562064E-01  0.00000000000E+00 0.  1.
     999901    1    3    3    0    0 -0.68417157581E-01  0.12556012277E+00  0.19302409366E-01  0.89175043307E+00  0.88000000000E+00 0. -1.
        -11    1    4    4    0    0  0.14083909620E-01 -0.31171359834E-01 -0.15115015913E-01  0.37399665922E-01  0.51100000000E-03 0. -1.
         11    1    4    4    0    0  0.54767353273E-01 -0.71984883394E-01 -0.11565708610E-01  0.91188338939E-01  0.51100000000E-03 0.  1.
</event>
<event>
 8    1  0.1066842E+005  0.1043930E+01  0.7957747E-01            NaN
         13   -1    0    0    0    0  0.00000000000E+00  0.00000000000E+00  0.74505805969E-08  0.10566000000E+00  0.10566000000E+00 0.  1.
     999900   -1    0    0    0    0 -0.00000000000E+00 -0.00000000000E+00 -0.74505805969E-08  0.93827000000E+00  0.93827000000E+00 0. -1.
     999902    2    1    2    0    0 -0.68688715245E-02  0.21381490701E-01  0.77034060615E-02  0.10201878012E+01  0.10199114950E+01 0.  0.
     999903    2    3    3    0    0 -0.13022941568E-01  0.12946131444E+00 -0.19527099435E-01  0.13313615593E+00  0.20349433902E-01 0.  0.
         14    1    1    2    0    0  0.68688715245E-02 -0.21381490701E-01 -0.77034060615E-02  0.23742198836E-01  0.00000000000E+00 0. -1.
     999901    1    3    3    0    0  0.61540700436E-02 -0.10807982374E+00  0.27230505496E-01  0.88705164523E+00  0.88000000000E+00 0.  1.
        -11    1    4    4    0    0 -0.13733348545E-01  0.11135866860E+00 -0.23365184528E-01  0.11461043104E+00  0.51100000000E-03 0. -1.
         11    1    4    4    0    0  0.71040697699E-03  0.18102645843E-01  0.38380850928E-02  0.18525724892E-01  0.51100000000E-03 0.  1.
</event>
<event>
 8    1  0.1066842E+005  0.1043930E+01  0.7957747E-01            NaN
         13   -1    0    0    0    0  0.00000000000E+00  0.00000000000E+00  0.74505805969E-08  0.10566000000E+00  0.10566000000E+00 0.  1.
     999900   -1    0    0    0    0 -0.00000000000E+00 -0.00000000000E+00 -0.74505805969E-08  0.93827000000E+00  0.93827000000E+00 0.  1.
     999902    2    1    2    0    0  0.19844067277E-01  0.12363078381E-01  0.46679712090E-02  0.10200883837E+01  0.10198097312E+01 0.  0.
     999903    2    3    3    0    0 -0.32007880023E-01  0.12475123829E+00  0.16927496925E-01  0.13134206505E+00  0.19411905155E-01 0.  0.
         14    1    1    2    0    0 -0.19844067277E-01 -0.12363078381E-01 -0.46679712090E-02  0.23841616312E-01  0.00000000000E+00 0.  1.
     999901    1    3    3    0    0  0.51851947301E-01 -0.11238815990E+00 -0.12259525716E-01  0.88874631864E+00  0.88000000000E+00 0. -1.
        -11    1    4    4    0    0 -0.41713548078E-02  0.21200277366E-01 -0.42904329076E-02  0.22034538726E-01  0.51100000000E-03 0.  1.
         11    1    4    4    0    0 -0.27836525216E-01  0.10355096092E+00  0.21217929832E-01  0.10930752632E+00  0.51100000000E-03 0. -1.
</event>
<event>
 8    1  0.1066842E+005  0.1043930E+01  0.7957747E-01            NaN
         13   -1    0    0    0    0  0.00000000000E+00  0.00000000000E+00  0.74505805969E-08  0.10566000000E+00  0.10566000000E+00 0. -1.
     999900   -1    0    0    0    0 -0.00000000000E+00 -0.00000000000E+00 -0.74505805969E-08  0.93827000000E+00  0.93827000000E+00 0. -1.
     999902    2    1    2    0    0  0.12922037338E-01 -0.21981049033E-02 -0.21395473040E-01  0.10188386274E+01  0.10185296125E+01 0.  0.
     999903    2    3    3    0    0  0.92662100667E-01 -0.53658765067E-01  0.67233879818E-01  0.12930962872E+00  0.27111944143E-01 0.  0.
         14    1    1    2    0    0 -0.12922037338E-01  0.21981049033E-02  0.21395473040E-01  0.25091372636E-01  0.00000000000E+00 0. -1.
     999901    1    3    3    0    0 -0.79740063329E-01  0.51460660164E-01 -0.88629352858E-01  0.88952899865E+00  0.88000000000E+00 0. -1.
        -11    1    4    4    0    0  0.37724727398E-01 -0.35860277122E-01  0.38907206232E-01  0.64985739592E-01  0.51100000000E-03 0. -1.
         11    1    4    4    0    0  0.54937373269E-01 -0.17798487945E-01  0.28326673586E-01  0.64323889126E-01  0.51100000000E-03 0.  1.
</event>
<event>
 8    1  0.1066842E+005  0.1043930E+01  0.7957747E-01            NaN
         13   -1    0    0    0    0  0.00000000000E+00  0.00000000000E+00  0.74505805969E-08  0.10566000000E+00  0.10566000000E+00 0. -1.
     999900   -1    0    0    0    0 -0.00000000000E+00 -0.00000000000E+00 -0.74505805969E-08  0.93827000000E+00  0.93827000000E+00 0.  1.
     999902    2    1    2    0    0 -0.16289376744E-01 -0.16925624431E-01  0.11036431645E-02  0.10204132276E+01  0.10201422040E+01 0.  0.
     999903    2    3    3    0    0  0.71444641836E-01  0.56250088024E-01  0.88900900284E-01  0.12869561461E+00  0.19768204253E-01 0.  0.
         14    1    1    2    0    0  0.16289376744E-01  0.16925624431E-01 -0.11036431645E-02  0.23516772426E-01  0.00000000000E+00 0. -1.
     999901    1    3    3    0    0 -0.87734018580E-01 -0.73175712455E-01 -0.87797257119E-01  0.89171761296E+00  0.88000000000E+00 0.  1.
        -11    1    4    4    0    0  0.57277014464E-01  0.44390331222E-01  0.58569628970E-01  0.93176286954E-01  0.51100000000E-03 0. -1.
         11    1    4    4    0    0  0.14167627372E-01  0.11859756801E-01  0.30331271314E-01  0.35519327657E-01  0.51100000000E-03 0.  1.
</event>
<event>
 8    1  0.1066842E+005  0.1043930E+01  0.7957747E-01            NaN
         13   -1    0    0    0    0  0.00000000000E+00  0.00000000000E+00  0.74505805969E-08  0.10566000000E+00  0.10566000000E+00 0.  1.
     999900   -1    0    0    0    0 -0.00000000000E+00 -0.00000000000E+00 -0.74505805969E-08  0.93827000000E+00  0.93827000000E+00 0. -1.
     999902    2    1    2    0    0  0.15234698255E-01 -0.17677945318E-01 -0.23351965188E-02  0.10204766650E+01  0.10202071186E+01 0.  0.
     999903    2    3    3    0    0  0.98147278032E-01 -0.54406102444E-01 -0.69303573585E-01  0.13328546971E+00  0.19212468745E-01 0.  0.
         14    1    1    2    0    0 -0.15234698255E-01  0.17677945318E-01  0.23351965188E-02  0.23453335037E-01  0.00000000000E+00 0.  1.
     999901    1    3    3    0    0 -0.82912579777E-01  0.36728157126E-01  0.66968377066E-01  0.88719119526E+00  0.88000000000E+00 0.  1.
        -11    1    4    4    0    0  0.31488151399E-01 -0.89597788421E-02 -0.14867802499E-01  0.35959616066E-01  0.51100000000E-03 0.  1.
         11    1    4    4    0    0  0.66659126633E-01 -0.45446323602E-01 -0.54435771086E-01  0.97325853642E-01  0.51100000000E-03 0. -1.
</event>
<event>
 8    1  0.1066842E+005  0.1043930E+01  0.7957747E-01            NaN
         13   -1    0    0    0    0  0.00000000000E+00  0.00000000000E+00  0.74505805969E-08  0.10566000000E+00  0.10566000000E+00 0.  1.
     999900   -1    0    0    0    0 -0.00000000000E+00 -0.00000000000E+00 -0.74505805969E-08  0.93827000000E+00  0.93827000000E+00 0.  1.
     999902    2    1    2    0    0  0.58752720971E-02 -0.18237185717E-01 -0.14254624701E-01  0.10200488759E+01  0.10197692881E+01 0.  0.
     999903    2    3    3    0    0 -0.91830354603E-01 -0.82811084158E-01 -0.41284933360E-01  0.13187838803E+00  0.19924201916E-01 0.  0.
         14    1    1    2    0    0 -0.58752720971E-02  0.18237185717E-01  0.14254624701E-01  0.23881124145E-01  0.00000000000E+00 0.  1.
     999901    1    3    3    0    0  0.97705626700E-01  0.64573898441E-01  0.27030308659E-01  0.88817048782E+00  0.88000000000E+00 0.  1.
        -11    1    4    4    0    0 -0.35768809570E-01 -0.28124518568E-01 -0.24873510059E-01  0.51858932754E-01  0.51100000000E-03 0.  1.
         11    1    4    4    0    0 -0.56061545034E-01 -0.54686565590E-01 -0.16411423301E-01  0.80019455281E-01  0.51100000000E-03 0. -1.
</event>
<event>
 8    1  0.1066842E+005  0.1043930E+01  0.7957747E-01            NaN
         13   -1    0    0    0    0  0.00000000000E+00  0.00000000000E+00  0.74505805969E-08  0.10566000000E+00  0.10566000000E+00 0.  1.
     999900   -1    0    0    0    0 -0.00000000000E+00 -0.00000000000E+00 -0.74505805969E-08  0.93827000000E+00  0.93827000000E+00 0.  1.
     999902    2    1    2    0    0  0.32998102341E-02 -0.15794118751E-01 -0.18334601835E-01  0.10195066391E+01  0.10192140534E+01 0.  0.
     999903    2    3    3    0    0  0.76445723492E-01  0.27965400584E-03 -0.10612491497E+00  0.13197307358E+00  0.17617256455E-01 0.  0.
         14    1    1    2    0    0 -0.32998102341E-02  0.15794118751E-01  0.18334601835E-01  0.24423360930E-01  0.00000000000E+00 0.  1.
     999901    1    3    3    0    0 -0.73145913258E-01 -0.16073772756E-01  0.87790313136E-01  0.88753356549E+00  0.88000000000E+00 0. -1.
        -11    1    4    4    0    0  0.74030959047E-01 -0.28022069490E-02 -0.97211442032E-01  0.12222422364E+00  0.51100000000E-03 0. -1.
         11    1    4    4    0    0  0.24147644456E-02  0.30818609548E-02 -0.89134729393E-02  0.97488499379E-02  0.51100000000E-03 0.  1.
</event>
<event>
 8    1  0.1066842E+005  0.1043930E+01  0.7957747E-01            NaN
         13   -1    0    0    0    0  0.00000000000E+00  0.00000000000E+00  0.74505805969E-08  0.10566000000E+00  0.10566000000E+00 0. -1.
     999900   -1    0    0    0    0 -0.00000000000E+00 -0.00000000000E+00 -0.74505805969E-08  0.93827000000E+00  0.93827000000E+00 0.  1.
     999902    2    1    2    0    0 -0.21033640943E-01  0.55634632909E-02 -0.39643256090E-02  0.10218148004E+01  0.10215754521E+01 0.  0.
     999903    2    3    3    0    0  0.10078168426E+00 -0.26747750599E-01 -0.75130613972E-01  0.12999215628E+00  0.19518234928E-01 0.  0.
         14    1    1    2    0    0  0.21033640943E-01 -0.55634632909E-02  0.39643256090E-02  0.22115199584E-01  0.00000000000E+00 0. -1.
     999901    1    3    3    0    0 -0.12181532520E+00  0.32311213890E-01  0.71166288363E-01  0.89182264414E+00  0.88000000000E+00 0.  1.
        -11    1    4    4    0    0  0.53989365930E-01 -0.16813918923E-01 -0.29068689132E-01  0.63583089826E-01  0.51100000000E-03 0. -1.
         11    1    4    4    0    0  0.46792318326E-01 -0.99338316756E-02 -0.46061924841E-01  0.66409066452E-01  0.51100000000E-03 0.  1.
</event>
<event>
 8    1  0.1066842E+005  0.1043930E+01  0.7957747E-01            NaN
         13   -1    0    0    0    0  0.00000000000E+00  0.00000000000E+00  0.74505805969E-08  0.10566000000E+00  0.10566000000E+00 0.  1.
     999900   -1    0    0    0    0 -0.00000000000E+00 -0.00000000000E+00 -0.74505805969E-08  0.93827000000E+00  0.93827000000E+00 0.  1.
     999902    2    1    2    0    0 -0.21700019850E-02 -0.21827196188E-01  0.10536710099E-01  0.10195957102E+01  0.10193052803E+01 0.  0.
     999903    2    3    3    0    0  0.81579340873E-01  0.95774672185E-01 -0.64328927900E-02  0.12766963739E+00  0.20740721119E-01 0.  0.
         14    1    1    2    0    0  0.21700019850E-02  0.21827196188E-01 -0.10536710099E-01  0.24334289834E-01  0.00000000000E+00 0.  1.
     999901    1    3    3    0    0 -0.83749342858E-01 -0.11760186837E+00  0.16969602889E-01  0.89192607278E+00  0.88000000000E+00 0. -1.
        -11    1    4    4    0    0  0.48311615535E-01  0.42185988862E-01 -0.75474056708E-02  0.64582461282E-01  0.51100000000E-03 0.  1.
         11    1    4    4    0    0  0.33267725337E-01  0.53588683323E-01  0.11145128808E-02  0.63087176109E-01  0.51100000000E-03 0. -1.
</event>
<event>
 8    1  0.1066842E+005  0.1043930E+01  0.7957747E-01            NaN
         13   -1    0    0    0    0  0.00000000000E+00  0.00000000000E+00  0.74505805969E-08  0.10566000000E+00  0.10566000000E+00 0.  1.
     999900   -1    0    0    0    0 -0.00000000000E+00 -0.00000000000E+00 -0.74505805969E-08  0.93827000000E+00  0.93827000000E+00 0.  1.
     999902    2    1    2    0    0 -0.95889929364E-02  0.22956762191E-01  0.40197025846E-02  0.10187284182E+01  0.10184166487E+01 0.  0.
     999903    2    3    3    0    0  0.89427477216E-01 -0.53754460657E-01 -0.69308181465E-01  0.12683949483E+00  0.19945368098E-01 0.  0.
         14    1    1    2    0    0  0.95889929364E-02 -0.22956762191E-01 -0.40197025846E-02  0.25201581789E-01  0.00000000000E+00 0. -1.
     999901    1    3    3    0    0 -0.99016470152E-01  0.76711222848E-01  0.73327884050E-01  0.89188892338E+00  0.88000000000E+00 0. -1.
        -11    1    4    4    0    0  0.37396411497E-01 -0.31239854094E-01 -0.39835491114E-01  0.62940825781E-01  0.51100000000E-03 0.  1.
         11    1    4    4    0    0  0.52031065719E-01 -0.22514606564E-01 -0.29472690351E-01  0.63898669048E-01  0.51100000000E-03 0. -1.
</event>
<event>
 8    1  0.1066842E+005  0.1043930E+01  0.7957747E-01            NaN
         13   -1    0    0    0    0  0.00000000000E+00  0.00000000000E+00  0.74505805969E-08  0.10566000000E+00  0.10566000000E+00 0.  1.
     999900   -1    0    0    0    0 -0.00000000000E+00 -0.00000000000E+00 -0.74505805969E-08  0.93827000000E+00  0.93827000000E+00 0. -1.
     999902    2    1    2    0    0 -0.11223131445E-01  0.12446129948E-02  0.20734425684E-01  0.10203201684E+01  0.10200469704E+01 0.  0.
     999903    2    3    3    0    0  0.21555046739E-01  0.11499347050E+00 -0.51833628342E-01  0.12943334390E+00  0.19446007048E-01 0.  0.
         14    1    1    2    0    0  0.11223131445E-01 -0.12446129948E-02 -0.20734425684E-01  0.23609831626E-01  0.00000000000E+00 0.  1.
     999901    1    3    3    0    0 -0.32778178185E-01 -0.11374885750E+00  0.72568054026E-01  0.89088682447E+00  0.88000000000E+00 0.  1.
        -11    1    4    4    0    0  0.12299779477E-01  0.96187004692E-01 -0.37186892387E-01  0.10385735666E+00  0.51100000000E-03 0.  1.
         11    1    4    4    0    0  0.92552672621E-02  0.18806465807E-01 -0.14646735955E-01  0.25575987241E-01  0.51100000000E-03 0. -1.
</event>
<event>
 8    1  0.1066842E+005  0.1043930E+01  0.7957747E-01            NaN
         13   -1    0    0    0    0  0.00000000000E+00  0.00000000000E+00  0.74505805969E-08  0.10566000000E+00  0.10566000000E+00 0. -1.
     999900   -1    0    0    0    0 -0.00000000000E+00 -0.00000000000E+00 -0.74505805969E-08  0.93827000000E+00  0.93827000000E+00 0. -1.
     999902    2    1    2    0    0  0.16258642388E-01  0.12800708392E-01 -0.10304002072E-01  0.10208134681E+01  0.10205516952E+01 0.  0.
     999903    2    3    3    0    0 -0.12723918141E+00  0.79557808569E-02 -0.53394854416E-02  0.12916345540E+00  0.20039570088E-01 0.  0.
         14    1    1    2    0    0 -0.16258642388E-01 -0.12800708392E-01  0.10304002072E-01  0.23116531884E-01  0.00000000000E+00 0. -1.
     999901    1    3    3    0    0  0.14349782380E+00  0.48449275352E-02 -0.49645166305E-02  0.89165001272E+00  0.88000000000E+00 0. -1.
        -11    1    4    4    0    0 -0.10051892858E+00  0.14434697510E-01 -0.45263819743E-02  0.10165217533E+00  0.51100000000E-03 0.  1.
         11    1    4    4    0    0 -0.26720252833E-01 -0.64789166534E-02 -0.81310346730E-03  0.27511280063E-01  0.51100000000E-03 0. -1.
</event>
<event>
 8    1  0.1066842E+005  0.1043930E+01  0.7957747E-01            NaN
         13   -1    0    0    0    0  0.00000000000E+00  0.00000000000E+00  0.74505805969E-08  0.10566000000E+00  0.10566000000E+00 0.  1.
     999900   -1    0    0    0    0 -0.00000000000E+00 -0.00000000000E+00 -0.74505805969E-08  0.93827000000E+00  0.93827000000E+00 0.  1.
     999902    2    1    2    0    0 -0.13688320396E-01 -0.17831969221E-01  0.82547574595E-02  0.10199823433E+01  0.10197011770E+01 0.  0.
     999903    2    3    3    0    0 -0.28896950059E-01 -0.12673540703E+00  0.20813891947E-01  0.13304999353E+00  0.19292111356E-01 0.  0.
         14    1    1    2    0    0  0.13688320396E-01  0.17831969221E-01 -0.82547574595E-02  0.23947656718E-01  0.00000000000E+00 0. -1.
     999901    1    3    3    0    0  0.15208629663E-01  0.10890343781E+00 -0.12559134487E-01  0.88693234976E+00  0.88000000000E+00 0.  1.
        -11    1    4    4    0    0 -0.26008329282E-01 -0.76559968412E-01  0.17135961094E-01  0.82654487107E-01  0.51100000000E-03 0.  1.
         11    1    4    4    0    0 -0.28886207770E-02 -0.50175438622E-01  0.36779308527E-02  0.50395506420E-01  0.51100000000E-03 0. -1.
</event>
<event>
 8    1  0.1066842E+005  0.1043930E+01  0.7957747E-01            NaN
         13   -1    0    0    0    0  0.00000000000E+00  0.00000000000E+00  0.74505805969E-08  0.10566000000E+00  0.10566000000E+00 0.  1.
     999900   -1    0    0    0    0 -0.00000000000E+00 -0.00000000000E+00 -0.74505805969E-08  0.93827000000E+00  0.93827000000E+00 0.  1.
     999902    2    1    2    0    0  0.13106208708E-01 -0.47100375931E-02  0.17394512089E-01  0.10216471319E+01  0.10214041002E+01 0.  0.
     999903    2    3    3    0    0 -0.65054871323E-01 -0.40931535706E-01  0.10683090114E+00  0.13292894311E+00  0.18701218712E-01 0.  0.
         14    1    1    2    0    0 -0.13106208708E-01  0.47100375931E-02 -0.17394512089E-01  0.22282868120E-01  0.00000000000E+00 0. -1.
     999901    1    3    3    0    0  0.78161080031E-01  0.36221498112E-01 -0.89436389050E-01  0.88871818877E+00  0.88000000000E+00 0.  1.
        -11    1    4    4    0    0 -0.47059311132E-01 -0.20520239371E-01  0.62173469132E-01  0.80631633823E-01  0.51100000000E-03 0.  1.
         11    1    4    4    0    0 -0.17995560190E-01 -0.20411296335E-01  0.44657432007E-01  0.52297309291E-01  0.51100000000E-03 0. -1.
</event>
<event>
 8    1  0.1066842E+005  0.1043930E+01  0.7957747E-01            NaN
         13   -1    0    0    0    0  0.00000000000E+00  0.00000000000E+00  0.74505805969E-08  0.10566000000E+00  0.10566000000E+00 0.  1.
     999900   -1    0    0    0    0 -0.00000000000E+00 -0.00000000000E+00 -0.74505805969E-08  0.93827000000E+00  0.93827000000E+00 0. -1.
     999902    2    1    2    0    0  0.11636871422E-01  0.13489470101E-01  0.16822930141E-01  0.10194270704E+01  0.10191325519E+01 0.  0.
     999903    2    3    3    0    0  0.12648597130E+00  0.17833240916E-01 -0.22382457872E-01  0.13108803235E+00  0.19140856495E-01 0.  0.
         14    1    1    2    0    0 -0.11636871422E-01 -0.13489470101E-01 -0.16822930141E-01  0.24502929593E-01  0.00000000000E+00 0. -1.
     999901    1    3    3    0    0 -0.11484909988E+00 -0.43437708149E-02  0.39205388014E-01  0.88833903806E+00  0.88000000000E+00 0.  1.
        -11    1    4    4    0    0  0.88936861054E-01  0.12588534708E-01 -0.67604009717E-02  0.90078857689E-01  0.51100000000E-03 0. -1.
         11    1    4    4    0    0  0.37549110247E-01  0.52447062078E-02 -0.15622056901E-01  0.41009174661E-01  0.51100000000E-03 0.  1.
</event>
<event>
 8    1  0.1066842E+005  0.1043930E+01  0.7957747E-01            NaN
         13   -1    0    0    0    0  0.00000000000E+00  0.00000000000E+00  0.74505805969E-08  0.10566000000E+00  0.10566000000E+00 0.  1.
     999900   -1    0    0    0    0 -0.00000000000E+00 -0.00000000000E+00 -0.74505805969E-08  0.93827000000E+00  0.93827000000E+00 0.  1.
     999902    2    1    2    0    0 -0.34109193819E-03 -0.22565198275E-01  0.95479519046E-02  0.10194255534E+01  0.10191309980E+01 0.  0.
     999903    2    3    3    0    0 -0.57445256850E-01 -0.11198252013E+00  0.37017023511E-01  0.13262744054E+00  0.19486805961E-01 0.  0.
         14    1    1    2    0    0  0.34109193819E-03  0.22565198275E-01 -0.95479519046E-02  0.24504446586E-01  0.00000000000E+00 0.  1.
     999901    1    3    3    0    0  0.57104164912E-01  0.89417321853E-01 -0.27469071606E-01  0.88679811287E+00  0.88000000000E+00 0. -1.
        -11    1    4    4    0    0 -0.53675079286E-01 -0.10932385387E+00  0.32281078585E-01  0.12599622342E+00  0.51100000000E-03 0. -1.
         11    1    4    4    0    0 -0.37701775649E-02 -0.26586662565E-02  0.47359449256E-02  0.66312171185E-02  0.51100000000E-03 0.  1.
</event>
<event>
 8    1  0.1066842E+005  0.1043930E+01  0.7957747E-01            NaN
         13   -1    0    0    0    0  0.00000000000E+00  0.00000000000E+00  0.74505805969E-08  0.10566000000E+00  0.10566000000E+00 0. -1.
     999900   -1    0    0    0    0 -0.00000000000E+00 -0.00000000000E+00 -0.74505805969E-08  0.93827000000E+00  0.93827000000E+00 0. -1.
     999902    2    1    2    0    0  0.18956632776E-01 -0.11412937969E-01  0.51517126022E-02  0.10212110823E+01  0.10209583367E+01 0.  0.
     999903    2    3    3    0    0 -0.12438821590E+00 -0.29065307856E-03  0.29769635752E-01  0.12920351898E+00  0.18297687529E-01 0.  0.
         14    1    1    2    0    0 -0.18956632776E-01  0.11412937969E-01 -0.51517126022E-02  0.22718917712E-01  0.00000000000E+00 0.  1.
     999901    1    3    3    0    0  0.14334484868E+00 -0.11122284890E-01 -0.24617923150E-01  0.89200756331E+00  0.88000000000E+00 0. -1.
        -11    1    4    4    0    0 -0.76460699360E-01  0.25248558826E-02  0.26934660637E-01  0.81107031190E-01  0.51100000000E-03 0. -1.
         11    1    4    4    0    0 -0.47927516541E-01 -0.28155089612E-02  0.28349751152E-02  0.48096487787E-01  0.51100000000E-03 0.  1.
</event>
<event>
 8    1  0.1066842E+005  0.1043930E+01  0.7957747E-01            NaN
         13   -1    0    0    0    0  0.00000000000E+00  0.00000000000E+00  0.74505805969E-08  0.10566000000E+00  0.10566000000E+00 0.  1.
     999900   -1    0    0    0    0 -0.00000000000E+00 -0.00000000000E+00 -0.74505805969E-08  0.93827000000E+00  0.93827000000E+00 0. -1.
     999902    2    1    2    0    0 -0.50617128109E-03  0.67260839927E-02 -0.23239962348E-01  0.10197309863E+01  0.10194438151E+01 0.  0.
     999903    2    3    3    0    0  0.87877476312E-01  0.48872698202E-01  0.77700276143E-01  0.12856493105E+00  0.19509410791E-01 0.  0.
         14    1    1    2    0    0  0.50617128109E-03 -0.67260839927E-02  0.23239962348E-01  0.24199013723E-01  0.00000000000E+00 0.  1.
     999901    1    3    3    0    0 -0.88383647593E-01 -0.42146614210E-01 -0.10094023849E+00  0.89116605523E+00  0.88000000000E+00 0. -1.
        -11    1    4    4    0    0  0.65449520924E-01  0.44730280090E-01  0.64557835986E-01  0.10223704345E+00  0.51100000000E-03 0.  1.
         11    1    4    4    0    0  0.22427955388E-01  0.41424181119E-02  0.13142440157E-01  0.26327887591E-01  0.51100000000E-03 0. -1.
</event>
<event>
 7    1  0.1066842E+005  0.1043930E+01  0.7957747E-01            NaN
         13   -1    0    0    0    0  0.00000000000E+00  0.00000000000E+00  0.74505805969E-08  0.10566000000E+00  0.10566000000E+00 0.  1.
     999900   -1    0    0    0    0 -0.00000000000E+00 -0.00000000000E+00 -0.74505805969E-08  0.93827000000E+00  0.93827000000E+00 0.  1.
     999903    2    1    2    0    0 -0.33798428596E-01  0.84136836198E-01  0.62998303124E-01  0.11210315014E+00  0.19416207010E-01 0.  0.
         14    1    1    2    0    0  0.10199433958E-02  0.39078550242E-01  0.76598283640E-02  0.39835239978E-01  0.00000000000E+00 0. -1.
     999901    1    1    2    0    0  0.32778485200E-01 -0.12321538644E+00 -0.70658131488E-01  0.89199160988E+00  0.88000000000E+00 0.  1.
        -11    1    3    3    0    0 -0.88495870552E-02  0.43390494687E-01  0.36991996534E-01  0.57703718674E-01  0.51100000000E-03 0.  1.
         11    1    3    3    0    0 -0.24948841541E-01  0.40746341512E-01  0.26006306589E-01  0.54399431470E-01  0.51100000000E-03 0. -1.
</event>
<event>
 8    1  0.1066842E+005  0.1043930E+01  0.7957747E-01            NaN
         13   -1    0    0    0    0  0.00000000000E+00  0.00000000000E+00  0.74505805969E-08  0.10566000000E+00  0.10566000000E+00 0.  1.
     999900   -1    0    0    0    0 -0.00000000000E+00 -0.00000000000E+00 -0.74505805969E-08  0.93827000000E+00  0.93827000000E+00 0. -1.
     999902    2    1    2    0    0  0.11639992414E-01  0.73734196547E-02  0.19695634420E-01  0.10198930544E+01  0.10196097624E+01 0.  0.
     999903    2    3    3    0    0 -0.58677101668E-01  0.45238916944E-01  0.10747005467E+00  0.13192760545E+00  0.19118539756E-01 0.  0.
         14    1    1    2    0    0 -0.11639992414E-01 -0.73734196547E-02 -0.19695634420E-01  0.24036945646E-01  0.00000000000E+00 0. -1.
     999901    1    3    3    0    0  0.70317094081E-01 -0.37865497289E-01 -0.87774420247E-01  0.88796544891E+00  0.88000000000E+00 0. -1.
        -11    1    4    4    0    0 -0.22634970877E-01  0.64049752279E-02  0.32384437066E-01  0.40029720201E-01  0.51100000000E-03 0.  1.
         11    1    4    4    0    0 -0.36042130790E-01  0.38833941716E-01  0.75085617600E-01  0.91897885245E-01  0.51100000000E-03 0. -1.
</event>
<event>
 8    1  0.1066842E+005  0.1043930E+01  0.7957747E-01            NaN
         13   -1    0    0    0    0  0.00000000000E+00  0.00000000000E+00  0.74505805969E-08  0.10566000000E+00  0.10566000000E+00 0.  1.
     999900   -1    0    0    0    0 -0.00000000000E+00 -0.00000000000E+00 -0.74505805969E-08  0.93827000000E+00  0.93827000000E+00 0. -1.
     999902    2    1    2    0    0 -0.17469801229E-01  0.10945520503E-02  0.16170392131E-01  0.10200999018E+01  0.10198215217E+01 0.  0.
     999903    2    3    3    0    0 -0.63635322433E-01  0.10388845521E+00  0.47765527086E-01  0.13235213669E+00  0.19831215882E-01 0.  0.
         14    1    1    2    0    0  0.17469801229E-01 -0.10945520503E-02 -0.16170392131E-01  0.23830098213E-01  0.00000000000E+00 0.  1.
     999901    1    3    3    0    0  0.46165521203E-01 -0.10279390316E+00 -0.31595134955E-01  0.88774776509E+00  0.88000000000E+00 0. -1.
        -11    1    4    4    0    0 -0.21730651250E-01  0.53680449791E-01  0.25328225187E-01  0.63210695342E-01  0.51100000000E-03 0. -1.
         11    1    4    4    0    0 -0.41904671182E-01  0.50208005416E-01  0.22437301899E-01  0.69141441352E-01  0.51100000000E-03 0.  1.
</event>
<event>
 8    1  0.1066842E+005  0.1043930E+01  0.7957747E-01            NaN
         13   -1    0    0    0    0  0.00000000000E+00  0.00000000000E+00  0.74505805969E-08  0.10566000000E+00  0.10566000000E+00 0.  1.
     999900   -1    0    0    0    0 -0.00000000000E+00 -0.00000000000E+00 -0.74505805969E-08  0.93827000000E+00  0.93827000000E+00 0.  1.
     999902    2    1    2    0    0 -0.51455814970E-03 -0.14008424943E-01  0.20189053261E-01  0.10193515824E+01  0.10190552242E+01 0.  0.
     999903    2    3    3    0    0  0.25185676130E-01 -0.10977266852E+00 -0.61007365472E-01  0.13006864048E+00  0.22618478259E-01 0.  0.
         14    1    1    2    0    0  0.51455814970E-03  0.14008424943E-01 -0.20189053261E-01  0.24578417587E-01  0.00000000000E+00 0. -1.
     999901    1    3    3    0    0 -0.25700234280E-01  0.95764243581E-01  0.81196418733E-01  0.88928294193E+00  0.88000000000E+00 0. -1.
        -11    1    4    4    0    0  0.16328964486E-01 -0.35568857748E-01 -0.12993474664E-01  0.41241607965E-01  0.51100000000E-03 0.  1.
         11    1    4    4    0    0  0.88567116445E-02 -0.74203810776E-01 -0.48013890808E-01  0.88827032520E-01  0.51100000000E-03 0. -1.
</event>
<event>
 8    1  0.1066842E+005  0.1043930E+01  0.7957747E-01            NaN
         13   -1    0    0    0    0  0.00000000000E+00  0.00000000000E+00  0.74505805969E-08  0.10566000000E+00  0.10566000000E+00 0.  1.
     999900   -1    0    0    0    0 -0.00000000000E+00 -0.00000000000E+00 -0.74505805969E-08  0.93827000000E+00  0.93827000000E+00 0.  1.
     999902    2    1    2    0    0 -0.16161437529E-01  0.89410690704E-02  0.11905005457E-01  0.10219558348E+01  0.10217195625E+01 0.  0.
     999903    2    3    3    0    0 -0.27586978148E-02 -0.95199645768E-01  0.89712700159E-01  0.13230480255E+00  0.19636935600E-01 0.  0.
         14    1    1    2    0    0  0.16161437529E-01 -0.89410690704E-02 -0.11905005457E-01  0.21974165150E-01  0.00000000000E+00 0. -1.
     999901    1    3    3    0    0 -0.13402739715E-01  0.10414071484E+00 -0.77807694703E-01  0.88965103230E+00  0.88000000000E+00 0. -1.
        -11    1    4    4    0    0  0.76297882726E-02 -0.61142868156E-01  0.55765790350E-01  0.83106849837E-01  0.51100000000E-03 0. -1.
         11    1    4    4    0    0 -0.10388486087E-01 -0.34056777612E-01  0.33946909809E-01  0.49197952712E-01  0.51100000000E-03 0.  1.
</event>
<event>
 8    1  0.1066842E+005  0.1043930E+01  0.7957747E-01            NaN
         13   -1    0    0    0    0  0.00000000000E+00  0.00000000000E+00  0.74505805969E-08  0.10566000000E+00  0.10566000000E+00 0.  1.
     999900   -1    0    0    0    0 -0.00000000000E+00 -0.00000000000E+00 -0.74505805969E-08  0.93827000000E+00  0.93827000000E+00 0.  1.
     999902    2    1    2    0    0 -0.14266129442E-01  0.52132259829E-02  0.19408672207E-01  0.10192845799E+01  0.10189865839E+01 0.  0.
     999903    2    3    3    0    0  0.10854718855E+00 -0.60683728593E-01 -0.19395062713E-01  0.12747111873E+00  0.20191844750E-01 0.  0.
         14    1    1    2    0    0  0.14266129442E-01 -0.52132259829E-02 -0.19408672207E-01  0.24645420087E-01  0.00000000000E+00 0. -1.
     999901    1    3    3    0    0 -0.12281331800E+00  0.65896954576E-01  0.38803734921E-01  0.89181346118E+00  0.88000000000E+00 0. -1.
        -11    1    4    4    0    0  0.65647470542E-01 -0.45745948098E-01 -0.18028033934E-01  0.82021663507E-01  0.51100000000E-03 0.  1.
         11    1    4    4    0    0  0.42899718012E-01 -0.14937780495E-01 -0.13670287792E-02  0.45449455225E-01  0.51100000000E-03 0. -1.
</event>
<event>
 8    1  0.1066842E+005  0.1043930E+01  0.7957747E-01            NaN
         13   -1    0    0    0    0  0.00000000000E+00  0.00000000000E+00  0.74505805969E-08  0.10566000000E+00  0.10566000000E+00 0.  1.
     999900   -1    0    0    0    0 -0.00000000000E+00 -0.00000000000E+00 -0.74505805969E-08  0.93827000000E+00  0.93827000000E+00 0. -1.
     999902    2    1    2    0    0 -0.12780891954E-02 -0.20057393018E-01 -0.91119371247E-02  0.10218628315E+01  0.10216245330E+01 0.  0.
     999903    2    3    3    0    0 -0.52435677245E-01 -0.21348520916E-01  0.11660327068E+00  0.13145669986E+00  0.21892501215E-01 0.  0.
         14    1    1    2    0    0  0.12780891954E-02  0.20057393018E-01  0.91119371247E-02  0.22067168482E-01  0.00000000000E+00 0.  1.
     999901    1    3    3    0    0  0.51157588050E-01  0.12911278987E-02 -0.12571520781E+00  0.89040613166E+00  0.88000000000E+00 0. -1.
        -11    1    4    4    0    0 -0.38614163866E-01 -0.62926170402E-02  0.63905956901E-01  0.74932523838E-01  0.51100000000E-03 0.  1.
         11    1    4    4    0    0 -0.13821513379E-01 -0.15055903876E-01  0.52697313783E-01  0.56524176019E-01  0.51100000000E-03 0. -1.
</event>
<event>
 8    1  0.1066842E+005  0.1043930E+01  0.7957747E-01            NaN
         13   -1    0    0    0    0  0.00000000000E+00  0.00000000000E+00  0.74505805969E-08  0.10566000000E+00  0.10566000000E+00 0.  1.
     999900   -1    0    0    0    0 -0.00000000000E+00 -0.00000000000E+00 -0.74505805969E-08  0.93827000000E+00  0.93827000000E+00 0.  1.
     999902    2    1    2    0    0  0.80342657237E-02 -0.21003040579E-01 -0.77659638912E-02  0.10201395117E+01  0.10198620671E+01 0.  0.
     999903    2    3    3    0    0 -0.11651783850E-01  0.72245864414E-02 -0.12897902461E+00  0.13116428955E+00  0.19507007664E-01 0.  0.
         14    1    1    2    0    0 -0.80342657237E-02  0.21003040579E-01  0.77659638912E-02  0.23790488318E-01  0.00000000000E+00 0. -1.
     999901    1    3    3    0    0  0.19686049574E-01 -0.28227627020E-01  0.12121306072E+00  0.88897522213E+00  0.88000000000E+00 0. -1.
        -11    1    4    4    0    0  0.45853879091E-02  0.36559777319E-02 -0.17803216320E-01  0.18751202302E-01  0.51100000000E-03 0.  1.
         11    1    4    4    0    0 -0.16237171760E-01  0.35686087095E-02 -0.11117580829E+00  0.11241308725E+00  0.51100000000E-03 0. -1.
</event>
<event>
 8    1  0.1066842E+005  0.1043930E+01  0.7957747E-01            NaN
         13   -1    0    0    0    0  0.00000000000E+00  0.00000000000E+00  0.74505805969E-08  0.10566000000E+00  0.10566000000E+00 0.  1.
     999900   -1    0    0    0    0 -0.00000000000E+00 -0.00000000000E+00 -0.74505805969E-08  0.93827000000E+00  0.93827000000E+00 0. -1.
     999902    2    1    2    0    0 -0.84323663038E-02 -0.20094863342E-01 -0.16755711704E-01  0.10164406892E+01  0.10160689014E+01 0.  0.
     999903    2    3    3    0    0  0.12769248235E-01  0.97687654753E-01  0.72201267223E-01  0.12389625101E+00  0.20768399879E-01 0.  0.
         14    1    1    2    0    0  0.84323663038E-02  0.20094863342E-01  0.16755711704E-01  0.27489310812E-01  0.00000000000E+00 0.  1.
     999901    1    3    3    0    0 -0.21201614538E-01 -0.11778251809E+00 -0.88956978926E-01  0.89254443818E+00  0.88000000000E+00 0. -1.
        -11    1    4    4    0    0 -0.49954144180E-02  0.16546029602E-01  0.88131301227E-02  0.19407669731E-01  0.51100000000E-03 0.  1.
         11    1    4    4    0    0  0.17764662653E-01  0.81141625150E-01  0.63388137100E-01  0.10448858128E+00  0.51100000000E-03 0. -1.
</event>
<event>
 8    1  0.1066842E+005  0.1043930E+01  0.7957747E-01            NaN
         13   -1    0    0    0    0  0.00000000000E+00  0.00000000000E+00  0.74505805969E-08  0.10566000000E+00  0.10566000000E+00 0.  1.
     999900   -1    0    0    0    0 -0.00000000000E+00 -0.00000000000E+00 -0.74505805969E-08  0.93827000000E+00  0.93827000000E+00 0.  1.
     999902    2    1    2    0    0 -0.10751082296E-01  0.17683299391E-01 -0.88024220199E-02  0.10214407252E+01  0.10211931196E+01 0.  0.
     999903    2    3    3    0    0 -0.77509637421E-01  0.97105478616E-01 -0.47751015569E-01  0.13449000493E+00  0.19240168088E-01 0.  0.
         14    1    1    2    0    0  0.10751082296E-01 -0.17683299391E-01  0.88024220199E-02  0.22489274806E-01  0.00000000000E+00 0.  1.
     999901    1    3    3    0    0  0.66758555125E-01 -0.79422179225E-01  0.38948593549E-01  0.88695072026E+00  0.88000000000E+00 0. -1.
        -11    1    4    4    0    0 -0.23779304898E-01  0.26256337781E-01 -0.22819443794E-01  0.42140701835E-01  0.51100000000E-03 0. -1.
         11    1    4    4    0    0 -0.53730332523E-01  0.70849140836E-01 -0.24931571776E-01  0.92349303096E-01  0.51100000000E-03 0.  1.
</event>
<event>
 8    1  0.1066842E+005  0.1043930E+01  0.7957747E-01            NaN
         13   -1    0    0    0    0  0.00000000000E+00  0.00000000000E+00  0.74505805969E-08  0.10566000000E+00  0.10566000000E+00 0.  1.
     999900   -1    0    0    0    0 -0.00000000000E+00 -0.00000000000E+00 -0.74505805969E-08  0.93827000000E+00  0.93827000000E+00 0.  1.
     999902    2    1    2    0    0  0.77889099494E-02 -0.18454398605E-01  0.13339393466E-01  0.10198640206E+01  0.10195800357E+01 0.  0.
     999903    2    3    3    0    0  0.56025341281E-01 -0.92902331729E-01 -0.71231482823E-01  0.13137008075E+00  0.20359073253E-01 0.  0.
         14    1    1    2    0    0 -0.77889099494E-02  0.18454398605E-01 -0.13339393466E-01  0.24065979392E-01  0.00000000000E+00 0. -1.
     999901    1    3    3    0    0 -0.48236431332E-01  0.74447933124E-01  0.84570876289E-01  0.88849393986E+00  0.88000000000E+00 0. -1.
        -11    1    4    4    0    0  0.33506773237E-01 -0.38388384551E-01 -0.27187766547E-01  0.57756451519E-01  0.51100000000E-03 0.  1.
         11    1    4    4    0    0  0.22518568044E-01 -0.54513947178E-01 -0.44043716276E-01  0.73613629228E-01  0.51100000000E-03 0. -1.
</event>
<event>
 8    1  0.1066842E+005  0.1043930E+01  0.7957747E-01            NaN
         13   -1    0    0    0    0  0.00000000000E+00  0.00000000000E+00  0.74505805969E-08  0.10566000000E+00  0.10566000000E+00 0.  1.
     999900   -1    0    0    0    0 -0.00000000000E+00 -0.00000000000E+00 -0.74505805969E-08  0.93827000000E+00  0.93827000000E+00 0.  1.
     999902    2    1    2    0    0 -0.13550612512E-01  0.29344160674E-02 -0.20026452150E-01  0.10195724820E+01  0.10192814907E+01 0.  0.
     999903    2    3    3    0    0 -0.86572745979E-01 -0.95496950017E-01 -0.12754277798E-01  0.13104907189E+00  0.19916822836E-01 0.  0.
         14    1    1    2    0    0  0.13550612512E-01 -0.29344160674E-02  0.20026452150E-01  0.24357517994E-01  0.00000000000E+00 0.  1.
     999901    1    3    3    0    0  0.73022133468E-01  0.98431366085E-01 -0.72721743522E-02  0.88852341012E+00  0.88000000000E+00 0.  1.
        -11    1    4    4    0    0 -0.20748199697E-01 -0.11579861626E-01 -0.18430225325E-02  0.23837760780E-01  0.51100000000E-03 0.  1.
         11    1    4    4    0    0 -0.65824546282E-01 -0.83917088391E-01 -0.10911255266E-01  0.10721131111E+00  0.51100000000E-03 0. -1.
</event>
<event>
 8    1  0.1066842E+005  0.1043930E+01  0.7957747E-01            NaN
         13   -1    0    0    0    0  0.00000000000E+00  0.00000000000E+00  0.74505805969E-08  0.10566000000E+00  0.10566000000E+00 0. -1.
     999900   -1    0    0    0    0 -0.00000000000E+00 -0.00000000000E+00 -0.74505805969E-08  0.93827000000E+00  0.93827000000E+00 0. -1.
     999902    2    1    2    0    0  0.22442203033E-01  0.55634428013E-02 -0.17508205339E-02  0.10207422932E+01  0.10204788873E+01 0.  0.
     999903    2    3    3    0    0 -0.92058795520E-01 -0.62458800849E-02  0.87392029369E-01  0.12878019400E+00  0.20811984956E-01 0.  0.
         14    1    1    2    0    0 -0.22442203033E-01 -0.55634428013E-02  0.17508205339E-02  0.23187706772E-01  0.00000000000E+00 0. -1.
     999901    1    3    3    0    0  0.11450099855E+00  0.11809322886E-01 -0.89142849903E-01  0.89196209923E+00  0.88000000000E+00 0.  1.
        -11    1    4    4    0    0 -0.13571510144E-01 -0.84193482635E-02  0.12722701276E-01  0.20425463557E-01  0.51100000000E-03 0.  1.
         11    1    4    4    0    0 -0.78487285377E-01  0.21734681786E-02  0.74669328093E-01  0.10835473044E+00  0.51100000000E-03 0. -1.
</event>
<event>
 8    1  0.1066842E+005  0.1043930E+01  0.7957747E-01            NaN
         13   -1    0    0    0    0  0.00000000000E+00  0.00000000000E+00  0.74505805969E-08  0.10566000000E+00  0.10566000000E+00 0.  1.
     999900   -1    0    0    0    0 -0.00000000000E+00 -0.00000000000E+00 -0.74505805969E-08  0.93827000000E+00  0.93827000000E+00 0. -1.
     999902    2    1    2    0    0 -0.14960570497E-01  0.17482626053E-01  0.35372083800E-02  0.10206496923E+01  0.10203841540E+01 0.  0.
     999903    2    3    3    0    0 -0.84509779033E-01  0.21742554892E-01  0.98213309003E-01  0.13283281736E+00  0.19597496207E-01 0.  0.
         14    1    1    2    0    0  0.14960570497E-01 -0.17482626053E-01 -0.35372083800E-02  0.23280307696E-01  0.00000000000E+00 0. -1.
     999901    1    3    3    0    0  0.69549208536E-01 -0.42599288389E-02 -0.94676100623E-01  0.88781687494E+00  0.88000000000E+00 0. -1.
        -11    1    4    4    0    0 -0.41309108099E-01  0.17940748574E-02  0.38723363153E-01  0.56651752766E-01  0.51100000000E-03 0. -1.
         11    1    4    4    0    0 -0.43200670934E-01  0.19948480034E-01  0.59489945850E-01  0.76181064597E-01  0.51100000000E-03 0.  1.
</event>
<event>
 8    1  0.1107904E+005  0.1043930E+01  0.7957747E-01            NaN
         13   -1    0    0    0    0  0.00000000000E+00  0.00000000000E+00  0.74505805969E-08  0.10566000000E+00  0.10566000000E+00 0.  1.
     999900   -1    0    0    0    0 -0.00000000000E+00 -0.00000000000E+00 -0.74505805969E-08  0.93827000000E+00  0.93827000000E+00 0.  1.
     999902    2    1    2    0    0 -0.32062432964E-02 -0.93342657070E-02  0.20085305462E-01  0.10215508131E+01  0.10213056524E+01 0.  0.
     999903    2    3    3    0    0 -0.97334111472E-01  0.39834661396E-01  0.79664064602E-01  0.13316617368E+00  0.18059266821E-01 0.  0.
         14    1    1    2    0    0  0.32062432964E-02  0.93342657070E-02 -0.20085305462E-01  0.22379186935E-01  0.00000000000E+00 0. -1.
     999901    1    3    3    0    0  0.94127868176E-01 -0.49168927103E-01 -0.59578759140E-01  0.88838463939E+00  0.88000000000E+00 0. -1.
        -11    1    4    4    0    0 -0.34016725311E-01  0.23400837650E-01  0.30662283648E-01  0.51431250841E-01  0.51100000000E-03 0. -1.
         11    1    4    4    0    0 -0.63317386161E-01  0.16433823747E-01  0.49001780955E-01  0.81734922835E-01  0.51100000000E-03 0.  1.
</event>
<event>
 8    1  0.1066842E+005  0.1043930E+01  0.7957747E-01            NaN
         13   -1    0    0    0    0  0.00000000000E+00  0.00000000000E+00  0.74505805969E-08  0.10566000000E+00  0.10566000000E+00 0. -1.
     999900   -1    0    0    0    0 -0.00000000000E+00 -0.00000000000E+00 -0.74505805969E-08  0.93827000000E+00  0.93827000000E+00 0. -1.
     999902    2    1    2    0    0 -0.38854616578E-02  0.52644416556E-02  0.23719848735E-01  0.10193242612E+01  0.10190272357E+01 0.  0.
     999903    2    3    3    0    0  0.16824152569E-01  0.39492280724E-01  0.12399644141E+00  0.13272636579E+00  0.19961922481E-01 0.  0.
         14    1    1    2    0    0  0.38854616578E-02 -0.52644416556E-02 -0.23719848735E-01  0.24605738807E-01  0.00000000000E+00 0.  1.
     999901    1    3    3    0    0 -0.20709614227E-01 -0.34227839068E-01 -0.10027659267E+00  0.88659789540E+00  0.88000000000E+00 0.  1.
        -11    1    4    4    0    0  0.16921541326E-02  0.77353177911E-02  0.70898136647E-02  0.10640728628E-01  0.51100000000E-03 0. -1.
         11    1    4    4    0    0  0.15131998437E-01  0.31756962933E-01  0.11690662774E+00  0.12208563717E+00  0.51100000000E-03 0.  1.
</event>
<event>
 6    1  0.1066842E+005  0.1043930E+01  0.7957747E-01            NaN
         13   -1    0    0    0    0  0.00000000000E+00  0.00000000000E+00  0.74505805969E-08  0.10566000000E+00  0.10566000000E+00 0.  1.
     999900   -1    0    0    0    0 -0.00000000000E+00 -0.00000000000E+00 -0.74505805969E-08  0.93827000000E+00  0.93827000000E+00 0.  1.
         14    1    1    2    0    0 -0.23087508827E-01 -0.17144064753E-01  0.39544322742E-01  0.48894841050E-01  0.00000000000E+00 0.  1.
     999901    1    1    2    0    0  0.10152574406E+00  0.60875688680E-01 -0.72967726594E-01  0.89091953357E+00  0.88000000000E+00 0. -1.
        -11    1    1    2    0    0 -0.28909241017E-01 -0.18272651157E-01 -0.74860197620E-02  0.35013363297E-01  0.51100000000E-03 0.  1.
         11    1    1    2    0    0 -0.49528994220E-01 -0.25458972770E-01  0.40909423614E-01  0.69102262079E-01  0.51100000000E-03 0. -1.
</event>
<event>
 8    1  0.1066842E+005  0.1043930E+01  0.7957747E-01            NaN
         13   -1    0    0    0    0  0.00000000000E+00  0.00000000000E+00  0.74505805969E-08  0.10566000000E+00  0.10566000000E+00 0. -1.
     999900   -1    0    0    0    0 -0.00000000000E+00 -0.00000000000E+00 -0.74505805969E-08  0.93827000000E+00  0.93827000000E+00 0. -1.
     999902    2    1    2    0    0 -0.12997443283E-01  0.34885885429E-02  0.19714721951E-01  0.10200600598E+01  0.10197807370E+01 0.  0.
     999903    2    3    3    0    0  0.19360941192E-02 -0.10803178217E+00  0.71942130879E-01  0.13136016343E+00  0.20129776994E-01 0.  0.
         14    1    1    2    0    0  0.12997443283E-01 -0.34885885429E-02 -0.19714721951E-01  0.23869940166E-01  0.00000000000E+00 0.  1.
     999901    1    3    3    0    0 -0.14933537403E-01  0.11152037071E+00 -0.52227408928E-01  0.88869989640E+00  0.88000000000E+00 0.  1.
        -11    1    4    4    0    0  0.79120043893E-02 -0.44946224861E-01  0.38485160724E-01  0.59700348908E-01  0.51100000000E-03 0. -1.
         11    1    4    4    0    0 -0.59759102701E-02 -0.63085557309E-01  0.33456970155E-01  0.71659814523E-01  0.51100000000E-03 0.  1.
</event>
<event>
 8    1  0.1066842E+005  0.1043930E+01  0.7957747E-01            NaN
         13   -1    0    0    0    0  0.00000000000E+00  0.00000000000E+00  0.74505805969E-08  0.10566000000E+00  0.10566000000E+00 0.  1.
     999900   -1    0    0    0    0 -0.00000000000E+00 -0.00000000000E+00 -0.74505805969E-08  0.93827000000E+00  0.93827000000E+00 0.  1.
     999902    2    1    2    0    0 -0.47081560246E-02 -0.16403456232E-01  0.13586049436E-01  0.10221166818E+01  0.10218838928E+01 0.  0.
     999903    2    3    3    0    0 -0.83417646008E-01 -0.84373470290E-01 -0.57043036398E-01  0.13318272795E+00  0.20157997636E-01 0.  0.
         14    1    1    2    0    0  0.47081560246E-02  0.16403456232E-01 -0.13586049436E-01  0.21813318152E-01  0.00000000000E+00 0.  1.
     999901    1    3    3    0    0  0.78709489984E-01  0.67970014058E-01  0.70629085834E-01  0.88893395390E+00  0.88000000000E+00 0. -1.
        -11    1    4    4    0    0 -0.37132315668E-01 -0.50231345612E-01 -0.34852793218E-01  0.71533036179E-01  0.51100000000E-03 0.  1.
         11    1    4    4    0    0 -0.46285330341E-01 -0.34142124678E-01 -0.22190243179E-01  0.61649691773E-01  0.51100000000E-03 0. -1.
</event>
<event>
 8    1  0.1066842E+005  0.1043930E+01  0.7957747E-01            NaN
         13   -1    0    0    0    0  0.00000000000E+00  0.00000000000E+00  0.74505805969E-08  0.10566000000E+00  0.10566000000E+00 0. -1.
     999900   -1    0    0    0    0 -0.00000000000E+00 -0.00000000000E+00 -0.74505805969E-08  0.93827000000E+00  0.93827000000E+00 0.  1.
     999902    2    1    2    0    0 -0.18210169904E-01  0.12299652194E-01 -0.72451525084E-02  0.10207916343E+01  0.10205293610E+01 0.  0.
     999903    2    3    3    0    0 -0.11752304378E+00  0.54971592534E-01  0.24676833958E-01  0.13360340477E+00  0.20183702007E-01 0.  0.
         14    1    1    2    0    0  0.18210169904E-01 -0.12299652194E-01  0.72451525084E-02  0.23138365692E-01  0.00000000000E+00 0. -1.
     999901    1    3    3    0    0  0.99312873877E-01 -0.42671940340E-01 -0.31921986466E-01  0.88718822954E+00  0.88000000000E+00 0.  1.
        -11    1    4    4    0    0 -0.41299769723E-01  0.29680182410E-01  0.66515012850E-02  0.51294130243E-01  0.51100000000E-03 0.  1.
         11    1    4    4    0    0 -0.76223274058E-01  0.25291410124E-01  0.18025332673E-01  0.82309274527E-01  0.51100000000E-03 0. -1.
</event>
<event>
 8    1  0.1066842E+005  0.1043930E+01  0.7957747E-01            NaN
         13   -1    0    0    0    0  0.00000000000E+00  0.00000000000E+00  0.74505805969E-08  0.10566000000E+00  0.10566000000E+00 0. -1.
     999900   -1    0    0    0    0 -0.00000000000E+00 -0.00000000000E+00 -0.74505805969E-08  0.93827000000E+00  0.93827000000E+00 0.  1.
     999902    2    1    2    0    0 -0.23513538882E-01 -0.78907407264E-02 -0.14466376399E-01  0.10152171745E+01  0.10148110588E+01 0.  0.
     999903    2    3    3    0    0  0.11704812770E+00  0.23582370096E-01  0.20711800308E-01  0.12281275784E+00  0.19939970882E-01 0.  0.
         14    1    1    2    0    0  0.23513538882E-01  0.78907407264E-02  0.14466376399E-01  0.28712825463E-01  0.00000000000E+00 0. -1.
     999901    1    3    3    0    0 -0.14056166659E+00 -0.31473110823E-01 -0.35178176707E-01  0.89240441669E+00  0.88000000000E+00 0.  1.
        -11    1    4    4    0    0  0.48507086605E-01 -0.44990730455E-04  0.67012868981E-02  0.48970479293E-01  0.51100000000E-03 0. -1.
         11    1    4    4    0    0  0.68541041098E-01  0.23627360827E-01  0.14010513410E-01  0.73842278550E-01  0.51100000000E-03 0.  1.
</event>
<event>
 8    1  0.1066842E+005  0.1043930E+01  0.7957747E-01            NaN
         13   -1    0    0    0    0  0.00000000000E+00  0.00000000000E+00  0.74505805969E-08  0.10566000000E+00  0.10566000000E+00 0.  1.
     999900   -1    0    0    0    0 -0.00000000000E+00 -0.00000000000E+00 -0.74505805969E-08  0.93827000000E+00  0.93827000000E+00 0.  1.
     999902    2    1    2    0    0 -0.74339687428E-02  0.40292630630E-02  0.21671162108E-01  0.10206676244E+01  0.10204024997E+01 0.  0.
     999903    2    3    3    0    0  0.39393118563E-01 -0.34361802671E-01  0.12072966450E+00  0.13304200684E+00  0.19798293376E-01 0.  0.
         14    1    1    2    0    0  0.74339687428E-02 -0.40292630630E-02 -0.21671162108E-01  0.23262375614E-01  0.00000000000E+00 0. -1.
     999901    1    3    3    0    0 -0.46827087306E-01  0.38391065734E-01 -0.99058502389E-01  0.88762561755E+00  0.88000000000E+00 0. -1.
        -11    1    4    4    0    0  0.46779451333E-02 -0.11711558103E-01  0.15812093907E-01  0.20231836263E-01  0.51100000000E-03 0. -1.
         11    1    4    4    0    0  0.34715173430E-01 -0.22650244569E-01  0.10491757059E+00  0.11281017057E+00  0.51100000000E-03 0.  1.
</event>
<event>
 8    1  0.1066842E+005  0.1043930E+01  0.7957747E-01            NaN
         13   -1    0    0    0    0  0.00000000000E+00  0.00000000000E+00  0.74505805969E-08  0.10566000000E+00  0.10566000000E+00 0. -1.
     999900   -1    0    0    0    0 -0.00000000000E+00 -0.00000000000E+00 -0.74505805969E-08  0.93827000000E+00  0.93827000000E+00 0. -1.
     999902    2    1    2    0    0  0.13527788460E-01 -0.63457460465E-02  0.11991108057E-02  0.10289397558E+01  0.10288305564E+01 0.  0.
     999903    2    3    3    0    0  0.18017028823E-01 -0.11456357010E+00 -0.74438526532E-01  0.13907892238E+00  0.18773052404E-01 0.  0.
         14    1    1    2    0    0 -0.13527788460E-01  0.63457460465E-02 -0.11991108057E-02  0.14990244168E-01  0.00000000000E+00 0.  1.
     999901    1    3    3    0    0 -0.44892403632E-02  0.10821782406E+00  0.75637637338E-01  0.88986083345E+00  0.88000000000E+00 0.  1.
        -11    1    4    4    0    0  0.51190969093E-02 -0.85538410327E-01 -0.53096197850E-01  0.10080918679E+00  0.51100000000E-03 0.  1.
         11    1    4    4    0    0  0.12897931914E-01 -0.29025159777E-01 -0.21342328682E-01  0.38269735592E-01  0.51100000000E-03 0. -1.
</event>
<event>
 8    1  0.1066842E+005  0.1043930E+01  0.7957747E-01            NaN
         13   -1    0    0    0    0  0.00000000000E+00  0.00000000000E+00  0.74505805969E-08  0.10566000000E+00  0.10566000000E+00 0. -1.
     999900   -1    0    0    0    0 -0.00000000000E+00 -0.00000000000E+00 -0.74505805969E-08  0.93827000000E+00  0.93827000000E+00 0. -1.
     999902    2    1    2    0    0 -0.20864295703E-01 -0.99509824689E-02  0.52394733731E-02  0.10202278278E+01  0.10199524634E+01 0.  0.
     999903    2    3    3    0    0 -0.99817598182E-01  0.50589165533E-01 -0.66573155225E-01  0.13171458244E+00  0.19847661205E-01 0.  0.
         14    1    1    2    0    0  0.20864295703E-01  0.99509824689E-02 -0.52394733731E-02  0.23702172232E-01  0.00000000000E+00 0.  1.
     999901    1    3    3    0    0  0.78953302479E-01 -0.60540148002E-01  0.71812628598E-01  0.88851324533E+00  0.88000000000E+00 0.  1.
        -11    1    4    4    0    0 -0.25541810833E-01  0.74235737462E-02 -0.24024198432E-01  0.35845735856E-01  0.51100000000E-03 0. -1.
         11    1    4    4    0    0 -0.74275787349E-01  0.43165591787E-01 -0.42548956794E-01  0.95868846587E-01  0.51100000000E-03 0.  1.
</event>
<event>
 8    1  0.1066842E+005  0.1043930E+01  0.7957747E-01            NaN
         13   -1    0    0    0    0  0.00000000000E+00  0.00000000000E+00  0.74505805969E-08  0.10566000000E+00  0.10566000000E+00 0. -1.
     999900   -1    0    0    0    0 -0.00000000000E+00 -0.00000000000E+00 -0.74505805969E-08  0.93827000000E+00  0.93827000000E+00 0. -1.
     999902    2    1    2    0    0  0.22231306984E-01 -0.91687951646E-03  0.40832254926E-02  0.10213082315E+01  0.10210576670E+01 0.  0.
     999903    2    3    3    0    0 -0.84770093935E-01 -0.57923823846E-01 -0.76247950321E-01  0.12937090789E+00  0.19543379564E-01 0.  0.
         14    1    1    2    0    0 -0.22231306984E-01  0.91687951646E-03 -0.40832254926E-02  0.22621768470E-01  0.00000000000E+00 0.  1.
     999901    1    3    3    0    0  0.10700140092E+00  0.57006944329E-01  0.80331175813E-01  0.89193732364E+00  0.88000000000E+00 0.  1.
        -11    1    4    4    0    0 -0.39443146315E-01 -0.15665414613E-01 -0.33758325466E-01  0.54231473016E-01  0.51100000000E-03 0. -1.
         11    1    4    4    0    0 -0.45326947619E-01 -0.42258409233E-01 -0.42489624855E-01  0.75139434871E-01  0.51100000000E-03 0.  1.
</event>
<event>
 8    1  0.1066842E+005  0.1043930E+01  0.7957747E-01            NaN
         13   -1    0    0    0    0  0.00000000000E+00  0.00000000000E+00  0.74505805969E-08  0.10566000000E+00  0.10566000000E+00 0. -1.
     999900   -1    0    0    0    0 -0.00000000000E+00 -0.00000000000E+00 -0.74505805969E-08  0.93827000000E+00  0.93827000000E+00 0. -1.
     999902    2    1    2    0    0 -0.32647776044E-03  0.22723145875E-01  0.29630481812E-02  0.10210121554E+01  0.10207549137E+01 0.  0.
     999903    2    3    3    0    0  0.10227478206E+00 -0.56407843819E-02 -0.78906651461E-01  0.13082443432E+00  0.19920428624E-01 0.  0.
         14    1    1    2    0    0  0.32647776044E-03 -0.22723145875E-01 -0.29630481812E-02  0.22917844592E-01  0.00000000000E+00 0. -1.
     999901    1    3    3    0    0 -0.10260125982E+00  0.28363930257E-01  0.81869699642E-01  0.89018772109E+00  0.88000000000E+00 0.  1.
        -11    1    4    4    0    0  0.36494605873E-01 -0.62371172789E-02 -0.17987573028E-01  0.41165176961E-01  0.51100000000E-03 0. -1.
         11    1    4    4    0    0  0.65780176187E-01  0.59633289700E-03 -0.60919078433E-01  0.89659257359E-01  0.51100000000E-03 0.  1.
</event>
<event>
 8    1  0.1066842E+005  0.1043930E+01  0.7957747E-01            NaN
         13   -1    0    0    0    0  0.00000000000E+00  0.00000000000E+00  0.74505805969E-08  0.10566000000E+00  0.10566000000E+00 0. -1.
     999900   -1    0    0    0    0 -0.00000000000E+00 -0.00000000000E+00 -0.74505805969E-08  0.93827000000E+00  0.93827000000E+00 0.  1.
     999902    2    1    2    0    0  0.10236697091E-01  0.18124860868E-01  0.96678998014E-02  0.10209785548E+01  0.10207205497E+01 0.  0.
     999903    2    3    3    0    0  0.33910252947E-01  0.75953832306E-02 -0.12438846192E+00  0.13044926544E+00  0.18355552127E-01 0.  0.
         14    1    1    2    0    0 -0.10236697091E-01 -0.18124860868E-01 -0.96678998014E-02  0.22951445170E-01  0.00000000000E+00 0.  1.
     999901    1    3    3    0    0 -0.23673555856E-01  0.10529477637E-01  0.13405636172E+00  0.89052928939E+00  0.88000000000E+00 0. -1.
        -11    1    4    4    0    0  0.17234316277E-01  0.45453523346E-03 -0.32575019029E-01  0.36859479724E-01  0.51100000000E-03 0.  1.
         11    1    4    4    0    0  0.16675936670E-01  0.71408479971E-02 -0.91813442890E-01  0.93589785715E-01  0.51100000000E-03 0. -1.
</event>
<event>
 8    1  0.1066842E+005  0.1043930E+01  0.7957747E-01            NaN
         13   -1    0    0    0    0  0.00000000000E+00  0.00000000000E+00  0.74505805969E-08  0.10566000000E+00  0.10566000000E+00 0. -1.
     999900   -1    0    0    0    0 -0.00000000000E+00 -0.00000000000E+00 -0.74505805969E-08  0.93827000000E+00  0.93827000000E+00 0.  1.
     999902    2    1    2    0    0  0.22599125640E-01 -0.62015043539E-02 -0.46743641998E-02  0.10200337907E+01  0.10197538455E+01 0.  0.
     999903    2    3    3    0    0  0.60952275229E-01  0.25091789010E-01 -0.11268826661E+00  0.13204885990E+00  0.19836285919E-01 0.  0.
         14    1    1    2    0    0 -0.22599125640E-01  0.62015043539E-02  0.46743641998E-02  0.23896209252E-01  0.00000000000E+00 0.  1.
     999901    1    3    3    0    0 -0.38353149589E-01 -0.31293293364E-01  0.10801390241E+00  0.88798493084E+00  0.88000000000E+00 0. -1.
        -11    1    4    4    0    0  0.45481169869E-01  0.27481159841E-01 -0.85354542241E-01  0.10054556162E+00  0.51100000000E-03 0.  1.
         11    1    4    4    0    0  0.15471105360E-01 -0.23893708308E-02 -0.27333724369E-01  0.31503298286E-01  0.51100000000E-03 0. -1.
</event>
<event>
 8    1  0.1066842E+005  0.1043930E+01  0.7957747E-01            NaN
         13   -1    0    0    0    0  0.00000000000E+00  0.00000000000E+00  0.74505805969E-08  0.10566000000E+00  0.10566000000E+00 0.  1.
     999900   -1    0    0    0    0 -0.00000000000E+00 -0.00000000000E+00 -0.74505805969E-08  0.93827000000E+00  0.93827000000E+00 0.  1.
     999902    2    1    2    0    0 -0.49297756904E-02  0.14893505692E-01 -0.18075686582E-01  0.10199957224E+01  0.10197148739E+01 0.  0.
     999903    2    3    3    0    0 -0.85584102450E-01  0.59191956961E-01 -0.80394685617E-01  0.13300579523E+00  0.19972724611E-01 0.  0.
         14    1    1    2    0    0  0.49297756904E-02 -0.14893505692E-01  0.18075686582E-01  0.23934277628E-01  0.00000000000E+00 0.  1.
     999901    1    3    3    0    0  0.80654326760E-01 -0.44298451268E-01  0.62318999035E-01  0.88698992714E+00  0.88000000000E+00 0. -1.
        -11    1    4    4    0    0 -0.19141794696E-01  0.54646783137E-02 -0.99361496443E-02  0.22254419876E-01  0.51100000000E-03 0.  1.
         11    1    4    4    0    0 -0.66442307754E-01  0.53727278647E-01 -0.70458535973E-01  0.11075137535E+00  0.51100000000E-03 0. -1.
</event>
<event>
 8    1  0.1066842E+005  0.1043930E+01  0.7957747E-01            NaN
         13   -1    0    0    0    0  0.00000000000E+00  0.00000000000E+00  0.74505805969E-08  0.10566000000E+00  0.10566000000E+00 0.  1.
     999900   -1    0    0    0    0 -0.00000000000E+00 -0.00000000000E+00 -0.74505805969E-08  0.93827000000E+00  0.93827000000E+00 0.  1.
     999902    2    1    2    0    0 -0.17401454510E-02 -0.23810619202E-01  0.31066294420E-02  0.10198546009E+01  0.10195703910E+01 0.  0.
     999903    2    3    3    0    0  0.91051091688E-01  0.86146031989E-01 -0.15415768159E-01  0.12797806350E+00  0.20719524733E-01 0.  0.
         14    1    1    2    0    0  0.17401454510E-02  0.23810619202E-01 -0.31066294420E-02  0.24075399051E-01  0.00000000000E+00 0.  1.
     999901    1    3    3    0    0 -0.92791237139E-01 -0.10995665119E+00  0.18522397601E-01  0.89187653744E+00  0.88000000000E+00 0.  1.
        -11    1    4    4    0    0  0.35268530024E-01  0.46616074884E-01 -0.33664501046E-02  0.58553580206E-01  0.51100000000E-03 0.  1.
         11    1    4    4    0    0  0.55782561665E-01  0.39529957105E-01 -0.12049318054E-01  0.69424483298E-01  0.51100000000E-03 0. -1.
</event>
<event>
 8    1  0.1066842E+005  0.1043930E+01  0.7957747E-01            NaN
         13   -1    0    0    0    0  0.00000000000E+00  0.00000000000E+00  0.74505805969E-08  0.10566000000E+00  0.10566000000E+00 0.  1.
     999900   -1    0    0    0    0 -0.00000000000E+00 -0.00000000000E+00 -0.74505805969E-08  0.93827000000E+00  0.93827000000E+00 0. -1.
     999902    2    1    2    0    0 -0.17462208738E-01 -0.23827846516E-02 -0.14505419827E-01  0.10211042776E+01  0.10208491231E+01 0.  0.
     999903    2    3    3    0    0  0.80746028299E-01 -0.99675097636E-01 -0.10107018531E-01  0.13030127028E+00  0.20523718943E-01 0.  0.
         14    1    1    2    0    0  0.17462208738E-01  0.23827846516E-02  0.14505419827E-01  0.22825722356E-01  0.00000000000E+00 0.  1.
     999901    1    3    3    0    0 -0.98208237036E-01  0.97292312985E-01 -0.43984012961E-02  0.89080300736E+00  0.88000000000E+00 0. -1.
        -11    1    4    4    0    0  0.60338452619E-01 -0.59225585821E-01 -0.48550169068E-02  0.84689026388E-01  0.51100000000E-03 0. -1.
         11    1    4    4    0    0  0.20407575679E-01 -0.40449511815E-01 -0.52520016244E-02  0.45612243896E-01  0.51100000000E-03 0.  1.
</event>
<event>
 8    1  0.1066842E+005  0.1043930E+01  0.7957747E-01            NaN
         13   -1    0    0    0    0  0.00000000000E+00  0.00000000000E+00  0.74505805969E-08  0.10566000000E+00  0.10566000000E+00 0. -1.
     999900   -1    0    0    0    0 -0.00000000000E+00 -0.00000000000E+00 -0.74505805969E-08  0.93827000000E+00  0.93827000000E+00 0.  1.
     999902    2    1    2    0    0 -0.20443192055E-01 -0.84344212288E-02 -0.95747577355E-02  0.10198314617E+01  0.10195466986E+01 0.  0.
     999903    2    3    3    0    0 -0.70303656543E-01 -0.76280174526E-01  0.78212695766E-01  0.13146456162E+00  0.20110595041E-01 0.  0.
         14    1    1    2    0    0  0.20443192055E-01  0.84344212288E-02  0.95747577355E-02  0.24098538308E-01  0.00000000000E+00 0. -1.
     999901    1    3    3    0    0  0.49860464488E-01  0.67845753297E-01 -0.87787453501E-01  0.88836690008E+00  0.88000000000E+00 0.  1.
        -11    1    4    4    0    0 -0.32746928839E-01 -0.32472645045E-01  0.22746147633E-01  0.51424530895E-01  0.51100000000E-03 0. -1.
         11    1    4    4    0    0 -0.37556727703E-01 -0.43807529481E-01  0.55466548133E-01  0.80040030721E-01  0.51100000000E-03 0.  1.
</event>
<event>
 8    1  0.1066842E+005  0.1043930E+01  0.7957747E-01            NaN
         13   -1    0    0    0    0  0.00000000000E+00  0.00000000000E+00  0.74505805969E-08  0.10566000000E+00  0.10566000000E+00 0.  1.
     999900   -1    0    0    0    0 -0.00000000000E+00 -0.00000000000E+00 -0.74505805969E-08  0.93827000000E+00  0.93827000000E+00 0.  1.
     999902    2    1    2    0    0  0.18029347876E-01 -0.13458628718E-01  0.12643318487E-01  0.10181221412E+01  0.10177949935E+01 0.  0.
     999903    2    3    3    0    0  0.91661084167E-01  0.37267130379E-01 -0.79830223927E-01  0.12877064083E+00  0.20455315439E-01 0.  0.
         14    1    1    2    0    0 -0.18029347876E-01  0.13458628718E-01 -0.12643318487E-01  0.25807858768E-01  0.00000000000E+00 0. -1.
     999901    1    3    3    0    0 -0.73631736290E-01 -0.50725759097E-01  0.92473542414E-01  0.88935150040E+00  0.88000000000E+00 0.  1.
        -11    1    4    4    0    0  0.49138194835E-01  0.20263215291E-01 -0.29781340589E-01  0.60929052625E-01  0.51100000000E-03 0.  1.
         11    1    4    4    0    0  0.42522889332E-01  0.17003915088E-01 -0.50048883338E-01  0.67841588203E-01  0.51100000000E-03 0. -1.
</event>
<event>
 8    1  0.1066842E+005  0.1043930E+01  0.7957747E-01            NaN
         13   -1    0    0    0    0  0.00000000000E+00  0.00000000000E+00  0.74505805969E-08  0.10566000000E+00  0.10566000000E+00 0.  1.
     999900   -1    0    0    0    0 -0.00000000000E+00 -0.00000000000E+00 -0.74505805969E-08  0.93827000000E+00  0.93827000000E+00 0.  1.
     999902    2    1    2    0    0 -0.19904749057E-01 -0.10612572834E-01 -0.76720158070E-02  0.10201038471E+01  0.10198255602E+01 0.  0.
     999903    2    3    3    0    0  0.39548312906E-01  0.12022074326E+00  0.66189581342E-02  0.12833243290E+00  0.20206597026E-01 0.  0.
         14    1    1    2    0    0  0.19904749057E-01  0.10612572834E-01  0.76720158070E-02  0.23826152936E-01  0.00000000000E+00 0. -1.
     999901    1    3    3    0    0 -0.59453061963E-01 -0.13083331610E+00 -0.14290973941E-01  0.89177141416E+00  0.88000000000E+00 0. -1.
        -11    1    4    4    0    0  0.37997254398E-01  0.90631358804E-01  0.84722221565E-02  0.98640124745E-01  0.51100000000E-03 0. -1.
         11    1    4    4    0    0  0.15510585083E-02  0.29589384460E-01 -0.18532640223E-02  0.29692308158E-01  0.51100000000E-03 0.  1.
</event>
<event>
 8    1  0.1066842E+005  0.1043930E+01  0.7957747E-01            NaN
         13   -1    0    0    0    0  0.00000000000E+00  0.00000000000E+00  0.74505805969E-08  0.10566000000E+00  0.10566000000E+00 0. -1.
     999900   -1    0    0    0    0 -0.00000000000E+00 -0.00000000000E+00 -0.74505805969E-08  0.93827000000E+00  0.93827000000E+00 0. -1.
     999902    2    1    2    0    0  0.50208585687E-02  0.56686583308E-02  0.22046130912E-01  0.10206196033E+01  0.10203533701E+01 0.  0.
     999903    2    3    3    0    0  0.11108815430E+00  0.67685473549E-01 -0.45034659347E-02  0.13168696369E+00  0.19981837929E-01 0.  0.
         14    1    1    2    0    0 -0.50208585687E-02 -0.56686583308E-02 -0.22046130912E-01  0.23310396741E-01  0.00000000000E+00 0.  1.
     999901    1    3    3    0    0 -0.10606729573E+00 -0.62016815218E-01  0.26549596847E-01  0.88893263957E+00  0.88000000000E+00 0. -1.
        -11    1    4    4    0    0  0.91749988725E-01  0.63872420951E-01 -0.20077668456E-02  0.11181251646E+00  0.51100000000E-03 0.  1.
         11    1    4    4    0    0  0.19338165570E-01  0.38130525974E-02 -0.24956990891E-02  0.19874447229E-01  0.51100000000E-03 0. -1.
</event>
<event>
 8    1  0.1066842E+005  0.1043930E+01  0.7957747E-01            NaN
         13   -1    0    0    0    0  0.00000000000E+00  0.00000000000E+00  0.74505805969E-08  0.10566000000E+00  0.10566000000E+00 0.  1.
     999900   -1    0    0    0    0 -0.00000000000E+00 -0.00000000000E+00 -0.74505805969E-08  0.93827000000E+00  0.93827000000E+00 0. -1.
     999902    2    1    2    0    0 -0.10325675154E-01  0.25122612729E-02 -0.21421710552E-01  0.10200172271E+01  0.10197368891E+01 0.  0.
     999903    2    3    3    0    0  0.72357095477E-01  0.10566564262E+00 -0.95209567351E-02  0.13006290886E+00  0.20613935739E-01 0.  0.
         14    1    1    2    0    0  0.10325675154E-01 -0.25122612729E-02  0.21421710552E-01  0.23912772886E-01  0.00000000000E+00 0.  1.
     999901    1    3    3    0    0 -0.82682770631E-01 -0.10315338135E+00 -0.11900753817E-01  0.88995431826E+00  0.88000000000E+00 0.  1.
        -11    1    4    4    0    0  0.26237514155E-01  0.43911862386E-01 -0.13422959311E-01  0.52887576659E-01  0.51100000000E-03 0. -1.
         11    1    4    4    0    0  0.46119581322E-01  0.61753780236E-01  0.39020025754E-02  0.77175332198E-01  0.51100000000E-03 0.  1.
</event>
<event>
 8    1  0.1066842E+005  0.1043930E+01  0.7957747E-01            NaN
         13   -1    0    0    0    0  0.00000000000E+00  0.00000000000E+00  0.74505805969E-08  0.10566000000E+00  0.10566000000E+00 0.  1.
     999900   -1    0    0    0    0 -0.00000000000E+00 -0.00000000000E+00 -0.74505805969E-08  0.93827000000E+00  0.93827000000E+00 0. -1.
     999902    2    1    2    0    0 -0.47752794488E-02  0.16829866023E-01 -0.16107306134E-01  0.10201499034E+01  0.10198727040E+01 0.  0.
     999903    2    3    3    0    0 -0.10893451042E+00 -0.12363009766E-01  0.66741621614E-01  0.12966390449E+00  0.18404143597E-01 0.  0.
         14    1    1    2    0    0  0.47752794488E-02 -0.16829866023E-01  0.16107306134E-01  0.23780096616E-01  0.00000000000E+00 0.  1.
     999901    1    3    3    0    0  0.10415923097E+00  0.29192875789E-01 -0.82848927748E-01  0.89048599889E+00  0.88000000000E+00 0. -1.
        -11    1    4    4    0    0 -0.91044529577E-01 -0.74775461603E-02  0.47610737157E-01  0.10301487017E+00  0.51100000000E-03 0. -1.
         11    1    4    4    0    0 -0.17889980844E-01 -0.48854636056E-02  0.19130884457E-01  0.26649034323E-01  0.51100000000E-03 0.  1.
</event>
<event>
 8    1  0.1066842E+005  0.1043930E+01  0.7957747E-01            NaN
         13   -1    0    0    0    0  0.00000000000E+00  0.00000000000E+00  0.74505805969E-08  0.10566000000E+00  0.10566000000E+00 0. -1.
     999900   -1    0    0    0    0 -0.00000000000E+00 -0.00000000000E+00 -0.74505805969E-08  0.93827000000E+00  0.93827000000E+00 0. -1.
     999902    2    1    2    0    0  0.85525665343E-02  0.70837270408E-02  0.20937343044E-01  0.10202298330E+01  0.10199545157E+01 0.  0.
     999903    2    3    3    0    0 -0.93226194286E-01 -0.72290069108E-01  0.51513138628E-01  0.13028938837E+00  0.20118247403E-01 0.  0.
         14    1    1    2    0    0 -0.85525665343E-02 -0.70837270408E-02 -0.20937343044E-01  0.23700167022E-01  0.00000000000E+00 0.  1.
     999901    1    3    3    0    0  0.10177876082E+00  0.79373796148E-01 -0.30575795584E-01  0.88994044461E+00  0.88000000000E+00 0.  1.
        -11    1    4    4    0    0 -0.18637272006E-01 -0.22183284128E-01  0.61209769812E-02  0.29617114693E-01  0.51100000000E-03 0. -1.
         11    1    4    4    0    0 -0.74588922280E-01 -0.50106784980E-01  0.45392161647E-01  0.10067227368E+00  0.51100000000E-03 0.  1.
</event>
<event>
 8    1  0.1066842E+005  0.1043930E+01  0.7957747E-01            NaN
         13   -1    0    0    0    0  0.00000000000E+00  0.00000000000E+00  0.74505805969E-08  0.10566000000E+00  0.10566000000E+00 0.  1.
     999900   -1    0    0    0    0 -0.00000000000E+00 -0.00000000000E+00 -0.74505805969E-08  0.93827000000E+00  0.93827000000E+00 0. -1.
     999902    2    1    2    0    0 -0.10021314354E-01 -0.89714600448E-02  0.19354203169E-01  0.10203609734E+01  0.10200887299E+01 0.  0.
     999903    2    3    3    0    0  0.46343340659E-01 -0.11511498550E+00 -0.35480779650E-01  0.13050126662E+00  0.19301029863E-01 0.  0.
         14    1    1    2    0    0  0.10021314354E-01  0.89714600448E-02 -0.19354203169E-01  0.23569026646E-01  0.00000000000E+00 0. -1.
     999901    1    3    3    0    0 -0.56364655013E-01  0.10614352546E+00  0.54834982819E-01  0.88985970674E+00  0.88000000000E+00 0. -1.
        -11    1    4    4    0    0  0.43681006116E-01 -0.96523093302E-01 -0.24516868329E-01  0.10874776223E+00  0.51100000000E-03 0.  1.
         11    1    4    4    0    0  0.26623345430E-02 -0.18591892200E-01 -0.10963911321E-01  0.21753504390E-01  0.51100000000E-03 0. -1.
</event>
<event>
 8    1  0.1066842E+005  0.1043930E+01  0.7957747E-01            NaN
         13   -1    0    0    0    0  0.00000000000E+00  0.00000000000E+00  0.74505805969E-08  0.10566000000E+00  0.10566000000E+00 0.  1.
     999900   -1    0    0    0    0 -0.00000000000E+00 -0.00000000000E+00 -0.74505805969E-08  0.93827000000E+00  0.93827000000E+00 0.  1.
     999902    2    1    2    0    0 -0.16311745487E-03 -0.18147083135E-01  0.14154753569E-01  0.10209147815E+01  0.10206553242E+01 0.  0.
     999903    2    3    3    0    0 -0.11209522118E+00 -0.30285913851E-01 -0.56613910102E-01  0.13092357323E+00  0.21290186045E-01 0.  0.
         14    1    1    2    0    0  0.16311745487E-03  0.18147083135E-01 -0.14154753569E-01  0.23015218492E-01  0.00000000000E+00 0. -1.
     999901    1    3    3    0    0  0.11193210372E+00  0.12138830716E-01  0.70768663671E-01  0.88999120828E+00  0.88000000000E+00 0. -1.
        -11    1    4    4    0    0 -0.23722067163E-01 -0.10648069582E-01 -0.21780983742E-01  0.33923299222E-01  0.51100000000E-03 0. -1.
         11    1    4    4    0    0 -0.88373154014E-01 -0.19637844268E-01 -0.34832926360E-01  0.97000274008E-01  0.51100000000E-03 0.  1.
</event>
<event>
 8    1  0.1066842E+005  0.1043930E+01  0.7957747E-01            NaN
         13   -1    0    0    0    0  0.00000000000E+00  0.00000000000E+00  0.74505805969E-08  0.10566000000E+00  0.10566000000E+00 0. -1.
     999900   -1    0    0    0    0 -0.00000000000E+00 -0.00000000000E+00 -0.74505805969E-08  0.93827000000E+00  0.93827000000E+00 0. -1.
     999902    2    1    2    0    0  0.36999211628E-02  0.81815761465E-02  0.20475569532E-01  0.10215720808E+01  0.10213273910E+01 0.  0.
     999903    2    3    3    0    0 -0.12370326578E+00 -0.11385032305E-01  0.38227926168E-01  0.13200501169E+00  0.23061479725E-01 0.  0.
         14    1    1    2    0    0 -0.36999211628E-02 -0.81815761465E-02 -0.20475569532E-01  0.22357919235E-01  0.00000000000E+00 0.  1.
     999901    1    3    3    0    0  0.12740318695E+00  0.19566608451E-01 -0.17752356636E-01  0.88956706907E+00  0.88000000000E+00 0. -1.
        -11    1    4    4    0    0 -0.20360750048E-01  0.62952194359E-02  0.91783497681E-02  0.23209764233E-01  0.51100000000E-03 0.  1.
         11    1    4    4    0    0 -0.10334251573E+00 -0.17680251741E-01  0.29049576400E-01  0.10879524746E+00  0.51100000000E-03 0. -1.
</event>
<event>
 8    1  0.1066842E+005  0.1043930E+01  0.7957747E-01            NaN
         13   -1    0    0    0    0  0.00000000000E+00  0.00000000000E+00  0.74505805969E-08  0.10566000000E+00  0.10566000000E+00 0. -1.
     999900   -1    0    0    0    0 -0.00000000000E+00 -0.00000000000E+00 -0.74505805969E-08  0.93827000000E+00  0.93827000000E+00 0.  1.
     999902    2    1    2    0    0  0.15421434924E-01  0.17496296673E-01  0.30467757073E-02  0.10204092880E+01  0.10201381725E+01 0.  0.
     999903    2    3    3    0    0 -0.79814662569E-01 -0.37444835946E-01 -0.91380873939E-01  0.12855446607E+00  0.20082094637E-01 0.  0.
         14    1    1    2    0    0 -0.15421434924E-01 -0.17496296673E-01 -0.30467757073E-02  0.23520712034E-01  0.00000000000E+00 0. -1.
     999901    1    3    3    0    0  0.95236097492E-01  0.54941132619E-01  0.94427649646E-01  0.89185482189E+00  0.88000000000E+00 0. -1.
        -11    1    4    4    0    0 -0.30434497220E-01 -0.19162756517E-01 -0.49943221231E-01  0.61547187802E-01  0.51100000000E-03 0. -1.
         11    1    4    4    0    0 -0.49380165349E-01 -0.18282079429E-01 -0.41437652708E-01  0.67007278269E-01  0.51100000000E-03 0.  1.
</event>
<event>
 8    1  0.1066842E+005  0.1043930E+01  0.7957747E-01            NaN
         13   -1    0    0    0    0  0.00000000000E+00  0.00000000000E+00  0.74505805969E-08  0.10566000000E+00  0.10566000000E+00 0. -1.
     999900   -1    0    0    0    0 -0.00000000000E+00 -0.00000000000E+00 -0.74505805969E-08  0.93827000000E+00  0.93827000000E+00 0.  1.
     999902    2    1    2    0    0  0.15642726364E-02  0.28895517297E-03 -0.23409114876E-01  0.10204668991E+01  0.10201971256E+01 0.  0.
     999903    2    3    3    0    0 -0.45806378845E-01 -0.11643749033E+00 -0.34951492209E-01  0.13142119265E+00  0.19849674360E-01 0.  0.
         14    1    1    2    0    0 -0.15642726364E-02 -0.28895517297E-03  0.23409114876E-01  0.23463100887E-01  0.00000000000E+00 0. -1.
     999901    1    3    3    0    0  0.47370651482E-01  0.11672644551E+00  0.11542377334E-01  0.88904570646E+00  0.88000000000E+00 0.  1.
        -11    1    4    4    0    0 -0.47551230980E-01 -0.10720851842E+00 -0.32376233315E-01  0.12166867959E+00  0.51100000000E-03 0. -1.
         11    1    4    4    0    0  0.17448521349E-02 -0.92289719165E-02 -0.25752588944E-02  0.97525130598E-02  0.51100000000E-03 0.  1.
</event>
<event>
 8    1  0.1066842E+005  0.1043930E+01  0.7957747E-01            NaN
         13   -1    0    0    0    0  0.00000000000E+00  0.00000000000E+00  0.74505805969E-08  0.10566000000E+00  0.10566000000E+00 0.  1.
     999900   -1    0    0    0    0 -0.00000000000E+00 -0.00000000000E+00 -0.74505805969E-08  0.93827000000E+00  0.93827000000E+00 0.  1.
     999902    2    1    2    0    0 -0.20314392277E-01  0.27635475113E-02 -0.12000282231E-01  0.10201746111E+01  0.10198979942E+01 0.  0.
     999903    2    3    3    0    0  0.10652110693E+00  0.31670659408E-01 -0.62987657107E-01  0.12915127954E+00  0.19048127723E-01 0.  0.
         14    1    1    2    0    0  0.20314392277E-01 -0.27635475113E-02  0.12000282231E-01  0.23755388905E-01  0.00000000000E+00 0.  1.
     999901    1    3    3    0    0 -0.12683549921E+00 -0.28907111896E-01  0.50987374876E-01  0.89102333155E+00  0.88000000000E+00 0.  1.
        -11    1    4    4    0    0  0.54637586548E-01  0.63311389387E-02 -0.30377751753E-01  0.62836439322E-01  0.51100000000E-03 0.  1.
         11    1    4    4    0    0  0.51883520383E-01  0.25339520469E-01 -0.32609905355E-01  0.66314840219E-01  0.51100000000E-03 0. -1.
</event>
<event>
 8    1  0.1066842E+005  0.1043930E+01  0.7957747E-01            NaN
         13   -1    0    0    0    0  0.00000000000E+00  0.00000000000E+00  0.74505805969E-08  0.10566000000E+00  0.10566000000E+00 0. -1.
     999900   -1    0    0    0    0 -0.00000000000E+00 -0.00000000000E+00 -0.74505805969E-08  0.93827000000E+00  0.93827000000E+00 0. -1.
     999902    2    1    2    0    0 -0.23445977066E-01 -0.11472189156E-02 -0.58810365175E-02  0.10197304847E+01  0.10194433014E+01 0.  0.
     999903    2    3    3    0    0 -0.43083433547E-01 -0.12111795243E+00 -0.16495102435E-01  0.13130982699E+00  0.21081783916E-01 0.  0.
         14    1    1    2    0    0  0.23445977066E-01  0.11472189156E-02  0.58810365175E-02  0.24199515333E-01  0.00000000000E+00 0. -1.
     999901    1    3    3    0    0  0.19637456480E-01  0.11997073351E+00  0.10614065917E-01  0.88842065768E+00  0.88000000000E+00 0.  1.
        -11    1    4    4    0    0 -0.26092247887E-01 -0.79980255737E-01 -0.86776548230E-03  0.84134777859E-01  0.51100000000E-03 0. -1.
         11    1    4    4    0    0 -0.16991185659E-01 -0.41137696690E-01 -0.15627336952E-01  0.47175049128E-01  0.51100000000E-03 0.  1.
</event>
<event>
 8    1  0.1066842E+005  0.1043930E+01  0.7957747E-01            NaN
         13   -1    0    0    0    0  0.00000000000E+00  0.00000000000E+00  0.74505805969E-08  0.10566000000E+00  0.10566000000E+00 0.  1.
     999900   -1    0    0    0    0 -0.00000000000E+00 -0.00000000000E+00 -0.74505805969E-08  0.93827000000E+00  0.93827000000E+00 0.  1.
     999902    2    1    2    0    0  0.10163489916E-01  0.84096151162E-02  0.19132064816E-01  0.10206909368E+01  0.10204263493E+01 0.  0.
     999903    2    3    3    0    0  0.10791523112E+00 -0.49313988084E-01  0.55862444876E-01  0.13263883356E+00  0.19871610190E-01 0.  0.
         14    1    1    2    0    0 -0.10163489916E-01 -0.84096151162E-02 -0.19132064816E-01  0.23239063187E-01  0.00000000000E+00 0. -1.
     999901    1    3    3    0    0 -0.97751741205E-01  0.57723603200E-01 -0.36730380061E-01  0.88805210325E+00  0.88000000000E+00 0.  1.
        -11    1    4    4    0    0  0.46626391732E-01 -0.32047224361E-01  0.28088425772E-01  0.63168550550E-01  0.51100000000E-03 0.  1.
         11    1    4    4    0    0  0.61288839390E-01 -0.17266763723E-01  0.27774019104E-01  0.69470283009E-01  0.51100000000E-03 0. -1.
</event>
<event>
 8    1  0.1066842E+005  0.1043930E+01  0.7957747E-01            NaN
         13   -1    0    0    0    0  0.00000000000E+00  0.00000000000E+00  0.74505805969E-08  0.10566000000E+00  0.10566000000E+00 0. -1.
     999900   -1    0    0    0    0 -0.00000000000E+00 -0.00000000000E+00 -0.74505805969E-08  0.93827000000E+00  0.93827000000E+00 0.  1.
     999902    2    1    2    0    0  0.68751070653E-02 -0.22031910275E-01  0.59760272909E-02  0.10200891722E+01  0.10198105384E+01 0.  0.
     999903    2    3    3    0    0  0.11790238614E+00 -0.35712978910E-01 -0.42067483524E-01  0.13170726826E+00  0.20018536978E-01 0.  0.
         14    1    1    2    0    0 -0.68751070653E-02  0.22031910275E-01 -0.59760272909E-02  0.23840827790E-01  0.00000000000E+00 0.  1.
     999901    1    3    3    0    0 -0.11102727907E+00  0.13681068634E-01  0.48043510815E-01  0.88838190395E+00  0.88000000000E+00 0.  1.
        -11    1    4    4    0    0  0.39977529751E-01 -0.21901039257E-01 -0.17665625379E-01  0.48889608779E-01  0.51100000000E-03 0.  1.
         11    1    4    4    0    0  0.77924856386E-01 -0.13811939652E-01 -0.24401858145E-01  0.82817659480E-01  0.51100000000E-03 0. -1.
</event>
<event>
 8    1  0.1066842E+005  0.1043930E+01  0.7957747E-01            NaN
         13   -1    0    0    0    0  0.00000000000E+00  0.00000000000E+00  0.74505805969E-08  0.10566000000E+00  0.10566000000E+00 0.  1.
     999900   -1    0    0    0    0 -0.00000000000E+00 -0.00000000000E+00 -0.74505805969E-08  0.93827000000E+00  0.93827000000E+00 0.  1.
     999902    2    1    2    0    0 -0.14664132654E-01  0.20630789752E-02  0.18196193215E-01  0.10204695113E+01  0.10201997986E+01 0.  0.
     999903    2    3    3    0    0 -0.11542033146E+00  0.49927041041E-01  0.39100561692E-01  0.13318164198E+00  0.19847757956E-01 0.  0.
         14    1    1    2    0    0  0.14664132654E-01 -0.20630789752E-02 -0.18196193215E-01  0.23460488675E-01  0.00000000000E+00 0. -1.
     999901    1    3    3    0    0  0.10075619880E+00 -0.47863962066E-01 -0.20904368478E-01  0.88728786934E+00  0.88000000000E+00 0.  1.
        -11    1    4    4    0    0 -0.10267146527E+00  0.40327292575E-01  0.39614599803E-01  0.11720621974E+00  0.51100000000E-03 0.  1.
         11    1    4    4    0    0 -0.12748866184E-01  0.95997484663E-02 -0.51403811072E-03  0.15975422241E-01  0.51100000000E-03 0. -1.
</event>
<event>
 8    1  0.1066842E+005  0.1043930E+01  0.7957747E-01            NaN
         13   -1    0    0    0    0  0.00000000000E+00  0.00000000000E+00  0.74505805969E-08  0.10566000000E+00  0.10566000000E+00 0. -1.
     999900   -1    0    0    0    0 -0.00000000000E+00 -0.00000000000E+00 -0.74505805969E-08  0.93827000000E+00  0.93827000000E+00 0. -1.
     999902    2    1    2    0    0  0.37047075653E-02  0.37439831088E-02  0.22801933498E-01  0.10205276403E+01  0.10202592779E+01 0.  0.
     999903    2    3    3    0    0  0.11577073680E+00  0.16353328405E-02  0.60512400027E-01  0.13261699132E+00  0.22803026465E-01 0.  0.
         14    1    1    2    0    0 -0.37047075653E-02 -0.37439831088E-02 -0.22801933498E-01  0.23402359687E-01  0.00000000000E+00 0.  1.
     999901    1    3    3    0    0 -0.11206602924E+00  0.21086502683E-02 -0.37710466529E-01  0.88791064900E+00  0.88000000000E+00 0. -1.
        -11    1    4    4    0    0  0.93411356310E-01  0.42916330369E-02  0.38508316695E-01  0.10112987282E+00  0.51100000000E-03 0.  1.
         11    1    4    4    0    0  0.22359380492E-01 -0.26563001964E-02  0.22004083332E-01  0.31487118493E-01  0.51100000000E-03 0. -1.
</event>
<event>
 8    1  0.1066842E+005  0.1043930E+01  0.7957747E-01            NaN
         13   -1    0    0    0    0  0.00000000000E+00  0.00000000000E+00  0.74505805969E-08  0.10566000000E+00  0.10566000000E+00 0. -1.
     999900   -1    0    0    0    0 -0.00000000000E+00 -0.00000000000E+00 -0.74505805969E-08  0.93827000000E+00  0.93827000000E+00 0. -1.
     999902    2    1    2    0    0  0.12190479061E-01  0.11833089979E-01 -0.16308339162E-01  0.10203802288E+01  0.10201084352E+01 0.  0.
     999903    2    3    3    0    0  0.14065684877E-01  0.73965472715E-01  0.10410701679E+00  0.13000738141E+00  0.19872433952E-01 0.  0.
         14    1    1    2    0    0 -0.12190479061E-01 -0.11833089979E-01  0.16308339162E-01  0.23549771218E-01  0.00000000000E+00 0. -1.
     999901    1    3    3    0    0 -0.18752058156E-02 -0.62132382736E-01 -0.12041535596E+00  0.89037284737E+00  0.88000000000E+00 0. -1.
        -11    1    4    4    0    0  0.18369635923E-01  0.68225892077E-01  0.95315881146E-01  0.11864903789E+00  0.51100000000E-03 0. -1.
         11    1    4    4    0    0 -0.43039510463E-02  0.57395806384E-02  0.87911356487E-02  0.11358343520E-01  0.51100000000E-03 0.  1.
</event>
<event>
 8    1  0.1066842E+005  0.1043930E+01  0.7957747E-01            NaN
         13   -1    0    0    0    0  0.00000000000E+00  0.00000000000E+00  0.74505805969E-08  0.10566000000E+00  0.10566000000E+00 0.  1.
     999900   -1    0    0    0    0 -0.00000000000E+00 -0.00000000000E+00 -0.74505805969E-08  0.93827000000E+00  0.93827000000E+00 0. -1.
     999902    2    1    2    0    0 -0.19088371883E-01  0.26403293266E-02 -0.13976163171E-01  0.10201251598E+01  0.10198473764E+01 0.  0.
     999903    2    3    3    0    0  0.36777878024E-01  0.29182429744E-01 -0.12118513661E+00  0.13146364664E+00  0.19814805960E-01 0.  0.
         14    1    1    2    0    0  0.19088371883E-01 -0.26403293266E-02  0.13976163171E-01  0.23804840203E-01  0.00000000000E+00 0.  1.
     999901    1    3    3    0    0 -0.55866249907E-01 -0.26542100417E-01  0.10720897344E+00  0.88866151315E+00  0.88000000000E+00 0.  1.
        -11    1    4    4    0    0  0.19256184007E-01  0.25349084613E-01 -0.90252100912E-01  0.95703080166E-01  0.51100000000E-03 0.  1.
         11    1    4    4    0    0  0.17521694018E-01  0.38333451309E-02 -0.30933035702E-01  0.35760566479E-01  0.51100000000E-03 0. -1.
</event>
<event>
 8    1  0.1066842E+005  0.1043930E+01  0.7957747E-01            NaN
         13   -1    0    0    0    0  0.00000000000E+00  0.00000000000E+00  0.74505805969E-08  0.10566000000E+00  0.10566000000E+00 0. -1.
     999900   -1    0    0    0    0 -0.00000000000E+00 -0.00000000000E+00 -0.74505805969E-08  0.93827000000E+00  0.93827000000E+00 0.  1.
     999902    2    1    2    0    0 -0.12885569832E-01 -0.64078434262E-02  0.20033659475E-01  0.10192633042E+01  0.10189647872E+01 0.  0.
     999903    2    3    3    0    0 -0.12748997779E+00 -0.17227961555E-01 -0.15119523609E-01  0.13107019937E+00  0.20007500386E-01 0.  0.
         14    1    1    2    0    0  0.12885569832E-01  0.64078434262E-02 -0.20033659475E-01  0.24666695750E-01  0.00000000000E+00 0.  1.
     999901    1    3    3    0    0  0.11460440796E+00  0.10820118129E-01  0.35153183084E-01  0.88819310488E+00  0.88000000000E+00 0.  1.
        -11    1    4    4    0    0 -0.72856197242E-01 -0.19139138225E-01 -0.12304381484E-01  0.76328179680E-01  0.51100000000E-03 0.  1.
         11    1    4    4    0    0 -0.54633780548E-01  0.19111766698E-02 -0.28151421252E-02  0.54742019687E-01  0.51100000000E-03 0. -1.
</event>
<event>
 8    1  0.1066842E+005  0.1043930E+01  0.7957747E-01            NaN
         13   -1    0    0    0    0  0.00000000000E+00  0.00000000000E+00  0.74505805969E-08  0.10566000000E+00  0.10566000000E+00 0.  1.
     999900   -1    0    0    0    0 -0.00000000000E+00 -0.00000000000E+00 -0.74505805969E-08  0.93827000000E+00  0.93827000000E+00 0.  1.
     999902    2    1    2    0    0 -0.40261400591E-02 -0.17884942218E-01 -0.14399877715E-01  0.10206182553E+01  0.10203519911E+01 0.  0.
     999903    2    3    3    0    0  0.47053127916E-01 -0.29491193150E-01  0.11529674139E+00  0.12957111308E+00  0.20288111037E-01 0.  0.
         14    1    1    2    0    0  0.40261400591E-02  0.17884942218E-01  0.14399877715E-01  0.23311744682E-01  0.00000000000E+00 0.  1.
     999901    1    3    3    0    0 -0.51079267975E-01  0.11606250932E-01 -0.12969661911E+00  0.89104714224E+00  0.88000000000E+00 0.  1.
        -11    1    4    4    0    0  0.21194687969E-01 -0.25411838616E-02  0.34770486715E-01  0.40803434671E-01  0.51100000000E-03 0.  1.
         11    1    4    4    0    0  0.25858439947E-01 -0.26950009288E-01  0.80526254678E-01  0.88767678412E-01  0.51100000000E-03 0. -1.
</event>
<event>
 8    1  0.1066842E+005  0.1043930E+01  0.7957747E-01            NaN
         13   -1    0    0    0    0  0.00000000000E+00  0.00000000000E+00  0.74505805969E-08  0.10566000000E+00  0.10566000000E+00 0.  1.
     999900   -1    0    0    0    0 -0.00000000000E+00 -0.00000000000E+00 -0.74505805969E-08  0.93827000000E+00  0.93827000000E+00 0. -1.
     999902    2    1    2    0    0 -0.12770663240E-01  0.23465493016E-02 -0.19586586156E-01  0.10204304151E+01  0.10201597922E+01 0.  0.
     999903    2    3    3    0    0  0.31595989400E-01  0.11600061603E+00 -0.49378206705E-01  0.13151355318E+00  0.20078792467E-01 0.  0.
         14    1    1    2    0    0  0.12770663240E-01 -0.23465493016E-02  0.19586586156E-01  0.23499584900E-01  0.00000000000E+00 0.  1.
     999901    1    3    3    0    0 -0.44366652639E-01 -0.11365406673E+00  0.29791620549E-01  0.88891686192E+00  0.88000000000E+00 0. -1.
        -11    1    4    4    0    0  0.19968866454E-01  0.49801912386E-01 -0.13533414798E-01  0.55338960433E-01  0.51100000000E-03 0. -1.
         11    1    4    4    0    0  0.11627122946E-01  0.66198703646E-01 -0.35844791907E-01  0.76174592747E-01  0.51100000000E-03 0.  1.
</event>
<event>
 8    1  0.1066842E+005  0.1043930E+01  0.7957747E-01            NaN
         13   -1    0    0    0    0  0.00000000000E+00  0.00000000000E+00  0.74505805969E-08  0.10566000000E+00  0.10566000000E+00 0. -1.
     999900   -1    0    0    0    0 -0.00000000000E+00 -0.00000000000E+00 -0.74505805969E-08  0.93827000000E+00  0.93827000000E+00 0.  1.
     999902    2    1    2    0    0 -0.63111988268E-02  0.22735110901E-01 -0.22160656440E-02  0.10202313198E+01  0.10199560375E+01 0.  0.
     999903    2    3    3    0    0 -0.11804394347E+00  0.41995735375E-01  0.36923928372E-01  0.13209444010E+00  0.19686295691E-01 0.  0.
         14    1    1    2    0    0  0.63111988268E-02 -0.22735110901E-01  0.22160656440E-02  0.23698680243E-01  0.00000000000E+00 0.  1.
     999901    1    3    3    0    0  0.11173274465E+00 -0.19260624474E-01 -0.39139994016E-01  0.88813687966E+00  0.88000000000E+00 0.  1.
        -11    1    4    4    0    0 -0.90789738163E-01  0.35572800369E-01  0.20548952277E-01  0.99653004183E-01  0.51100000000E-03 0. -1.
         11    1    4    4    0    0 -0.27254205309E-01  0.64229350054E-02  0.16374976095E-01  0.32441435915E-01  0.51100000000E-03 0.  1.
</event>
<event>
 8    1  0.1066842E+005  0.1043930E+01  0.7957747E-01            NaN
         13   -1    0    0    0    0  0.00000000000E+00  0.00000000000E+00  0.74505805969E-08  0.10566000000E+00  0.10566000000E+00 0.  1.
     999900   -1    0    0    0    0 -0.00000000000E+00 -0.00000000000E+00 -0.74505805969E-08  0.93827000000E+00  0.93827000000E+00 0. -1.
     999902    2    1    2    0    0 -0.19578401367E-02  0.15470443013E-01 -0.19740687382E-01  0.10187732418E+01  0.10184625942E+01 0.  0.
     999903    2    3    3    0    0  0.56562263893E-01  0.34874124933E-01 -0.11183147254E+00  0.13182238737E+00  0.21339383191E-01 0.  0.
         14    1    1    2    0    0  0.19578401367E-02 -0.15470443013E-01  0.19740687382E-01  0.25156758204E-01  0.00000000000E+00 0.  1.
     999901    1    3    3    0    0 -0.58520104029E-01 -0.19403681920E-01  0.92090785162E-01  0.88695085442E+00  0.88000000000E+00 0.  1.
        -11    1    4    4    0    0  0.38987014823E-01  0.13636401969E-01 -0.77198803441E-01  0.87554869408E-01  0.51100000000E-03 0.  1.
         11    1    4    4    0    0  0.17575249070E-01  0.21237722964E-01 -0.34632669104E-01  0.44267517966E-01  0.51100000000E-03 0. -1.
</event>
<event>
 8    1  0.1066842E+005  0.1043930E+01  0.7957747E-01            NaN
         13   -1    0    0    0    0  0.00000000000E+00  0.00000000000E+00  0.74505805969E-08  0.10566000000E+00  0.10566000000E+00 0.  1.
     999900   -1    0    0    0    0 -0.00000000000E+00 -0.00000000000E+00 -0.74505805969E-08  0.93827000000E+00  0.93827000000E+00 0. -1.
     999902    2    1    2    0    0 -0.16532141061E-01 -0.70903938167E-02  0.15315238151E-01  0.10203049732E+01  0.10200314193E+01 0.  0.
     999903    2    3    3    0    0  0.11643759155E+00  0.33066030474E-01  0.40439114979E-01  0.12905601953E+00  0.19210909908E-01 0.  0.
         14    1    1    2    0    0  0.16532141061E-01  0.70903938167E-02 -0.15315238151E-01  0.23625026818E-01  0.00000000000E+00 0. -1.
     999901    1    3    3    0    0 -0.13296973261E+00 -0.40156424291E-01 -0.25123876828E-01  0.89124895365E+00  0.88000000000E+00 0.  1.
        -11    1    4    4    0    0  0.39549309516E-01  0.53635407446E-02  0.59790595441E-02  0.40359952014E-01  0.51100000000E-03 0. -1.
         11    1    4    4    0    0  0.76888282031E-01  0.27702489730E-01  0.34460055434E-01  0.88696067514E-01  0.51100000000E-03 0.  1.
</event>
<event>
 8    1  0.1066842E+005  0.1043930E+01  0.7957747E-01            NaN
         13   -1    0    0    0    0  0.00000000000E+00  0.00000000000E+00  0.74505805969E-08  0.10566000000E+00  0.10566000000E+00 0. -1.
     999900   -1    0    0    0    0 -0.00000000000E+00 -0.00000000000E+00 -0.74505805969E-08  0.93827000000E+00  0.93827000000E+00 0. -1.
     999902    2    1    2    0    0  0.15696534923E-01 -0.10205524898E-01  0.13716373688E-01  0.10207206731E+01  0.10204567701E+01 0.  0.
     999903    2    3    3    0    0  0.17484543115E-01  0.31113916824E-01 -0.12263300270E+00  0.12926027261E+00  0.19889184398E-01 0.  0.
         14    1    1    2    0    0 -0.15696534923E-01  0.10205524898E-01 -0.13716373688E-01  0.23209326879E-01  0.00000000000E+00 0.  1.
     999901    1    3    3    0    0 -0.17880081924E-02 -0.41319441721E-01  0.13634937639E+00  0.89146040051E+00  0.88000000000E+00 0.  1.
        -11    1    4    4    0    0 -0.40326662200E-02  0.80269119346E-02 -0.34178855122E-01  0.35343301636E-01  0.51100000000E-03 0.  1.
         11    1    4    4    0    0  0.21517209335E-01  0.23087004889E-01 -0.88454147578E-01  0.93916970975E-01  0.51100000000E-03 0. -1.
</event>
<event>
 8    1  0.1066842E+005  0.1043930E+01  0.7957747E-01            NaN
         13   -1    0    0    0    0  0.00000000000E+00  0.00000000000E+00  0.74505805969E-08  0.10566000000E+00  0.10566000000E+00 0. -1.
     999900   -1    0    0    0    0 -0.00000000000E+00 -0.00000000000E+00 -0.74505805969E-08  0.93827000000E+00  0.93827000000E+00 0.  1.
     999902    2    1    2    0    0  0.15842051259E-01  0.10885726552E-02 -0.17551792283E-01  0.10202610120E+01  0.10199864272E+01 0.  0.
     999903    2    3    3    0    0  0.64158696799E-02  0.11854971094E+00  0.49565225532E-01  0.12987308199E+00  0.17751295609E-01 0.  0.
         14    1    1    2    0    0 -0.15842051259E-01 -0.10885726552E-02  0.17551792283E-01  0.23668987957E-01  0.00000000000E+00 0. -1.
     999901    1    3    3    0    0  0.94261815795E-02 -0.11746113828E+00 -0.67117017816E-01  0.89038793005E+00  0.88000000000E+00 0.  1.
        -11    1    4    4    0    0 -0.51373553198E-02  0.63975716368E-01  0.28780397399E-01  0.70341005821E-01  0.51100000000E-03 0. -1.
         11    1    4    4    0    0  0.11553225000E-01  0.54573994571E-01  0.20784828133E-01  0.59532076168E-01  0.51100000000E-03 0.  1.
</event>
<event>
 8    1  0.1066842E+005  0.1043930E+01  0.7957747E-01            NaN
         13   -1    0    0    0    0  0.00000000000E+00  0.00000000000E+00  0.74505805969E-08  0.10566000000E+00  0.10566000000E+00 0.  1.
     999900   -1    0    0    0    0 -0.00000000000E+00 -0.00000000000E+00 -0.74505805969E-08  0.93827000000E+00  0.93827000000E+00 0.  1.
     999902    2    1    2    0    0  0.23052147383E-01 -0.60903434753E-02 -0.24095841318E-02  0.10199654454E+01  0.10196838774E+01 0.  0.
     999903    2    3    3    0    0  0.12592574193E-01 -0.58000497780E-01 -0.11540184783E+00  0.13116213843E+00  0.19060152304E-01 0.  0.
         14    1    1    2    0    0 -0.23052147383E-01  0.60903434753E-02  0.24095841318E-02  0.23964554624E-01  0.00000000000E+00 0.  1.
     999901    1    3    3    0    0  0.10459573191E-01  0.51910154305E-01  0.11299226370E+00  0.88880330695E+00  0.88000000000E+00 0. -1.
        -11    1    4    4    0    0  0.16165207420E-02 -0.24284251077E-01 -0.66033021405E-01  0.70377262142E-01  0.51100000000E-03 0. -1.
         11    1    4    4    0    0  0.10976053451E-01 -0.33716246703E-01 -0.49368826426E-01  0.60784876283E-01  0.51100000000E-03 0.  1.
</event>
<event>
 8    1  0.1066842E+005  0.1043930E+01  0.7957747E-01            NaN
         13   -1    0    0    0    0  0.00000000000E+00  0.00000000000E+00  0.74505805969E-08  0.10566000000E+00  0.10566000000E+00 0.  1.
     999900   -1    0    0    0    0 -0.00000000000E+00 -0.00000000000E+00 -0.74505805969E-08  0.93827000000E+00  0.93827000000E+00 0. -1.
     999902    2    1    2    0    0 -0.23614026896E-01  0.65159558834E-02 -0.95098776214E-03  0.10194150184E+01  0.10191202065E+01 0.  0.
     999903    2    3    3    0    0  0.69527065567E-02  0.40001182050E-01 -0.12216201080E+00  0.12995018056E+00  0.17749869057E-01 0.  0.
         14    1    1    2    0    0  0.23614026896E-01 -0.65159558834E-02  0.95098776214E-03  0.24514981645E-01  0.00000000000E+00 0.  1.
     999901    1    3    3    0    0 -0.30566733453E-01 -0.33485226166E-01  0.12121102304E+00  0.88946483779E+00  0.88000000000E+00 0.  1.
        -11    1    4    4    0    0  0.11204708335E-01  0.19204353862E-01 -0.49867611820E-01  0.54602129315E-01  0.51100000000E-03 0. -1.
         11    1    4    4    0    0 -0.42520017783E-02  0.20796828188E-01 -0.72294398980E-01  0.75348051246E-01  0.51100000000E-03 0.  1.
</event>
<event>
 8    1  0.1066842E+005  0.1043930E+01  0.7957747E-01            NaN
         13   -1    0    0    0    0  0.00000000000E+00  0.00000000000E+00  0.74505805969E-08  0.10566000000E+00  0.10566000000E+00 0.  1.
     999900   -1    0    0    0    0 -0.00000000000E+00 -0.00000000000E+00 -0.74505805969E-08  0.93827000000E+00  0.93827000000E+00 0.  1.
     999902    2    1    2    0    0 -0.22858067280E-01 -0.50705235696E-02  0.26668561899E-02  0.10203649078E+01  0.10200927563E+01 0.  0.
     999903    2    3    3    0    0  0.72207148472E-01 -0.10483971225E+00 -0.11714233856E-01  0.12952367502E+00  0.20830783959E-01 0.  0.
         14    1    1    2    0    0  0.22858067280E-01  0.50705235696E-02 -0.26668561899E-02  0.23565092213E-01  0.00000000000E+00 0. -1.
     999901    1    3    3    0    0 -0.95065215752E-01  0.99769188677E-01  0.14381090046E-01  0.89084123277E+00  0.88000000000E+00 0. -1.
        -11    1    4    4    0    0  0.54961359892E-01 -0.88073136680E-01 -0.16134173075E-01  0.10506284380E+00  0.51100000000E-03 0.  1.
         11    1    4    4    0    0  0.17245788580E-01 -0.16766575566E-01  0.44199392196E-02  0.24460831214E-01  0.51100000000E-03 0. -1.
</event>
<event>
 8    1  0.1066842E+005  0.1043930E+01  0.7957747E-01            NaN
         13   -1    0    0    0    0  0.00000000000E+00  0.00000000000E+00  0.74505805969E-08  0.10566000000E+00  0.10566000000E+00 0. -1.
     999900   -1    0    0    0    0 -0.00000000000E+00 -0.00000000000E+00 -0.74505805969E-08  0.93827000000E+00  0.93827000000E+00 0.  1.
     999902    2    1    2    0    0  0.21301310312E-01  0.94248768441E-02  0.35635715097E-02  0.10203657651E+01  0.10200936337E+01 0.  0.
     999903    2    3    3    0    0  0.35903032338E-01 -0.36938788681E-01 -0.11836263735E+00  0.13063052348E+00  0.20027928131E-01 0.  0.
         14    1    1    2    0    0 -0.21301310312E-01 -0.94248768441E-02 -0.35635715097E-02  0.23564234901E-01  0.00000000000E+00 0. -1.
     999901    1    3    3    0    0 -0.14601722026E-01  0.46363665525E-01  0.12192620886E+00  0.88973524162E+00  0.88000000000E+00 0. -1.
        -11    1    4    4    0    0  0.50304831127E-02 -0.16165950594E-01 -0.50058920542E-01  0.52846952285E-01  0.51100000000E-03 0.  1.
         11    1    4    4    0    0  0.30872549225E-01 -0.20772838086E-01 -0.68303716806E-01  0.77783571198E-01  0.51100000000E-03 0. -1.
</event>
<event>
 8    1  0.1066842E+005  0.1043930E+01  0.7957747E-01            NaN
         13   -1    0    0    0    0  0.00000000000E+00  0.00000000000E+00  0.74505805969E-08  0.10566000000E+00  0.10566000000E+00 0. -1.
     999900   -1    0    0    0    0 -0.00000000000E+00 -0.00000000000E+00 -0.74505805969E-08  0.93827000000E+00  0.93827000000E+00 0.  1.
     999902    2    1    2    0    0 -0.49854622224E-02 -0.20942761543E-01  0.89621051514E-03  0.10223833695E+01  0.10221562977E+01 0.  0.
     999903    2    3    3    0    0  0.87965852328E-01  0.42337056655E-01  0.85376431942E-01  0.13121492854E+00  0.19945044460E-01 0.  0.
         14    1    1    2    0    0  0.49854622224E-02  0.20942761543E-01 -0.89621051514E-03  0.21546630547E-01  0.00000000000E+00 0. -1.
     999901    1    3    3    0    0 -0.92951314550E-01 -0.63279818199E-01 -0.84480221427E-01  0.89116844091E+00  0.88000000000E+00 0. -1.
        -11    1    4    4    0    0  0.38179694158E-01  0.10168098077E-01  0.42673086156E-01  0.58157825506E-01  0.51100000000E-03 0. -1.
         11    1    4    4    0    0  0.49786158170E-01  0.32168958579E-01  0.42703345785E-01  0.73057103034E-01  0.51100000000E-03 0.  1.
</event>
<event>
 8    1  0.1066842E+005  0.1043930E+01  0.7957747E-01            NaN
         13   -1    0    0    0    0  0.00000000000E+00  0.00000000000E+00  0.74505805969E-08  0.10566000000E+00  0.10566000000E+00 0.  1.
     999900   -1    0    0    0    0 -0.00000000000E+00 -0.00000000000E+00 -0.74505805969E-08  0.93827000000E+00  0.93827000000E+00 0. -1.
     999902    2    1    2    0    0  0.11250044479E-01  0.46953612157E-02 -0.19453954934E-01  0.10209720759E+01  0.10207139234E+01 0.  0.
     999903    2    3    3    0    0  0.29391895185E-01  0.63229382654E-01  0.10759258180E+00  0.12973912040E+00  0.19855411651E-01 0.  0.
         14    1    1    2    0    0 -0.11250044479E-01 -0.46953612157E-02  0.19453954934E-01  0.22957924129E-01  0.00000000000E+00 0.  1.
     999901    1    3    3    0    0 -0.18141850706E-01 -0.58534021438E-01 -0.12704653673E+00  0.89123295547E+00  0.88000000000E+00 0. -1.
        -11    1    4    4    0    0  0.15189862857E-01  0.41300040783E-01  0.50721259480E-01  0.67151564289E-01  0.51100000000E-03 0. -1.
         11    1    4    4    0    0  0.14202032329E-01  0.21929341871E-01  0.56871322320E-01  0.62587556116E-01  0.51100000000E-03 0.  1.
</event>
<event>
 8    1  0.1066842E+005  0.1043930E+01  0.7957747E-01            NaN
         13   -1    0    0    0    0  0.00000000000E+00  0.00000000000E+00  0.74505805969E-08  0.10566000000E+00  0.10566000000E+00 0.  1.
     999900   -1    0    0    0    0 -0.00000000000E+00 -0.00000000000E+00 -0.74505805969E-08  0.93827000000E+00  0.93827000000E+00 0. -1.
     999902    2    1    2    0    0 -0.14468549354E-01  0.15817876030E-02 -0.20333333991E-01  0.10189242918E+01  0.10186174095E+01 0.  0.
     999903    2    3    3    0    0 -0.86178559279E-01 -0.46473224664E-01 -0.86424868916E-01  0.13223398467E+00  0.20737985566E-01 0.  0.
         14    1    1    2    0    0  0.14468549354E-01 -0.15817876030E-02  0.20333333991E-01  0.25005708221E-01  0.00000000000E+00 0.  1.
     999901    1    3    3    0    0  0.71710009925E-01  0.48055012267E-01  0.66091534925E-01  0.88669030711E+00  0.88000000000E+00 0.  1.
        -11    1    4    4    0    0 -0.51290365464E-01 -0.20403374761E-01 -0.58825625654E-01  0.80670407496E-01  0.51100000000E-03 0. -1.
         11    1    4    4    0    0 -0.34888193815E-01 -0.26069849902E-01 -0.27599243262E-01  0.51563577177E-01  0.51100000000E-03 0.  1.
</event>
<event>
 8    1  0.1066842E+005  0.1043930E+01  0.7957747E-01            NaN
         13   -1    0    0    0    0  0.00000000000E+00  0.00000000000E+00  0.74505805969E-08  0.10566000000E+00  0.10566000000E+00 0. -1.
     999900   -1    0    0    0    0 -0.00000000000E+00 -0.00000000000E+00 -0.74505805969E-08  0.93827000000E+00  0.93827000000E+00 0.  1.
     999902    2    1    2    0    0  0.88827812430E-02  0.24851955983E-02 -0.22351046568E-01  0.10197504780E+01  0.10194637748E+01 0.  0.
     999903    2    3    3    0    0  0.28403935529E-01  0.54269518472E-01  0.11055677923E+00  0.12805143592E+00  0.20552484475E-01 0.  0.
         14    1    1    2    0    0 -0.88827812430E-02 -0.24851955983E-02  0.22351046568E-01  0.24179521965E-01  0.00000000000E+00 0. -1.
     999901    1    3    3    0    0 -0.19521154286E-01 -0.51784322874E-01 -0.13290782579E+00  0.89169904212E+00  0.88000000000E+00 0.  1.
        -11    1    4    4    0    0  0.22921011247E-01  0.23730209114E-01  0.48379242077E-01  0.58560291718E-01  0.51100000000E-03 0. -1.
         11    1    4    4    0    0  0.54829242827E-02  0.30539309358E-01  0.62177537150E-01  0.69491144197E-01  0.51100000000E-03 0.  1.
</event>
<event>
 8    1  0.1066842E+005  0.1043930E+01  0.7957747E-01            NaN
         13   -1    0    0    0    0  0.00000000000E+00  0.00000000000E+00  0.74505805969E-08  0.10566000000E+00  0.10566000000E+00 0. -1.
     999900   -1    0    0    0    0 -0.00000000000E+00 -0.00000000000E+00 -0.74505805969E-08  0.93827000000E+00  0.93827000000E+00 0.  1.
     999902    2    1    2    0    0 -0.20791856026E-01 -0.10977198410E-01  0.13359240201E-02  0.10203803746E+01  0.10201085845E+01 0.  0.
     999903    2    3    3    0    0  0.11234093491E+00 -0.33438339570E-01  0.48992932733E-01  0.12880870990E+00  0.21278347626E-01 0.  0.
         14    1    1    2    0    0  0.20791856026E-01  0.10977198410E-01 -0.13359240201E-02  0.23549625367E-01  0.00000000000E+00 0.  1.
     999901    1    3    3    0    0 -0.13313279093E+00  0.22461141160E-01 -0.47657008712E-01  0.89157166474E+00  0.88000000000E+00 0. -1.
        -11    1    4    4    0    0  0.26391999440E-01 -0.17609856596E-01  0.13028139400E-01  0.34302160588E-01  0.51100000000E-03 0.  1.
         11    1    4    4    0    0  0.85948935469E-01 -0.15828482974E-01  0.35964793333E-01  0.94506549307E-01  0.51100000000E-03 0. -1.
</event>
<event>
 8    1  0.1066842E+005  0.1043930E+01  0.7957747E-01            NaN
         13   -1    0    0    0    0  0.00000000000E+00  0.00000000000E+00  0.74505805969E-08  0.10566000000E+00  0.10566000000E+00 0. -1.
     999900   -1    0    0    0    0 -0.00000000000E+00 -0.00000000000E+00 -0.74505805969E-08  0.93827000000E+00  0.93827000000E+00 0. -1.
     999902    2    1    2    0    0 -0.63119360751E-02 -0.17041526486E-01  0.15150158369E-01  0.10202702988E+01  0.10199959319E+01 0.  0.
     999903    2    3    3    0    0  0.12749929184E+00 -0.15221125364E-01 -0.47527658255E-02  0.12993054064E+00  0.19277046721E-01 0.  0.
         14    1    1    2    0    0  0.63119360751E-02  0.17041526486E-01 -0.15150158369E-01  0.23659701195E-01  0.00000000000E+00 0.  1.
     999901    1    3    3    0    0 -0.13381122792E+00 -0.18204011225E-02  0.19902924195E-01  0.89033975816E+00  0.88000000000E+00 0.  1.
        -11    1    4    4    0    0  0.69321972622E-01  0.48655045244E-03  0.15202468505E-02  0.69342230214E-01  0.51100000000E-03 0.  1.
         11    1    4    4    0    0  0.58177319221E-01 -0.15707675816E-01 -0.62730126760E-02  0.60588310427E-01  0.51100000000E-03 0. -1.
</event>
<event>
 8    1  0.1066842E+005  0.1043930E+01  0.7957747E-01            NaN
         13   -1    0    0    0    0  0.00000000000E+00  0.00000000000E+00  0.74505805969E-08  0.10566000000E+00  0.10566000000E+00 0. -1.
     999900   -1    0    0    0    0 -0.00000000000E+00 -0.00000000000E+00 -0.74505805969E-08  0.93827000000E+00  0.93827000000E+00 0. -1.
     999902    2    1    2    0    0  0.16024597050E-01 -0.15437302351E-01 -0.69618818695E-02  0.10206155021E+01  0.10203491742E+01 0.  0.
     999903    2    3    3    0    0 -0.11180967978E+00 -0.59098260754E-01  0.19641860522E-01  0.12991036527E+00  0.22291061045E-01 0.  0.
         14    1    1    2    0    0 -0.16024597050E-01  0.15437302351E-01  0.69618818695E-02  0.23314497928E-01  0.00000000000E+00 0. -1.
     999901    1    3    3    0    0  0.12783427683E+00  0.43660958403E-01 -0.26603742391E-01  0.89070513680E+00  0.88000000000E+00 0.  1.
        -11    1    4    4    0    0 -0.88132358066E-01 -0.54985261711E-01  0.11417966817E-01  0.10450513208E+00  0.51100000000E-03 0.  1.
         11    1    4    4    0    0 -0.23677321714E-01 -0.41129990432E-02  0.82238937045E-02  0.25405233188E-01  0.51100000000E-03 0. -1.
</event>
<event>
 8    1  0.1066842E+005  0.1043930E+01  0.7957747E-01            NaN
         13   -1    0    0    0    0  0.00000000000E+00  0.00000000000E+00  0.74505805969E-08  0.10566000000E+00  0.10566000000E+00 0.  1.
     999900   -1    0    0    0    0 -0.00000000000E+00 -0.00000000000E+00 -0.74505805969E-08  0.93827000000E+00  0.93827000000E+00 0.  1.
     999902    2    1    2    0    0 -0.11884908984E-01  0.19005832923E-01  0.37543113620E-02  0.10212018764E+01  0.10209489237E+01 0.  0.
     999903    2    3    3    0    0 -0.68030890427E-01  0.10635438964E+00 -0.40181267044E-01  0.13400828052E+00  0.20105391776E-01 0.  0.
         14    1    1    2    0    0  0.11884908984E-01 -0.19005832923E-01 -0.37543113620E-02  0.22728123558E-01  0.00000000000E+00 0. -1.
     999901    1    3    3    0    0  0.56145981443E-01 -0.87348556720E-01  0.43935578406E-01  0.88719359592E+00  0.88000000000E+00 0. -1.
        -11    1    4    4    0    0 -0.51000639689E-01  0.64571392598E-01 -0.31191021939E-01  0.87998130442E-01  0.51100000000E-03 0.  1.
         11    1    4    4    0    0 -0.17030250737E-01  0.41782997045E-01 -0.89902451047E-02  0.46010150079E-01  0.51100000000E-03 0. -1.
</event>
<event>
 8    1  0.1066842E+005  0.1043930E+01  0.7957747E-01            NaN
         13   -1    0    0    0    0  0.00000000000E+00  0.00000000000E+00  0.74505805969E-08  0.10566000000E+00  0.10566000000E+00 0. -1.
     999900   -1    0    0    0    0 -0.00000000000E+00 -0.00000000000E+00 -0.74505805969E-08  0.93827000000E+00  0.93827000000E+00 0.  1.
     999902    2    1    2    0    0  0.98559584362E-02  0.21273257279E-01  0.36284513656E-02  0.10202053914E+01  0.10199294994E+01 0.  0.
     999903    2    3    3    0    0 -0.11028518985E+00  0.50243899844E-01  0.43308535296E-01  0.13068433902E+00  0.22704507545E-01 0.  0.
         14    1    1    2    0    0 -0.98559584362E-02 -0.21273257279E-01 -0.36284513656E-02  0.23724608559E-01  0.00000000000E+00 0.  1.
     999901    1    3    3    0    0  0.12014114829E+00 -0.28970642564E-01 -0.39680083930E-01  0.88952105242E+00  0.88000000000E+00 0. -1.
        -11    1    4    4    0    0 -0.43408752250E-01  0.11709459248E-01  0.24644541911E-01  0.51274221347E-01  0.51100000000E-03 0. -1.
         11    1    4    4    0    0 -0.66876437603E-01  0.38534440596E-01  0.18663993385E-01  0.79410117671E-01  0.51100000000E-03 0.  1.
</event>
<event>
 8    1  0.1066842E+005  0.1043930E+01  0.7957747E-01            NaN
         13   -1    0    0    0    0  0.00000000000E+00  0.00000000000E+00  0.74505805969E-08  0.10566000000E+00  0.10566000000E+00 0.  1.
     999900   -1    0    0    0    0 -0.00000000000E+00 -0.00000000000E+00 -0.74505805969E-08  0.93827000000E+00  0.93827000000E+00 0. -1.
     999902    2    1    2    0    0  0.61040136729E-02 -0.64068063760E-02  0.20094307334E-01  0.10219735126E+01  0.10217376244E+01 0.  0.
     999903    2    3    3    0    0  0.48774284814E-01 -0.10803254903E+00  0.59652963913E-01  0.13421598327E+00  0.20136820827E-01 0.  0.
         14    1    1    2    0    0 -0.61040136729E-02  0.64068063760E-02 -0.20094307334E-01  0.21956487381E-01  0.00000000000E+00 0. -1.
     999901    1    3    3    0    0 -0.42670271141E-01  0.10162574265E+00 -0.39558656579E-01  0.88775752935E+00  0.88000000000E+00 0. -1.
        -11    1    4    4    0    0  0.15570598570E-01 -0.58198065733E-01  0.32633654082E-01  0.68517697675E-01  0.51100000000E-03 0. -1.
         11    1    4    4    0    0  0.33203686244E-01 -0.49834483292E-01  0.27019309832E-01  0.65698285594E-01  0.51100000000E-03 0.  1.
</event>
<event>
 8    1  0.1066842E+005  0.1043930E+01  0.7957747E-01            NaN
         13   -1    0    0    0    0  0.00000000000E+00  0.00000000000E+00  0.74505805969E-08  0.10566000000E+00  0.10566000000E+00 0. -1.
     999900   -1    0    0    0    0 -0.00000000000E+00 -0.00000000000E+00 -0.74505805969E-08  0.93827000000E+00  0.93827000000E+00 0. -1.
     999902    2    1    2    0    0  0.12321785520E-01  0.10991818420E-01 -0.17389573269E-01  0.10199499306E+01  0.10196679936E+01 0.  0.
     999903    2    3    3    0    0 -0.75164765612E-01 -0.39426356600E-01  0.92771802232E-01  0.12735180284E+00  0.20191453973E-01 0.  0.
         14    1    1    2    0    0 -0.12321785520E-01 -0.10991818420E-01  0.17389573269E-01  0.23980069413E-01  0.00000000000E+00 0. -1.
     999901    1    3    3    0    0  0.87486551132E-01  0.50418175020E-01 -0.11016137550E+00  0.89259812774E+00  0.88000000000E+00 0. -1.
        -11    1    4    4    0    0 -0.85568906696E-02 -0.12608336526E-01  0.13151574049E-01  0.20134933544E-01  0.51100000000E-03 0.  1.
         11    1    4    4    0    0 -0.66607874942E-01 -0.26818020074E-01  0.79620228184E-01  0.10721686930E+00  0.51100000000E-03 0. -1.
</event>
<event>
 8    1  0.1066842E+005  0.1043930E+01  0.7957747E-01            NaN
         13   -1    0    0    0    0  0.00000000000E+00  0.00000000000E+00  0.74505805969E-08  0.10566000000E+00  0.10566000000E+00 0.  1.
     999900   -1    0    0    0    0 -0.00000000000E+00 -0.00000000000E+00 -0.74505805969E-08  0.93827000000E+00  0.93827000000E+00 0. -1.
     999902    2    1    2    0    0  0.14545188409E-01 -0.40156869545E-02  0.17825328342E-01  0.10205755448E+01  0.10203082926E+01 0.  0.
     999903    2    3    3    0    0 -0.97905775011E-01  0.54213725214E-01  0.63580096970E-01  0.13033435137E+00  0.20492575096E-01 0.  0.
         14    1    1    2    0    0 -0.14545188409E-01  0.40156869545E-02 -0.17825328342E-01  0.23354455208E-01  0.00000000000E+00 0. -1.
     999901    1    3    3    0    0  0.11245096342E+00 -0.58229412169E-01 -0.45754768628E-01  0.89024119342E+00  0.88000000000E+00 0. -1.
        -11    1    4    4    0    0 -0.36250510341E-01  0.21802191911E-01  0.13023820001E-01  0.44264162485E-01  0.51100000000E-03 0. -1.
         11    1    4    4    0    0 -0.61655264670E-01  0.32411533303E-01  0.50556276968E-01  0.86070188884E-01  0.51100000000E-03 0.  1.
</event>
<event>
 8    1  0.1066842E+005  0.1043930E+01  0.7957747E-01            NaN
         13   -1    0    0    0    0  0.00000000000E+00  0.00000000000E+00  0.74505805969E-08  0.10566000000E+00  0.10566000000E+00 0. -1.
     999900   -1    0    0    0    0 -0.00000000000E+00 -0.00000000000E+00 -0.74505805969E-08  0.93827000000E+00  0.93827000000E+00 0. -1.
     999902    2    1    2    0    0 -0.74418213762E-02  0.22281899501E-01  0.40536411586E-02  0.10200910454E+01  0.10198124558E+01 0.  0.
     999903    2    3    3    0    0  0.72889757396E-01 -0.81231755029E-01  0.64600980842E-01  0.12833198624E+00  0.19603499867E-01 0.  0.
         14    1    1    2    0    0  0.74418213762E-02 -0.22281899501E-01 -0.40536411586E-02  0.23838954621E-01  0.00000000000E+00 0. -1.
     999901    1    3    3    0    0 -0.80331578772E-01  0.10351365453E+00 -0.60547339683E-01  0.89175905914E+00  0.88000000000E+00 0. -1.
        -11    1    4    4    0    0  0.25303886568E-01 -0.38887325868E-01  0.34839868284E-01  0.58022308913E-01  0.51100000000E-03 0.  1.
         11    1    4    4    0    0  0.47585870828E-01 -0.42344429161E-01  0.29761112558E-01  0.70309677322E-01  0.51100000000E-03 0. -1.
</event>
<event>
 8    1  0.1066842E+005  0.1043930E+01  0.7957747E-01            NaN
         13   -1    0    0    0    0  0.00000000000E+00  0.00000000000E+00  0.74505805969E-08  0.10566000000E+00  0.10566000000E+00 0. -1.
     999900   -1    0    0    0    0 -0.00000000000E+00 -0.00000000000E+00 -0.74505805969E-08  0.93827000000E+00  0.93827000000E+00 0.  1.
     999902    2    1    2    0    0 -0.11093362828E-01  0.59159997731E-03  0.22731163932E-01  0.10186294367E+01  0.10183151825E+01 0.  0.
     999903    2    3    3    0    0  0.19878937653E-01  0.10902654294E+00 -0.59683446935E-01  0.12761339401E+00  0.21002506190E-01 0.  0.
         14    1    1    2    0    0  0.11093362828E-01 -0.59159997731E-03 -0.22731163932E-01  0.25300563296E-01  0.00000000000E+00 0.  1.
     999901    1    3    3    0    0 -0.30972300482E-01 -0.10843494296E+00  0.82414610867E-01  0.89101604269E+00  0.88000000000E+00 0. -1.
        -11    1    4    4    0    0  0.16034987531E-01  0.69430588674E-01 -0.27284619296E-01  0.76304908360E-01  0.51100000000E-03 0. -1.
         11    1    4    4    0    0  0.38439501227E-02  0.39595954262E-01 -0.32398827638E-01  0.51308485651E-01  0.51100000000E-03 0.  1.
</event>
<event>
 8    1  0.1066842E+005  0.1043930E+01  0.7957747E-01            NaN
         13   -1    0    0    0    0  0.00000000000E+00  0.00000000000E+00  0.74505805969E-08  0.10566000000E+00  0.10566000000E+00 0. -1.
     999900   -1    0    0    0    0 -0.00000000000E+00 -0.00000000000E+00 -0.74505805969E-08  0.93827000000E+00  0.93827000000E+00 0. -1.
     999902    2    1    2    0    0 -0.24026143577E-01  0.65625648763E-02 -0.82162591551E-02  0.10177034915E+01  0.10173655031E+01 0.  0.
     999903    2    3    3    0    0  0.50392720880E-01  0.10348133944E+00 -0.52687404748E-01  0.12814792886E+00  0.19952822423E-01 0.  0.
         14    1    1    2    0    0  0.24026143577E-01 -0.65625648763E-02  0.82162591551E-02  0.26226508487E-01  0.00000000000E+00 0. -1.
     999901    1    3    3    0    0 -0.74418864456E-01 -0.96918774565E-01  0.44471145593E-01  0.88955556265E+00  0.88000000000E+00 0.  1.
        -11    1    4    4    0    0  0.31985060849E-01  0.84578553528E-01 -0.40880555521E-01  0.99237375898E-01  0.51100000000E-03 0.  1.
         11    1    4    4    0    0  0.18407660031E-01  0.18902785913E-01 -0.11806849227E-01  0.28910552965E-01  0.51100000000E-03 0. -1.
</event>
<event>
 8    1  0.1066842E+005  0.1043930E+01  0.7957747E-01            NaN
         13   -1    0    0    0    0  0.00000000000E+00  0.00000000000E+00  0.74505805969E-08  0.10566000000E+00  0.10566000000E+00 0.  1.
     999900   -1    0    0    0    0 -0.00000000000E+00 -0.00000000000E+00 -0.74505805969E-08  0.93827000000E+00  0.93827000000E+00 0.  1.
     999902    2    1    2    0    0  0.21697294259E-01  0.10285393971E-01  0.19132940561E-02  0.10198421898E+01  0.10195576832E+01 0.  0.
     999903    2    3    3    0    0  0.42608862536E-01  0.20640634374E-02 -0.12212288365E+00  0.13085970550E+00  0.19760776526E-01 0.  0.
         14    1    1    2    0    0 -0.21697294259E-01 -0.10285393971E-01 -0.19132940561E-02  0.24087810225E-01  0.00000000000E+00 0.  1.
     999901    1    3    3    0    0 -0.20911568277E-01  0.82213305332E-02  0.12403617771E+00  0.88898248427E+00  0.88000000000E+00 0. -1.
        -11    1    4    4    0    0  0.19500403871E-01 -0.21927966001E-02 -0.30504630505E-01  0.36274890921E-01  0.51100000000E-03 0.  1.
         11    1    4    4    0    0  0.23108458665E-01  0.42568600375E-02 -0.91618253144E-01  0.94584814582E-01  0.51100000000E-03 0. -1.
</event>
<event>
 8    1  0.1066842E+005  0.1043930E+01  0.7957747E-01            NaN
         13   -1    0    0    0    0  0.00000000000E+00  0.00000000000E+00  0.74505805969E-08  0.10566000000E+00  0.10566000000E+00 0.  1.
     999900   -1    0    0    0    0 -0.00000000000E+00 -0.00000000000E+00 -0.74505805969E-08  0.93827000000E+00  0.93827000000E+00 0.  1.
     999902    2    1    2    0    0 -0.54075218359E-02  0.10240962364E-01  0.20504907345E-01  0.10203806937E+01  0.10201089110E+01 0.  0.
     999903    2    3    3    0    0  0.50489867501E-01  0.42246811825E-01  0.11390188507E+00  0.13309726209E+00  0.20179740423E-01 0.  0.
         14    1    1    2    0    0  0.54075218359E-02 -0.10240962364E-01 -0.20504907345E-01  0.23549306312E-01  0.00000000000E+00 0. -1.
     999901    1    3    3    0    0 -0.55897389336E-01 -0.32005849461E-01 -0.93396977730E-01  0.88728343160E+00  0.88000000000E+00 0.  1.
        -11    1    4    4    0    0  0.36718781033E-01  0.36420438782E-01  0.72362220072E-01  0.88945316102E-01  0.51100000000E-03 0. -1.
         11    1    4    4    0    0  0.13771086468E-01  0.58263730431E-02  0.41539665002E-01  0.44151945992E-01  0.51100000000E-03 0.  1.
</event>
<event>
 8    1  0.1066842E+005  0.1043930E+01  0.7957747E-01            NaN
         13   -1    0    0    0    0  0.00000000000E+00  0.00000000000E+00  0.74505805969E-08  0.10566000000E+00  0.10566000000E+00 0.  1.
     999900   -1    0    0    0    0 -0.00000000000E+00 -0.00000000000E+00 -0.74505805969E-08  0.93827000000E+00  0.93827000000E+00 0.  1.
     999902    2    1    2    0    0 -0.73682905456E-02 -0.31756544348E-01  0.74152286334E-03  0.10113214172E+01  0.10107955724E+01 0.  0.
     999903    2    3    3    0    0 -0.42137690508E-01 -0.11619819326E+00  0.16711303726E-01  0.12645174482E+00  0.20812760895E-01 0.  0.
         14    1    1    2    0    0  0.73682905456E-02  0.31756544348E-01 -0.74152286334E-03  0.32608582776E-01  0.00000000000E+00 0.  1.
     999901    1    3    3    0    0  0.34769399963E-01  0.84441648915E-01 -0.15969780862E-01  0.88486967241E+00  0.88000000000E+00 0.  1.
        -11    1    4    4    0    0 -0.21473156014E-01 -0.34155064005E-01  0.76369420277E-03  0.40354791242E-01  0.51100000000E-03 0.  1.
         11    1    4    4    0    0 -0.20664534495E-01 -0.82043129259E-01  0.15947609523E-01  0.86096953575E-01  0.51100000000E-03 0. -1.
</event>
<event>
 8    1  0.1066842E+005  0.1043930E+01  0.7957747E-01            NaN
         13   -1    0    0    0    0  0.00000000000E+00  0.00000000000E+00  0.74505805969E-08  0.10566000000E+00  0.10566000000E+00 0.  1.
     999900   -1    0    0    0    0 -0.00000000000E+00 -0.00000000000E+00 -0.74505805969E-08  0.93827000000E+00  0.93827000000E+00 0. -1.
     999902    2    1    2    0    0 -0.12280024246E-01 -0.29904138643E-02 -0.20060419990E-01  0.10202200438E+01  0.10199444965E+01 0.  0.
     999903    2    3    3    0    0  0.22251311305E-01 -0.12105008795E+00  0.36558547976E-01  0.12986269575E+00  0.19481983175E-01 0.  0.
         14    1    1    2    0    0  0.12280024246E-01  0.29904138643E-02  0.20060419990E-01  0.23709956152E-01  0.00000000000E+00 0.  1.
     999901    1    3    3    0    0 -0.34531335551E-01  0.11805967409E+00 -0.56618967966E-01  0.89035734810E+00  0.88000000000E+00 0.  1.
        -11    1    4    4    0    0  0.10751844728E-01 -0.99575327170E-01  0.31346588613E-01  0.10494626094E+00  0.51100000000E-03 0.  1.
         11    1    4    4    0    0  0.11499466577E-01 -0.21474760784E-01  0.52119593630E-02  0.24916434811E-01  0.51100000000E-03 0. -1.
</event>
<event>
 8    1  0.1066842E+005  0.1043930E+01  0.7957747E-01            NaN
         13   -1    0    0    0    0  0.00000000000E+00  0.00000000000E+00  0.74505805969E-08  0.10566000000E+00  0.10566000000E+00 0.  1.
     999900   -1    0    0    0    0 -0.00000000000E+00 -0.00000000000E+00 -0.74505805969E-08  0.93827000000E+00  0.93827000000E+00 0.  1.
     999902    2    1    2    0    0  0.14662957962E-01 -0.18187722492E-01  0.24784512976E-02  0.10204366327E+01  0.10201661546E+01 0.  0.
     999903    2    3    3    0    0 -0.67962310613E-01 -0.72640061100E-01  0.83176227710E-01  0.13122117890E+00  0.20131040569E-01 0.  0.
         14    1    1    2    0    0 -0.14662957962E-01  0.18187722492E-01 -0.24784512976E-02  0.23493367287E-01  0.00000000000E+00 0. -1.
     999901    1    3    3    0    0  0.82625268576E-01  0.54452338608E-01 -0.80697776412E-01  0.88921545382E+00  0.88000000000E+00 0.  1.
        -11    1    4    4    0    0 -0.10854103599E-01 -0.24137346944E-01  0.19262815969E-01  0.32737444654E-01  0.51100000000E-03 0. -1.
         11    1    4    4    0    0 -0.57108207015E-01 -0.48502714156E-01  0.63913411741E-01  0.98483734242E-01  0.51100000000E-03 0.  1.
</event>
<event>
 8    1  0.1066842E+005  0.1043930E+01  0.7957747E-01            NaN
         13   -1    0    0    0    0  0.00000000000E+00  0.00000000000E+00  0.74505805969E-08  0.10566000000E+00  0.10566000000E+00 0. -1.
     999900   -1    0    0    0    0 -0.00000000000E+00 -0.00000000000E+00 -0.74505805969E-08  0.93827000000E+00  0.93827000000E+00 0.  1.
     999902    2    1    2    0    0 -0.69931228068E-02 -0.23517798015E-01  0.10612415056E-02  0.10193715631E+01  0.10190756924E+01 0.  0.
     999903    2    3    3    0    0  0.67206268809E-01 -0.12736323213E-01 -0.10809533547E+00  0.12946316993E+00  0.19930236339E-01 0.  0.
         14    1    1    2    0    0  0.69931228068E-02  0.23517798015E-01 -0.10612415056E-02  0.24558436913E-01  0.00000000000E+00 0.  1.
     999901    1    3    3    0    0 -0.74199391616E-01 -0.10781474802E-01  0.10915657698E+00  0.88990839316E+00  0.88000000000E+00 0. -1.
        -11    1    4    4    0    0  0.30736376397E-01  0.33744036947E-02 -0.40109072601E-01  0.50646917579E-01  0.51100000000E-03 0.  1.
         11    1    4    4    0    0  0.36469892412E-01 -0.16110726908E-01 -0.67986262874E-01  0.78816252351E-01  0.51100000000E-03 0. -1.
</event>
<event>
 8    1  0.1066842E+005  0.1043930E+01  0.7957747E-01            NaN
         13   -1    0    0    0    0  0.00000000000E+00  0.00000000000E+00  0.74505805969E-08  0.10566000000E+00  0.10566000000E+00 0.  1.
     999900   -1    0    0    0    0 -0.00000000000E+00 -0.00000000000E+00 -0.74505805969E-08  0.93827000000E+00  0.93827000000E+00 0. -1.
     999902    2    1    2    0    0 -0.19247809468E-01  0.13046993012E-02 -0.11963743246E-01  0.10212295251E+01  0.10209771943E+01 0.  0.
     999903    2    3    3    0    0 -0.27403941753E-01  0.67238442779E-01 -0.10989749430E+00  0.13330790656E+00  0.20531792098E-01 0.  0.
         14    1    1    2    0    0  0.19247809468E-01 -0.13046993012E-02  0.11963743246E-01  0.22700474929E-01  0.00000000000E+00 0.  1.
     999901    1    3    3    0    0  0.81561322852E-02 -0.65933743478E-01  0.97933751055E-01  0.88792161851E+00  0.88000000000E+00 0.  1.
        -11    1    4    4    0    0 -0.85410388016E-02  0.20867508387E-01 -0.52533040934E-01  0.57169780136E-01  0.51100000000E-03 0.  1.
         11    1    4    4    0    0 -0.18862902951E-01  0.46370934392E-01 -0.57364453367E-01  0.76138126424E-01  0.51100000000E-03 0. -1.
</event>
<event>
 8    1  0.1066842E+005  0.1043930E+01  0.7957747E-01            NaN
         13   -1    0    0    0    0  0.00000000000E+00  0.00000000000E+00  0.74505805969E-08  0.10566000000E+00  0.10566000000E+00 0.  1.
     999900   -1    0    0    0    0 -0.00000000000E+00 -0.00000000000E+00 -0.74505805969E-08  0.93827000000E+00  0.93827000000E+00 0.  1.
     999902    2    1    2    0    0  0.12063031148E-01 -0.17979743005E-01  0.99305439012E-02  0.10201097653E+01  0.10198316183E+01 0.  0.
     999903    2    3    3    0    0 -0.24003102844E-01 -0.12610052078E+00 -0.23441394485E-01  0.13213197567E+00  0.20781475668E-01 0.  0.
         14    1    1    2    0    0 -0.12063031148E-01  0.17979743005E-01 -0.99305439012E-02  0.23820234700E-01  0.00000000000E+00 0.  1.
     999901    1    3    3    0    0  0.36066133992E-01  0.10812077778E+00  0.33371938386E-01  0.88797778963E+00  0.88000000000E+00 0. -1.
        -11    1    4    4    0    0 -0.12444745790E-01 -0.70728812841E-01 -0.26547304310E-02  0.71866162958E-01  0.51100000000E-03 0. -1.
         11    1    4    4    0    0 -0.11558357054E-01 -0.55371707940E-01 -0.20786664054E-01  0.60265812709E-01  0.51100000000E-03 0.  1.
</event>
<event>
 8    1  0.1066842E+005  0.1043930E+01  0.7957747E-01            NaN
         13   -1    0    0    0    0  0.00000000000E+00  0.00000000000E+00  0.74505805969E-08  0.10566000000E+00  0.10566000000E+00 0.  1.
     999900   -1    0    0    0    0 -0.00000000000E+00 -0.00000000000E+00 -0.74505805969E-08  0.93827000000E+00  0.93827000000E+00 0.  1.
     999902    2    1    2    0    0 -0.10902780413E-01 -0.40161799163E-02 -0.19451793269E-01  0.10212722732E+01  0.10210209026E+01 0.  0.
     999903    2    3    3    0    0 -0.10650281990E+00  0.75758001289E-01 -0.58952686116E-02  0.13240385387E+00  0.20344555111E-01 0.  0.
         14    1    1    2    0    0  0.10902780413E-01  0.40161799163E-02  0.19451793269E-01  0.22657726789E-01  0.00000000000E+00 0.  1.
     999901    1    3    3    0    0  0.95600039485E-01 -0.79774181205E-01 -0.13556524658E-01  0.88886841934E+00  0.88000000000E+00 0.  1.
        -11    1    4    4    0    0 -0.81875809170E-01  0.52933785034E-01  0.34083044566E-02  0.97557733602E-01  0.51100000000E-03 0. -1.
         11    1    4    4    0    0 -0.24627010728E-01  0.22824216255E-01 -0.93035730683E-02  0.34846120270E-01  0.51100000000E-03 0.  1.
</event>
<event>
 8    1  0.1066842E+005  0.1043930E+01  0.7957747E-01            NaN
         13   -1    0    0    0    0  0.00000000000E+00  0.00000000000E+00  0.74505805969E-08  0.10566000000E+00  0.10566000000E+00 0. -1.
     999900   -1    0    0    0    0 -0.00000000000E+00 -0.00000000000E+00 -0.74505805969E-08  0.93827000000E+00  0.93827000000E+00 0. -1.
     999902    2    1    2    0    0 -0.36118405321E-02  0.18240816565E-01 -0.36704810922E-02  0.10249762349E+01  0.10248009743E+01 0.  0.
     999903    2    3    3    0    0  0.22254764292E-01 -0.12408949193E+00 -0.35801431045E-01  0.13258652409E+00  0.20098939405E-01 0.  0.
         14    1    1    2    0    0  0.36118405321E-02 -0.18240816565E-01  0.36704810922E-02  0.18953765126E-01  0.00000000000E+00 0. -1.
     999901    1    3    3    0    0 -0.25866604825E-01  0.14233030850E+00  0.32130949953E-01  0.89238971078E+00  0.88000000000E+00 0.  1.
        -11    1    4    4    0    0  0.20997721504E-01 -0.62515431885E-01 -0.21417737177E-01  0.69340205645E-01  0.51100000000E-03 0. -1.
         11    1    4    4    0    0  0.12570427884E-02 -0.61574060046E-01 -0.14383693868E-01  0.63246318449E-01  0.51100000000E-03 0.  1.
</event>
<event>
 8    1  0.1066842E+005  0.1043930E+01  0.7957747E-01            NaN
         13   -1    0    0    0    0  0.00000000000E+00  0.00000000000E+00  0.74505805969E-08  0.10566000000E+00  0.10566000000E+00 0.  1.
     999900   -1    0    0    0    0 -0.00000000000E+00 -0.00000000000E+00 -0.74505805969E-08  0.93827000000E+00  0.93827000000E+00 0. -1.
     999902    2    1    2    0    0  0.13191713531E-01  0.16152884118E-01  0.14278078437E-01  0.10186554971E+01  0.10183418981E+01 0.  0.
     999903    2    3    3    0    0  0.20858000023E-01  0.12344755839E+00 -0.32119041981E-01  0.13089223373E+00  0.20658851743E-01 0.  0.
         14    1    1    2    0    0 -0.13191713531E-01 -0.16152884118E-01 -0.14278078437E-01  0.25274502865E-01  0.00000000000E+00 0. -1.
     999901    1    3    3    0    0 -0.76662864925E-02 -0.10729467427E+00  0.46397120418E-01  0.88776326341E+00  0.88000000000E+00 0.  1.
        -11    1    4    4    0    0  0.22954317622E-02  0.69576727594E-01 -0.22072382870E-01  0.73031782370E-01  0.51100000000E-03 0.  1.
         11    1    4    4    0    0  0.18562568261E-01  0.53870830793E-01 -0.10046659111E-01  0.57860451356E-01  0.51100000000E-03 0. -1.
</event>
<event>
 8    1  0.1066842E+005  0.1043930E+01  0.7957747E-01            NaN
         13   -1    0    0    0    0  0.00000000000E+00  0.00000000000E+00  0.74505805969E-08  0.10566000000E+00  0.10566000000E+00 0. -1.
     999900   -1    0    0    0    0 -0.00000000000E+00 -0.00000000000E+00 -0.74505805969E-08  0.93827000000E+00  0.93827000000E+00 0.  1.
     999902    2    1    2    0    0  0.11471168511E-01 -0.33537780446E-02  0.20956508923E-01  0.10198051000E+01  0.10195197061E+01 0.  0.
     999903    2    3    3    0    0 -0.82208792751E-01  0.42470632234E-01  0.90407208598E-01  0.13092984924E+00  0.20177260630E-01 0.  0.
         14    1    1    2    0    0 -0.11471168511E-01  0.33537780446E-02 -0.20956508923E-01  0.24124900009E-01  0.00000000000E+00 0.  1.
     999901    1    3    3    0    0  0.93679961263E-01 -0.45824410279E-01 -0.69450699675E-01  0.88887525076E+00  0.88000000000E+00 0.  1.
        -11    1    4    4    0    0 -0.71836163631E-01  0.43941101712E-01  0.80841463711E-01  0.11673413469E+00  0.51100000000E-03 0.  1.
         11    1    4    4    0    0 -0.10372629120E-01 -0.14704694779E-02  0.95657448863E-02  0.14195714550E-01  0.51100000000E-03 0. -1.
</event>
<event>
 8    1  0.1066842E+005  0.1043930E+01  0.7957747E-01            NaN
         13   -1    0    0    0    0  0.00000000000E+00  0.00000000000E+00  0.74505805969E-08  0.10566000000E+00  0.10566000000E+00 0.  1.
     999900   -1    0    0    0    0 -0.00000000000E+00 -0.00000000000E+00 -0.74505805969E-08  0.93827000000E+00  0.93827000000E+00 0. -1.
     999902    2    1    2    0    0  0.13867498752E-01  0.14552245002E-01  0.12670441448E-01  0.10201683620E+01  0.10198915978E+01 0.  0.
     999903    2    3    3    0    0 -0.34636638882E-01 -0.63088034530E-01 -0.10405089574E+00  0.12775336044E+00  0.17735144306E-01 0.  0.
         14    1    1    2    0    0 -0.13867498752E-01 -0.14552245002E-01 -0.12670441448E-01  0.23761638048E-01  0.00000000000E+00 0. -1.
     999901    1    3    3    0    0  0.48504137635E-01  0.77640279532E-01  0.11672133719E+00  0.89241500152E+00  0.88000000000E+00 0.  1.
        -11    1    4    4    0    0 -0.21495047599E-01 -0.53517789549E-01 -0.84741889350E-01  0.10250677929E+00  0.51100000000E-03 0.  1.
         11    1    4    4    0    0 -0.13141591283E-01 -0.95702449811E-02 -0.19309006395E-01  0.25246581143E-01  0.51100000000E-03 0. -1.
</event>
<event>
 8    1  0.1066842E+005  0.1043930E+01  0.7957747E-01            NaN
         13   -1    0    0    0    0  0.00000000000E+00  0.00000000000E+00  0.74505805969E-08  0.10566000000E+00  0.10566000000E+00 0.  1.
     999900   -1    0    0    0    0 -0.00000000000E+00 -0.00000000000E+00 -0.74505805969E-08  0.93827000000E+00  0.93827000000E+00 0. -1.
     999902    2    1    2    0    0  0.91607358343E-02  0.18176749420E-01 -0.12855111491E-01  0.10198557982E+01  0.10195716169E+01 0.  0.
     999903    2    3    3    0    0  0.73668595359E-01 -0.94915572668E-01 -0.45356086947E-01  0.12968308987E+00  0.18013919593E-01 0.  0.
         14    1    1    2    0    0 -0.91607358343E-02 -0.18176749420E-01  0.12855111491E-01  0.24074201793E-01  0.00000000000E+00 0.  1.
     999901    1    3    3    0    0 -0.64507859525E-01  0.11309232209E+00  0.32500975457E-01  0.89017270833E+00  0.88000000000E+00 0.  1.
        -11    1    4    4    0    0  0.41717362035E-01 -0.67230858764E-01 -0.27183212988E-01  0.83663103306E-01  0.51100000000E-03 0. -1.
         11    1    4    4    0    0  0.31951233324E-01 -0.27684713903E-01 -0.18172873960E-01  0.46019986569E-01  0.51100000000E-03 0.  1.
</event>
<event>
 8    1  0.1066842E+005  0.1043930E+01  0.7957747E-01            NaN
         13   -1    0    0    0    0  0.00000000000E+00  0.00000000000E+00  0.74505805969E-08  0.10566000000E+00  0.10566000000E+00 0. -1.
     999900   -1    0    0    0    0 -0.00000000000E+00 -0.00000000000E+00 -0.74505805969E-08  0.93827000000E+00  0.93827000000E+00 0. -1.
     999902    2    1    2    0    0  0.17122553767E-01 -0.92386549342E-02  0.13386583084E-01  0.10203135820E+01  0.10200402298E+01 0.  0.
     999903    2    3    3    0    0  0.10933853422E+00  0.48109303680E-01 -0.49142592494E-01  0.13143649646E+00  0.24313330442E-01 0.  0.
         14    1    1    2    0    0 -0.17122553767E-01  0.92386549342E-02 -0.13386583084E-01  0.23616418000E-01  0.00000000000E+00 0.  1.
     999901    1    3    3    0    0 -0.92215980454E-01 -0.57347958615E-01  0.62529175578E-01  0.88887708554E+00  0.88000000000E+00 0.  1.
        -11    1    4    4    0    0  0.87206083789E-01  0.45777113618E-01 -0.32761408656E-01  0.10379795855E+00  0.51100000000E-03 0. -1.
         11    1    4    4    0    0  0.22132450432E-01  0.23321900626E-02 -0.16381183838E-01  0.27638537905E-01  0.51100000000E-03 0.  1.
</event>
<event>
 8    1  0.1066842E+005  0.1043930E+01  0.7957747E-01            NaN
         13   -1    0    0    0    0  0.00000000000E+00  0.00000000000E+00  0.74505805969E-08  0.10566000000E+00  0.10566000000E+00 0. -1.
     999900   -1    0    0    0    0 -0.00000000000E+00 -0.00000000000E+00 -0.74505805969E-08  0.93827000000E+00  0.93827000000E+00 0. -1.
     999902    2    1    2    0    0  0.11897842286E-01  0.10446765904E-01 -0.94757285720E-02  0.10254778185E+01  0.10253117932E+01 0.  0.
     999903    2    3    3    0    0 -0.12010725984E+00  0.43132407164E-01  0.34574879605E-01  0.13394310008E+00  0.21428330417E-01 0.  0.
         14    1    1    2    0    0 -0.11897842286E-01 -0.10446765904E-01  0.94757285720E-02  0.18452181467E-01  0.00000000000E+00 0.  1.
     999901    1    3    3    0    0  0.13200510213E+00 -0.32685641261E-01 -0.44050608177E-01  0.89153471846E+00  0.88000000000E+00 0.  1.
        -11    1    4    4    0    0 -0.51426687772E-01  0.20498383821E-01  0.25854977366E-01  0.61103428137E-01  0.51100000000E-03 0.  1.
         11    1    4    4    0    0 -0.68680572068E-01  0.22634023343E-01  0.87199022391E-02  0.72839671940E-01  0.51100000000E-03 0. -1.
</event>
<event>
 8    1  0.1066842E+005  0.1043930E+01  0.7957747E-01            NaN
         13   -1    0    0    0    0  0.00000000000E+00  0.00000000000E+00  0.74505805969E-08  0.10566000000E+00  0.10566000000E+00 0.  1.
     999900   -1    0    0    0    0 -0.00000000000E+00 -0.00000000000E+00 -0.74505805969E-08  0.93827000000E+00  0.93827000000E+00 0.  1.
     999902    2    1    2    0    0  0.15547394774E-01  0.18418450653E-01  0.85635031844E-02  0.10183508211E+01  0.10180295184E+01 0.  0.
     999903    2    3    3    0    0 -0.61642834517E-01  0.10811331143E+00  0.35059651244E-01  0.13003469185E+00  0.13838886608E-01 0.  0.
         14    1    1    2    0    0 -0.15547394774E-01 -0.18418450653E-01 -0.85635031844E-02  0.25579178946E-01  0.00000000000E+00 0. -1.
     999901    1    3    3    0    0  0.77190229291E-01 -0.89694860778E-01 -0.26496148060E-01  0.88831612921E+00  0.88000000000E+00 0.  1.
        -11    1    4    4    0    0 -0.29351690263E-01  0.41350085298E-01  0.18986739497E-01  0.54148948957E-01  0.51100000000E-03 0.  1.
         11    1    4    4    0    0 -0.32291144254E-01  0.66763226133E-01  0.16072911747E-01  0.75885742890E-01  0.51100000000E-03 0. -1.
</event>
<event>
 8    1  0.1066842E+005  0.1043930E+01  0.7957747E-01            NaN
         13   -1    0    0    0    0  0.00000000000E+00  0.00000000000E+00  0.74505805969E-08  0.10566000000E+00  0.10566000000E+00 0. -1.
     999900   -1    0    0    0    0 -0.00000000000E+00 -0.00000000000E+00 -0.74505805969E-08  0.93827000000E+00  0.93827000000E+00 0.  1.
     999902    2    1    2    0    0  0.21063664808E-01  0.39897869372E-02 -0.11876489748E-02  0.10224589291E+01  0.10222334640E+01 0.  0.
     999903    2    3    3    0    0  0.70264731522E-01  0.67348234646E-01 -0.90312470964E-01  0.13432702914E+00  0.20359055459E-01 0.  0.
         14    1    1    2    0    0 -0.21063664808E-01 -0.39897869372E-02  0.11876489748E-02  0.21471070887E-01  0.00000000000E+00 0. -1.
     999901    1    3    3    0    0 -0.49201066714E-01 -0.63358447709E-01  0.89124821989E-01  0.88813189998E+00  0.88000000000E+00 0. -1.
        -11    1    4    4    0    0  0.10069630259E-01  0.22788257983E-02 -0.13711329715E-01  0.17171260411E-01  0.51100000000E-03 0. -1.
         11    1    4    4    0    0  0.60195101263E-01  0.65069408847E-01 -0.76601141249E-01  0.11715576872E+00  0.51100000000E-03 0.  1.
</event>
<event>
 8    1  0.1066842E+005  0.1043930E+01  0.7957747E-01            NaN
         13   -1    0    0    0    0  0.00000000000E+00  0.00000000000E+00  0.74505805969E-08  0.10566000000E+00  0.10566000000E+00 0.  1.
     999900   -1    0    0    0    0 -0.00000000000E+00 -0.00000000000E+00 -0.74505805969E-08  0.93827000000E+00  0.93827000000E+00 0. -1.
     999902    2    1    2    0    0 -0.11154121845E-01  0.22486502454E-01 -0.94440165577E-02  0.10171112253E+01  0.10167575906E+01 0.  0.
     999903    2    3    3    0    0  0.58547684899E-02  0.83851326624E-01 -0.97763119195E-01  0.13040089613E+00  0.19530564406E-01 0.  0.
         14    1    1    2    0    0  0.11154121845E-01 -0.22486502454E-01  0.94440165577E-02  0.26818774683E-01  0.00000000000E+00 0.  1.
     999901    1    3    3    0    0 -0.17008890335E-01 -0.61364824170E-01  0.88319102637E-01  0.88671032919E+00  0.88000000000E+00 0.  1.
        -11    1    4    4    0    0 -0.47082287535E-02  0.54124928168E-01 -0.55590266741E-01  0.77731680443E-01  0.51100000000E-03 0.  1.
         11    1    4    4    0    0  0.10562997243E-01  0.29726398457E-01 -0.42172852454E-01  0.52669215687E-01  0.51100000000E-03 0. -1.
</event>
<event>
 8    1  0.1066842E+005  0.1043930E+01  0.7957747E-01            NaN
         13   -1    0    0    0    0  0.00000000000E+00  0.00000000000E+00  0.74505805969E-08  0.10566000000E+00  0.10566000000E+00 0.  1.
     999900   -1    0    0    0    0 -0.00000000000E+00 -0.00000000000E+00 -0.74505805969E-08  0.93827000000E+00  0.93827000000E+00 0.  1.
     999902    2    1    2    0    0 -0.53048123260E-02 -0.71312233660E-02 -0.21507342835E-01  0.10206585330E+01  0.10203931986E+01 0.  0.
     999903    2    3    3    0    0 -0.52117916605E-01 -0.97877069511E-01  0.65160918314E-01  0.13052502458E+00  0.22240476574E-01 0.  0.
         14    1    1    2    0    0  0.53048123260E-02  0.71312233660E-02  0.21507342835E-01  0.23271467000E-01  0.00000000000E+00 0.  1.
     999901    1    3    3    0    0  0.46813104279E-01  0.90745846145E-01 -0.86668261149E-01  0.89013350842E+00  0.88000000000E+00 0.  1.
        -11    1    4    4    0    0 -0.14581959806E-01 -0.47673582061E-01  0.22494617627E-01  0.54696187450E-01  0.51100000000E-03 0.  1.
         11    1    4    4    0    0 -0.37535956799E-01 -0.50203487450E-01  0.42666300687E-01  0.75828837128E-01  0.51100000000E-03 0. -1.
</event>
<event>
 8    1  0.1066842E+005  0.1043930E+01  0.7957747E-01            NaN
         13   -1    0    0    0    0  0.00000000000E+00  0.00000000000E+00  0.74505805969E-08  0.10566000000E+00  0.10566000000E+00 0. -1.
     999900   -1    0    0    0    0 -0.00000000000E+00 -0.00000000000E+00 -0.74505805969E-08  0.93827000000E+00  0.93827000000E+00 0. -1.
     999902    2    1    2    0    0 -0.11963876406E-01  0.53867232677E-02 -0.19772222426E-01  0.10202004424E+01  0.10199244338E+01 0.  0.
     999903    2    3    3    0    0  0.85221793303E-01  0.55496732638E-01 -0.80990760855E-01  0.13132262349E+00  0.18533394405E-01 0.  0.
         14    1    1    2    0    0  0.11963876406E-01 -0.53867232677E-02  0.19772222426E-01  0.23729557642E-01  0.00000000000E+00 0. -1.
     999901    1    3    3    0    0 -0.97185669709E-01 -0.50110009370E-01  0.61218538429E-01  0.88887781887E+00  0.88000000000E+00 0.  1.
        -11    1    4    4    0    0  0.74546517991E-01  0.54217496352E-01 -0.68565509541E-01  0.11488346476E+00  0.51100000000E-03 0.  1.
         11    1    4    4    0    0  0.10675275311E-01  0.12792362855E-02 -0.12425251313E-01  0.16439158727E-01  0.51100000000E-03 0. -1.
</event>
<event>
 8    1  0.1066842E+005  0.1043930E+01  0.7957747E-01            NaN
         13   -1    0    0    0    0  0.00000000000E+00  0.00000000000E+00  0.74505805969E-08  0.10566000000E+00  0.10566000000E+00 0. -1.
     999900   -1    0    0    0    0 -0.00000000000E+00 -0.00000000000E+00 -0.74505805969E-08  0.93827000000E+00  0.93827000000E+00 0.  1.
     999902    2    1    2    0    0  0.28288927527E-02 -0.19213988689E-01  0.12393334965E-01  0.10208914508E+01  0.10206314612E+01 0.  0.
     999903    2    3    3    0    0  0.22814703987E-01 -0.10871679881E+00 -0.69380182289E-01  0.13235496100E+00  0.19088555350E-01 0.  0.
         14    1    1    2    0    0 -0.28288927527E-02  0.19213988689E-01 -0.12393334965E-01  0.23038549153E-01  0.00000000000E+00 0.  1.
     999901    1    3    3    0    0 -0.19985811234E-01  0.89502810118E-01  0.81773517254E-01  0.88853648985E+00  0.88000000000E+00 0. -1.
        -11    1    4    4    0    0  0.10217349269E-01 -0.51594993628E-01 -0.44055170820E-01  0.68611637428E-01  0.51100000000E-03 0. -1.
         11    1    4    4    0    0  0.12597354717E-01 -0.57121805179E-01 -0.25325011468E-01  0.63743323569E-01  0.51100000000E-03 0.  1.
</event>
<event>
 8    1  0.1066842E+005  0.1043930E+01  0.7957747E-01            NaN
         13   -1    0    0    0    0  0.00000000000E+00  0.00000000000E+00  0.74505805969E-08  0.10566000000E+00  0.10566000000E+00 0. -1.
     999900   -1    0    0    0    0 -0.00000000000E+00 -0.00000000000E+00 -0.74505805969E-08  0.93827000000E+00  0.93827000000E+00 0. -1.
     999902    2    1    2    0    0  0.13528832451E-01 -0.36189063810E-02  0.20042778790E-01  0.10194792582E+01  0.10191860082E+01 0.  0.
     999903    2    3    3    0    0  0.89813047176E-01  0.25483799554E-01  0.92316480603E-01  0.13274945899E+00  0.19603030076E-01 0.  0.
         14    1    1    2    0    0 -0.13528832451E-01  0.36189063810E-02 -0.20042778790E-01  0.24450741758E-01  0.00000000000E+00 0.  1.
     999901    1    3    3    0    0 -0.76284214725E-01 -0.29102705935E-01 -0.72273701813E-01  0.88672979925E+00  0.88000000000E+00 0. -1.
        -11    1    4    4    0    0  0.12490999875E-01  0.11123744930E-01  0.15322277727E-01  0.22689118424E-01  0.51100000000E-03 0.  1.
         11    1    4    4    0    0  0.77322047301E-01  0.14360054624E-01  0.76994202876E-01  0.11006034056E+00  0.51100000000E-03 0. -1.
</event>
<event>
 8    1  0.1066842E+005  0.1043930E+01  0.7957747E-01            NaN
         13   -1    0    0    0    0  0.00000000000E+00  0.00000000000E+00  0.74505805969E-08  0.10566000000E+00  0.10566000000E+00 0.  1.
     999900   -1    0    0    0    0 -0.00000000000E+00 -0.00000000000E+00 -0.74505805969E-08  0.93827000000E+00  0.93827000000E+00 0.  1.
     999902    2    1    2    0    0 -0.76673771617E-02 -0.21418184293E-01 -0.81198464791E-02  0.10197750999E+01  0.10194889873E+01 0.  0.
     999903    2    3    3    0    0  0.10114140884E+00 -0.93483470781E-02 -0.78784306439E-01  0.13018053003E+00  0.20567627027E-01 0.  0.
         14    1    1    2    0    0  0.76673771617E-02  0.21418184293E-01  0.81198464791E-02  0.24154900078E-01  0.00000000000E+00 0.  1.
     999901    1    3    3    0    0 -0.10880878600E+00 -0.12069837215E-01  0.70664459960E-01  0.88959456989E+00  0.88000000000E+00 0.  1.
        -11    1    4    4    0    0  0.56401616672E-01  0.45228478549E-02 -0.47165905719E-01  0.73664661128E-01  0.51100000000E-03 0.  1.
         11    1    4    4    0    0  0.44739792171E-01 -0.13871194933E-01 -0.31618400721E-01  0.56515868900E-01  0.51100000000E-03 0. -1.
</event>
<event>
 8    1  0.1066842E+005  0.1043930E+01  0.7957747E-01            NaN
         13   -1    0    0    0    0  0.00000000000E+00  0.00000000000E+00  0.74505805969E-08  0.10566000000E+00  0.10566000000E+00 0. -1.
     999900   -1    0    0    0    0 -0.00000000000E+00 -0.00000000000E+00 -0.74505805969E-08  0.93827000000E+00  0.93827000000E+00 0.  1.
     999902    2    1    2    0    0  0.39238957625E-02 -0.21972016192E-01 -0.85298189389E-02  0.10200359785E+01  0.10197560851E+01 0.  0.
     999903    2    3    3    0    0  0.11048957857E-01  0.11197221928E-01  0.12654354134E+00  0.12908380382E+00  0.20047526135E-01 0.  0.
         14    1    1    2    0    0 -0.39238957625E-02  0.21972016192E-01  0.85298189389E-02  0.23894021525E-01  0.00000000000E+00 0.  1.
     999901    1    3    3    0    0 -0.71250620945E-02 -0.33169238120E-01 -0.13507336028E+00  0.89095217466E+00  0.88000000000E+00 0.  1.
        -11    1    4    4    0    0 -0.50001914115E-02  0.67489102775E-02  0.53972743245E-01  0.54624791427E-01  0.51100000000E-03 0.  1.
         11    1    4    4    0    0  0.16049149268E-01  0.44483116505E-02  0.72570798098E-01  0.74459012392E-01  0.51100000000E-03 0. -1.
</event>
<event>
 8    1  0.1066842E+005  0.1043930E+01  0.7957747E-01            NaN
         13   -1    0    0    0    0  0.00000000000E+00  0.00000000000E+00  0.74505805969E-08  0.10566000000E+00  0.10566000000E+00 0.  1.
     999900   -1    0    0    0    0 -0.00000000000E+00 -0.00000000000E+00 -0.74505805969E-08  0.93827000000E+00  0.93827000000E+00 0.  1.
     999902    2    1    2    0    0 -0.16262029899E-01 -0.14833242634E-01 -0.46585565508E-02  0.10214315367E+01  0.10211837265E+01 0.  0.
     999903    2    3    3    0    0  0.12154825511E+00 -0.66524521366E-02 -0.40890951550E-01  0.12993202099E+00  0.19799664665E-01 0.  0.
         14    1    1    2    0    0  0.16262029899E-01  0.14833242634E-01  0.46585565508E-02  0.22498463339E-01  0.00000000000E+00 0.  1.
     999901    1    3    3    0    0 -0.13781028501E+00 -0.81807904976E-02  0.36232394999E-01  0.89149951567E+00  0.88000000000E+00 0. -1.
        -11    1    4    4    0    0  0.80199438744E-01  0.49647395179E-02 -0.25462970671E-01  0.84292482522E-01  0.51100000000E-03 0. -1.
         11    1    4    4    0    0  0.41348816367E-01 -0.11617191654E-01 -0.15427980879E-01  0.45639538472E-01  0.51100000000E-03 0.  1.
</event>
<event>
 8    1  0.1066842E+005  0.1043930E+01  0.7957747E-01            NaN
         13   -1    0    0    0    0  0.00000000000E+00  0.00000000000E+00  0.74505805969E-08  0.10566000000E+00  0.10566000000E+00 0.  1.
     999900   -1    0    0    0    0 -0.00000000000E+00 -0.00000000000E+00 -0.74505805969E-08  0.93827000000E+00  0.93827000000E+00 0.  1.
     999902    2    1    2    0    0  0.10609100815E-01  0.14593875521E-01  0.18255931824E-01  0.10182626419E+01  0.10179390918E+01 0.  0.
     999903    2    3    3    0    0  0.14970326133E-01  0.11504950081E+00  0.59385231375E-01  0.13158233190E+00  0.18077778091E-01 0.  0.
         14    1    1    2    0    0 -0.10609100815E-01 -0.14593875521E-01 -0.18255931824E-01  0.25667358056E-01  0.00000000000E+00 0. -1.
     999901    1    3    3    0    0 -0.43612253178E-02 -0.10045562529E+00 -0.41129299551E-01  0.88668031004E+00  0.88000000000E+00 0.  1.
        -11    1    4    4    0    0  0.12498220317E-01  0.46167651797E-01  0.31235575818E-01  0.57127750710E-01  0.51100000000E-03 0.  1.
         11    1    4    4    0    0  0.24721058161E-02  0.68881849017E-01  0.28149655557E-01  0.74454581189E-01  0.51100000000E-03 0. -1.
</event>
<event>
 8    1  0.1066842E+005  0.1043930E+01  0.7957747E-01            NaN
         13   -1    0    0    0    0  0.00000000000E+00  0.00000000000E+00  0.74505805969E-08  0.10566000000E+00  0.10566000000E+00 0.  1.
     999900   -1    0    0    0    0 -0.00000000000E+00 -0.00000000000E+00 -0.74505805969E-08  0.93827000000E+00  0.93827000000E+00 0. -1.
     999902    2    1    2    0    0  0.11901494827E-01  0.13650724649E-03  0.76147876624E-02  0.10298002723E+01  0.10297033319E+01 0.  0.
     999903    2    3    3    0    0 -0.13040289222E+00 -0.36226400963E-01  0.14230929086E-01  0.13760266360E+00  0.20364362542E-01 0.  0.
         14    1    1    2    0    0 -0.11901494827E-01 -0.13650724649E-03 -0.76147876624E-02  0.14129727686E-01  0.00000000000E+00 0. -1.
     999901    1    3    3    0    0  0.14230438705E+00  0.36362908209E-01 -0.66161414238E-02  0.89219760871E+00  0.88000000000E+00 0. -1.
        -11    1    4    4    0    0 -0.18855853459E-01  0.91603581556E-03  0.56893643328E-02  0.19723395215E-01  0.51100000000E-03 0. -1.
         11    1    4    4    0    0 -0.11154703876E+00 -0.37142436778E-01  0.85415647535E-02  0.11787926839E+00  0.51100000000E-03 0.  1.
</event>
<event>
 8    1  0.1066842E+005  0.1043930E+01  0.7957747E-01            NaN
         13   -1    0    0    0    0  0.00000000000E+00  0.00000000000E+00  0.74505805969E-08  0.10566000000E+00  0.10566000000E+00 0.  1.
     999900   -1    0    0    0    0 -0.00000000000E+00 -0.00000000000E+00 -0.74505805969E-08  0.93827000000E+00  0.93827000000E+00 0.  1.
     999902    2    1    2    0    0  0.10164860601E-01 -0.18896556589E-02  0.21741923786E-01  0.10198549831E+01  0.10195707823E+01 0.  0.
     999903    2    3    3    0    0  0.11813777260E+00  0.45992099612E-01 -0.24854942973E-01  0.13074189680E+00  0.20096488424E-01 0.  0.
         14    1    1    2    0    0 -0.10164860601E-01  0.18896556589E-02 -0.21741923786E-01  0.24075016915E-01  0.00000000000E+00 0. -1.
     999901    1    3    3    0    0 -0.10797291200E+00 -0.47881755271E-01  0.46596866759E-01  0.88911308629E+00  0.88000000000E+00 0. -1.
        -11    1    4    4    0    0  0.59855652614E-02  0.47458913646E-02 -0.60846438005E-02  0.97792887023E-02  0.51100000000E-03 0.  1.
         11    1    4    4    0    0  0.11215220734E+00  0.41246208247E-01 -0.18770299172E-01  0.12096260810E+00  0.51100000000E-03 0. -1.
</event>
<event>
 8    1  0.1066842E+005  0.1043930E+01  0.7957747E-01            NaN
         13   -1    0    0    0    0  0.00000000000E+00  0.00000000000E+00  0.74505805969E-08  0.10566000000E+00  0.10566000000E+00 0.  1.
     999900   -1    0    0    0    0 -0.00000000000E+00 -0.00000000000E+00 -0.74505805969E-08  0.93827000000E+00  0.93827000000E+00 0.  1.
     999902    2    1    2    0    0  0.59002743502E-03  0.12692028121E-01  0.19019684996E-01  0.10210567814E+01  0.10208005519E+01 0.  0.
     999903    2    3    3    0    0 -0.80057070238E-01 -0.10054214500E+00 -0.88138443523E-04  0.12993892097E+00  0.19137868187E-01 0.  0.
         14    1    1    2    0    0 -0.59002743502E-03 -0.12692028121E-01 -0.19019684996E-01  0.22873218566E-01  0.00000000000E+00 0. -1.
     999901    1    3    3    0    0  0.80647097673E-01  0.11323417312E+00  0.19107823440E-01  0.89111786047E+00  0.88000000000E+00 0.  1.
        -11    1    4    4    0    0 -0.96637423408E-02 -0.15382477507E-01  0.63821331397E-02  0.19261393373E-01  0.51100000000E-03 0. -1.
         11    1    4    4    0    0 -0.70393327897E-01 -0.85159667489E-01 -0.64702715832E-02  0.11067752760E+00  0.51100000000E-03 0.  1.
</event>
<event>
 8    1  0.1066842E+005  0.1043930E+01  0.7957747E-01            NaN
         13   -1    0    0    0    0  0.00000000000E+00  0.00000000000E+00  0.74505805969E-08  0.10566000000E+00  0.10566000000E+00 0.  1.
     999900   -1    0    0    0    0 -0.00000000000E+00 -0.00000000000E+00 -0.74505805969E-08  0.93827000000E+00  0.93827000000E+00 0. -1.
     999902    2    1    2    0    0 -0.24620723576E-02  0.69619888236E-02  0.23680479511E-01  0.10191248352E+01  0.10188229157E+01 0.  0.
     999903    2    3    3    0    0  0.96064607367E-02  0.14240476796E-02  0.13044653389E+00  0.13257235025E+00  0.21559634657E-01 0.  0.
         14    1    1    2    0    0  0.24620723576E-02 -0.69619888236E-02 -0.23680479511E-01  0.24805164755E-01  0.00000000000E+00 0. -1.
     999901    1    3    3    0    0 -0.12068533094E-01  0.55379411439E-02 -0.10676605438E+00  0.88655248500E+00  0.88000000000E+00 0. -1.
        -11    1    4    4    0    0  0.30516716167E-03  0.85943230673E-02  0.24398382795E-01  0.25874654008E-01  0.51100000000E-03 0.  1.
         11    1    4    4    0    0  0.93012935750E-02 -0.71702753876E-02  0.10604815110E+00  0.10669769624E+00  0.51100000000E-03 0. -1.
</event>
<event>
 8    1  0.1066842E+005  0.1043930E+01  0.7957747E-01            NaN
         13   -1    0    0    0    0  0.00000000000E+00  0.00000000000E+00  0.74505805969E-08  0.10566000000E+00  0.10566000000E+00 0. -1.
     999900   -1    0    0    0    0 -0.00000000000E+00 -0.00000000000E+00 -0.74505805969E-08  0.93827000000E+00  0.93827000000E+00 0.  1.
     999902    2    1    2    0    0  0.11643955969E-01  0.11387961019E-01  0.16919332121E-01  0.10204452993E+01  0.10201750231E+01 0.  0.
     999903    2    3    3    0    0 -0.15841418104E-02 -0.12141009839E+00  0.41637946873E-01  0.13004015722E+00  0.20827922919E-01 0.  0.
         14    1    1    2    0    0 -0.11643955969E-01 -0.11387961019E-01 -0.16919332121E-01  0.23484700684E-01  0.00000000000E+00 0.  1.
     999901    1    3    3    0    0  0.13228097780E-01  0.13279805941E+00 -0.24718614752E-01  0.89040514210E+00  0.88000000000E+00 0. -1.
        -11    1    4    4    0    0 -0.79348595876E-02 -0.59399585998E-01  0.28377107506E-01  0.66308326512E-01  0.51100000000E-03 0.  1.
         11    1    4    4    0    0  0.63507177772E-02 -0.62010512395E-01  0.13260839367E-01  0.63731830709E-01  0.51100000000E-03 0. -1.
</event>
<event>
 8    1  0.1066842E+005  0.1043930E+01  0.7957747E-01            NaN
         13   -1    0    0    0    0  0.00000000000E+00  0.00000000000E+00  0.74505805969E-08  0.10566000000E+00  0.10566000000E+00 0.  1.
     999900   -1    0    0    0    0 -0.00000000000E+00 -0.00000000000E+00 -0.74505805969E-08  0.93827000000E+00  0.93827000000E+00 0.  1.
     999902    2    1    2    0    0  0.59447420931E-02 -0.22897991010E-01  0.13081042907E-01  0.10168972119E+01  0.10165378340E+01 0.  0.
     999903    2    3    3    0    0  0.28049026772E-01  0.76510499003E-01  0.95359558815E-01  0.12721164861E+00  0.21183808049E-01 0.  0.
         14    1    1    2    0    0 -0.59447420931E-02  0.22897991010E-01 -0.13081042907E-01  0.27032788136E-01  0.00000000000E+00 0. -1.
     999901    1    3    3    0    0 -0.22104284679E-01 -0.99408490013E-01 -0.82278515908E-01  0.88968556326E+00  0.88000000000E+00 0.  1.
        -11    1    4    4    0    0  0.17202953375E-01  0.26651770814E-01  0.48359246293E-01  0.57837153417E-01  0.51100000000E-03 0. -1.
         11    1    4    4    0    0  0.10846073398E-01  0.49858728189E-01  0.47000312522E-01  0.69374495190E-01  0.51100000000E-03 0.  1.
</event>
<event>
 8    1  0.1066842E+005  0.1043930E+01  0.7957747E-01            NaN
         13   -1    0    0    0    0  0.00000000000E+00  0.00000000000E+00  0.74505805969E-08  0.10566000000E+00  0.10566000000E+00 0. -1.
     999900   -1    0    0    0    0 -0.00000000000E+00 -0.00000000000E+00 -0.74505805969E-08  0.93827000000E+00  0.93827000000E+00 0.  1.
     999902    2    1    2    0    0 -0.69100858074E-02  0.19066562650E-01 -0.14490537625E-01  0.10190049368E+01  0.10187000551E+01 0.  0.
     999903    2    3    3    0    0  0.12418203629E+00 -0.22070658657E-01 -0.13707153744E-01  0.12834336851E+00  0.19386646583E-01 0.  0.
         14    1    1    2    0    0  0.69100858074E-02 -0.19066562650E-01  0.14490537625E-01  0.24925063246E-01  0.00000000000E+00 0. -1.
     999901    1    3    3    0    0 -0.13109212210E+00  0.41137221308E-01 -0.78338388091E-03  0.89066156824E+00  0.88000000000E+00 0. -1.
        -11    1    4    4    0    0  0.10747545593E+00 -0.13034047731E-01 -0.15001460784E-01  0.10929851314E+00  0.51100000000E-03 0.  1.
         11    1    4    4    0    0  0.16706580360E-01 -0.90366109267E-02  0.12943070397E-02  0.19044855370E-01  0.51100000000E-03 0. -1.
</event>
<event>
 8    1  0.1066842E+005  0.1043930E+01  0.7957747E-01            NaN
         13   -1    0    0    0    0  0.00000000000E+00  0.00000000000E+00  0.74505805969E-08  0.10566000000E+00  0.10566000000E+00 0.  1.
     999900   -1    0    0    0    0 -0.00000000000E+00 -0.00000000000E+00 -0.74505805969E-08  0.93827000000E+00  0.93827000000E+00 0. -1.
     999902    2    1    2    0    0  0.20813107783E-01  0.14049852441E-01 -0.37375331496E-02  0.10185419524E+01  0.10182254936E+01 0.  0.
     999903    2    3    3    0    0  0.26644578579E-01 -0.10595486867E+00 -0.64199655537E-01  0.12832242472E+00  0.20215863889E-01 0.  0.
         14    1    1    2    0    0 -0.20813107783E-01 -0.14049852441E-01  0.37375331496E-02  0.25388047645E-01  0.00000000000E+00 0.  1.
     999901    1    3    3    0    0 -0.58314707964E-02  0.12000472111E+00  0.60462122387E-01  0.89021952764E+00  0.88000000000E+00 0.  1.
        -11    1    4    4    0    0 -0.17440738055E-03 -0.38556280513E-01 -0.23014573125E-01  0.44906000512E-01  0.51100000000E-03 0.  1.
         11    1    4    4    0    0  0.26818985959E-01 -0.67398588155E-01 -0.41185082412E-01  0.83416424207E-01  0.51100000000E-03 0. -1.
</event>
<event>
 8    1  0.1066842E+005  0.1043930E+01  0.7957747E-01            NaN
         13   -1    0    0    0    0  0.00000000000E+00  0.00000000000E+00  0.74505805969E-08  0.10566000000E+00  0.10566000000E+00 0.  1.
     999900   -1    0    0    0    0 -0.00000000000E+00 -0.00000000000E+00 -0.74505805969E-08  0.93827000000E+00  0.93827000000E+00 0.  1.
     999902    2    1    2    0    0 -0.36198248742E-02 -0.66402364080E-02  0.21066031005E-01  0.10215475619E+01  0.10213023293E+01 0.  0.
     999903    2    3    3    0    0  0.11298268530E+00  0.22133992184E-01  0.62250703184E-01  0.13243548866E+00  0.20223941822E-01 0.  0.
         14    1    1    2    0    0  0.36198248742E-02  0.66402364080E-02 -0.21066031005E-01  0.22382438071E-01  0.00000000000E+00 0. -1.
     999901    1    3    3    0    0 -0.11660251017E+00 -0.28774228592E-01 -0.41184672179E-01  0.88911207327E+00  0.88000000000E+00 0.  1.
        -11    1    4    4    0    0  0.75603073868E-01  0.61965919017E-02  0.45665902659E-01  0.88542974403E-01  0.51100000000E-03 0.  1.
         11    1    4    4    0    0  0.37379611430E-01  0.15937400283E-01  0.16584800525E-01  0.43892514258E-01  0.51100000000E-03 0. -1.
</event>
<event>
 8    1  0.1066842E+005  0.1043930E+01  0.7957747E-01            NaN
         13   -1    0    0    0    0  0.00000000000E+00  0.00000000000E+00  0.74505805969E-08  0.10566000000E+00  0.10566000000E+00 0.  1.
     999900   -1    0    0    0    0 -0.00000000000E+00 -0.00000000000E+00 -0.74505805969E-08  0.93827000000E+00  0.93827000000E+00 0. -1.
     999902    2    1    2    0    0  0.15780243777E-01  0.11794009778E-02 -0.17834422188E-01  0.10200873136E+01  0.10198086358E+01 0.  0.
     999903    2    3    3    0    0 -0.65804219829E-01 -0.42510037272E-01 -0.10294737185E+00  0.13115030462E+00  0.21562523421E-01 0.  0.
         14    1    1    2    0    0 -0.15780243777E-01 -0.11794009778E-02  0.17834422188E-01  0.23842686407E-01  0.00000000000E+00 0.  1.
     999901    1    3    3    0    0  0.81584463605E-01  0.43689438250E-01  0.85112949659E-01  0.88893700897E+00  0.88000000000E+00 0.  1.
        -11    1    4    4    0    0 -0.52322078056E-01 -0.24041218563E-01 -0.64953143412E-01  0.86802949271E-01  0.51100000000E-03 0. -1.
         11    1    4    4    0    0 -0.13482141773E-01 -0.18468818709E-01 -0.37994228436E-01  0.44347355352E-01  0.51100000000E-03 0.  1.
</event>
<event>
 8    1  0.1066842E+005  0.1043930E+01  0.7957747E-01            NaN
         13   -1    0    0    0    0  0.00000000000E+00  0.00000000000E+00  0.74505805969E-08  0.10566000000E+00  0.10566000000E+00 0. -1.
     999900   -1    0    0    0    0 -0.00000000000E+00 -0.00000000000E+00 -0.74505805969E-08  0.93827000000E+00  0.93827000000E+00 0. -1.
     999902    2    1    2    0    0  0.11152515380E-01 -0.25006969403E-01 -0.19737406492E-01  0.10101765952E+01  0.10096125302E+01 0.  0.
     999903    2    3    3    0    0 -0.30583198873E-01 -0.92183905765E-01 -0.75778146870E-01  0.12485452096E+00  0.20325337031E-01 0.  0.
         14    1    1    2    0    0 -0.11152515380E-01  0.25006969403E-01  0.19737406492E-01  0.33753404763E-01  0.00000000000E+00 0.  1.
     999901    1    3    3    0    0  0.41735714253E-01  0.67176936362E-01  0.56040740377E-01  0.88532207428E+00  0.88000000000E+00 0.  1.
        -11    1    4    4    0    0 -0.15725236778E-01 -0.35440915426E-01 -0.42012486494E-01  0.57172123455E-01  0.51100000000E-03 0. -1.
         11    1    4    4    0    0 -0.14857962095E-01 -0.56742990339E-01 -0.33765660376E-01  0.67682397504E-01  0.51100000000E-03 0.  1.
</event>
<event>
 8    1  0.1066842E+005  0.1043930E+01  0.7957747E-01            NaN
         13   -1    0    0    0    0  0.00000000000E+00  0.00000000000E+00  0.74505805969E-08  0.10566000000E+00  0.10566000000E+00 0. -1.
     999900   -1    0    0    0    0 -0.00000000000E+00 -0.00000000000E+00 -0.74505805969E-08  0.93827000000E+00  0.93827000000E+00 0. -1.
     999902    2    1    2    0    0  0.20910727952E-01  0.13446317117E-01 -0.43087373925E-02  0.10186985275E+01  0.10183860087E+01 0.  0.
     999903    2    3    3    0    0  0.80917479343E-01 -0.35823487616E-01 -0.94145459567E-01  0.13072388791E+00  0.19859672332E-01 0.  0.
         14    1    1    2    0    0 -0.20910727952E-01 -0.13446317117E-01  0.43087373925E-02  0.25231472518E-01  0.00000000000E+00 0.  1.
     999901    1    3    3    0    0 -0.60006751391E-01  0.49269804733E-01  0.89836722175E-01  0.88797463957E+00  0.88000000000E+00 0.  1.
        -11    1    4    4    0    0  0.35179454440E-02 -0.57248072300E-02 -0.12847537349E-01  0.14507573709E-01  0.51100000000E-03 0. -1.
         11    1    4    4    0    0  0.77399533899E-01 -0.30098680386E-01 -0.81297922218E-01  0.11621631420E+00  0.51100000000E-03 0.  1.
</event>
<event>
 8    1  0.1066842E+005  0.1043930E+01  0.7957747E-01            NaN
         13   -1    0    0    0    0  0.00000000000E+00  0.00000000000E+00  0.74505805969E-08  0.10566000000E+00  0.10566000000E+00 0. -1.
     999900   -1    0    0    0    0 -0.00000000000E+00 -0.00000000000E+00 -0.74505805969E-08  0.93827000000E+00  0.93827000000E+00 0. -1.
     999902    2    1    2    0    0 -0.15310082674E-01  0.13094768208E-01 -0.14234201099E-01  0.10192625302E+01  0.10189639942E+01 0.  0.
     999903    2    3    3    0    0 -0.12989897270E+00 -0.31643894027E-02 -0.55139049797E-02  0.13164154267E+00  0.20379797317E-01 0.  0.
         14    1    1    2    0    0  0.15310082674E-01 -0.13094768208E-01  0.14234201099E-01  0.24667469810E-01  0.00000000000E+00 0.  1.
     999901    1    3    3    0    0  0.11458889003E+00  0.16259157611E-01 -0.87202961198E-02  0.88762098752E+00  0.88000000000E+00 0.  1.
        -11    1    4    4    0    0 -0.10957981739E+00  0.47315105404E-02 -0.34286456798E-02  0.10973668623E+00  0.51100000000E-03 0. -1.
         11    1    4    4    0    0 -0.20319155310E-01 -0.78958999431E-02 -0.20852592998E-02  0.21904856443E-01  0.51100000000E-03 0.  1.
</event>
<event>
 8    1  0.1066842E+005  0.1043930E+01  0.7957747E-01            NaN
         13   -1    0    0    0    0  0.00000000000E+00  0.00000000000E+00  0.74505805969E-08  0.10566000000E+00  0.10566000000E+00 0.  1.
     999900   -1    0    0    0    0 -0.00000000000E+00 -0.00000000000E+00 -0.74505805969E-08  0.93827000000E+00  0.93827000000E+00 0.  1.
     999902    2    1    2    0    0 -0.28615495607E-02  0.24096988541E-01 -0.93966030293E-03  0.10196455135E+01  0.10193562856E+01 0.  0.
     999903    2    3    3    0    0  0.10880861006E+00  0.33935440738E-01 -0.60461225116E-01  0.13053931267E+00  0.19850054123E-01 0.  0.
         14    1    1    2    0    0  0.28615495607E-02 -0.24096988541E-01  0.93966030293E-03  0.24284486491E-01  0.00000000000E+00 0.  1.
     999901    1    3    3    0    0 -0.11167015962E+00 -0.98384521967E-02  0.59521564813E-01  0.88910620084E+00  0.88000000000E+00 0. -1.
        -11    1    4    4    0    0  0.92716534264E-01  0.34431572933E-01 -0.46799894685E-01  0.10941837233E+00  0.51100000000E-03 0.  1.
         11    1    4    4    0    0  0.16092075797E-01 -0.49613219510E-03 -0.13661330431E-01  0.21120940338E-01  0.51100000000E-03 0. -1.
</event>
<event>
 8    1  0.1066842E+005  0.1043930E+01  0.7957747E-01            NaN
         13   -1    0    0    0    0  0.00000000000E+00  0.00000000000E+00  0.74505805969E-08  0.10566000000E+00  0.10566000000E+00 0. -1.
     999900   -1    0    0    0    0 -0.00000000000E+00 -0.00000000000E+00 -0.74505805969E-08  0.93827000000E+00  0.93827000000E+00 0. -1.
     999902    2    1    2    0    0 -0.13499405129E-02 -0.19547233682E-01 -0.13237476773E-01  0.10202837006E+01  0.10200096481E+01 0.  0.
     999903    2    3    3    0    0  0.44006639341E-01  0.11471939305E+00 -0.33122165354E-01  0.12872318822E+00  0.19376736094E-01 0.  0.
         14    1    1    2    0    0  0.13499405129E-02  0.19547233682E-01  0.13237476773E-01  0.23646299400E-01  0.00000000000E+00 0. -1.
     999901    1    3    3    0    0 -0.45356579854E-01 -0.13426662673E+00  0.19884688581E-01  0.89156051238E+00  0.88000000000E+00 0.  1.
        -11    1    4    4    0    0  0.24064601256E-01  0.75167889085E-01 -0.12692745920E-01  0.79941750689E-01  0.51100000000E-03 0. -1.
         11    1    4    4    0    0  0.19942038085E-01  0.39551503961E-01 -0.20429419434E-01  0.48781437535E-01  0.51100000000E-03 0.  1.
</event>
<event>
 8    1  0.1066842E+005  0.1043930E+01  0.7957747E-01            NaN
         13   -1    0    0    0    0  0.00000000000E+00  0.00000000000E+00  0.74505805969E-08  0.10566000000E+00  0.10566000000E+00 0.  1.
     999900   -1    0    0    0    0 -0.00000000000E+00 -0.00000000000E+00 -0.74505805969E-08  0.93827000000E+00  0.93827000000E+00 0.  1.
     999902    2    1    2    0    0 -0.13769244686E-01 -0.10011872753E-01 -0.17092064131E-01  0.10198059798E+01  0.10195206070E+01 0.  0.
     999903    2    3    3    0    0 -0.11415675356E+00 -0.32460393924E-01  0.52030560023E-01  0.13112182598E+00  0.20007811385E-01 0.  0.
         14    1    1    2    0    0  0.13769244686E-01  0.10011872753E-01  0.17092064131E-01  0.24124020218E-01  0.00000000000E+00 0.  1.
     999901    1    3    3    0    0  0.10038750887E+00  0.22448521171E-01 -0.69122624154E-01  0.88868415380E+00  0.88000000000E+00 0.  1.
        -11    1    4    4    0    0 -0.58895176784E-01 -0.64608200075E-02  0.27125467600E-01  0.65164684892E-01  0.51100000000E-03 0.  1.
         11    1    4    4    0    0 -0.55261576775E-01 -0.25999573916E-01  0.24905092423E-01  0.65957141092E-01  0.51100000000E-03 0. -1.
</event>
<event>
 8    1  0.1066842E+005  0.1043930E+01  0.7957747E-01            NaN
         13   -1    0    0    0    0  0.00000000000E+00  0.00000000000E+00  0.74505805969E-08  0.10566000000E+00  0.10566000000E+00 0. -1.
     999900   -1    0    0    0    0 -0.00000000000E+00 -0.00000000000E+00 -0.74505805969E-08  0.93827000000E+00  0.93827000000E+00 0. -1.
     999902    2    1    2    0    0  0.22886976340E-01 -0.63078143549E-02 -0.26550652524E-01  0.10083134398E+01  0.10076842033E+01 0.  0.
     999903    2    3    3    0    0 -0.61918829812E-01  0.57299119452E-01  0.77905003350E-01  0.11581758505E+00  0.15079551845E-01 0.  0.
         14    1    1    2    0    0 -0.22886976340E-01  0.63078143549E-02  0.26550652524E-01  0.35616560157E-01  0.00000000000E+00 0. -1.
     999901    1    3    3    0    0  0.84805806153E-01 -0.63606933807E-01 -0.10445565587E+00  0.89249585480E+00  0.88000000000E+00 0. -1.
        -11    1    4    4    0    0 -0.44021953496E-01  0.34992322263E-01  0.43643684983E-01  0.71185864937E-01  0.51100000000E-03 0.  1.
         11    1    4    4    0    0 -0.17896876316E-01  0.22306797189E-01  0.34261318367E-01  0.44631720110E-01  0.51100000000E-03 0. -1.
</event>
<event>
 8    1  0.1066842E+005  0.1043930E+01  0.7957747E-01            NaN
         13   -1    0    0    0    0  0.00000000000E+00  0.00000000000E+00  0.74505805969E-08  0.10566000000E+00  0.10566000000E+00 0.  1.
     999900   -1    0    0    0    0 -0.00000000000E+00 -0.00000000000E+00 -0.74505805969E-08  0.93827000000E+00  0.93827000000E+00 0. -1.
     999902    2    1    2    0    0 -0.16811072836E-01  0.16714007678E-01  0.62438165769E-02  0.10194156069E+01  0.10191208094E+01 0.  0.
     999903    2    3    3    0    0  0.66584844244E-01 -0.62760025118E-01  0.87560608171E-01  0.12818980979E+00  0.19834439633E-01 0.  0.
         14    1    1    2    0    0  0.16811072836E-01 -0.16714007678E-01 -0.62438165769E-02  0.24514393078E-01  0.00000000000E+00 0. -1.
     999901    1    3    3    0    0 -0.83395917079E-01  0.79474032796E-01 -0.81316791594E-01  0.89122579713E+00  0.88000000000E+00 0. -1.
        -11    1    4    4    0    0  0.41848443847E-01 -0.49790444853E-01  0.54104632541E-01  0.84604686835E-01  0.51100000000E-03 0. -1.
         11    1    4    4    0    0  0.24736400397E-01 -0.12969580265E-01  0.33455975630E-01  0.43585122957E-01  0.51100000000E-03 0.  1.
</event>
<event>
 7    1  0.1066842E+005  0.1043930E+01  0.7957747E-01            NaN
         13   -1    0    0    0    0  0.00000000000E+00  0.00000000000E+00  0.74505805969E-08  0.10566000000E+00  0.10566000000E+00 0.  1.
     999900   -1    0    0    0    0 -0.00000000000E+00 -0.00000000000E+00 -0.74505805969E-08  0.93827000000E+00  0.93827000000E+00 0. -1.
     999903    2    1    2    0    0 -0.33125402127E-01  0.97668286235E-01 -0.25832464427E-01  0.10890520624E+00  0.23593247468E-01 0.  0.
         14    1    1    2    0    0 -0.92942041881E-02  0.71944325560E-02 -0.43518824954E-01  0.45078045839E-01  0.00000000000E+00 0. -1.
     999901    1    1    2    0    0  0.42419606316E-01 -0.10486271879E+00  0.69351289382E-01  0.88994674792E+00  0.88000000000E+00 0.  1.
        -11    1    3    3    0    0 -0.16312844458E-01  0.68593221456E-01 -0.26459606889E-01  0.75309433949E-01  0.51100000000E-03 0.  1.
         11    1    3    3    0    0 -0.16812557670E-01  0.29075064779E-01  0.62714246176E-03  0.33595772293E-01  0.51100000000E-03 0. -1.
</event>
<event>
 8    1  0.1066842E+005  0.1043930E+01  0.7957747E-01            NaN
         13   -1    0    0    0    0  0.00000000000E+00  0.00000000000E+00  0.74505805969E-08  0.10566000000E+00  0.10566000000E+00 0. -1.
     999900   -1    0    0    0    0 -0.00000000000E+00 -0.00000000000E+00 -0.74505805969E-08  0.93827000000E+00  0.93827000000E+00 0.  1.
     999902    2    1    2    0    0  0.15177139106E-01 -0.12173933353E-01 -0.14135126871E-01  0.10198810496E+01  0.10195974712E+01 0.  0.
     999903    2    3    3    0    0 -0.11971129717E+00  0.19704553300E-01 -0.37888170551E-01  0.12871589360E+00  0.20327412689E-01 0.  0.
         14    1    1    2    0    0 -0.15177139106E-01  0.12173933353E-01  0.14135126871E-01  0.24048950421E-01  0.00000000000E+00 0. -1.
     999901    1    3    3    0    0  0.13488843627E+00 -0.31878486654E-01  0.23753043680E-01  0.89116515598E+00  0.88000000000E+00 0. -1.
        -11    1    4    4    0    0 -0.68599540211E-01  0.12837853523E-01 -0.32094079021E-01  0.76817956425E-01  0.51100000000E-03 0. -1.
         11    1    4    4    0    0 -0.51111756956E-01  0.68666997777E-02 -0.57940915295E-02  0.51897937172E-01  0.51100000000E-03 0.  1.
</event>
<event>
 8    1  0.1066842E+005  0.1043930E+01  0.7957747E-01            NaN
         13   -1    0    0    0    0  0.00000000000E+00  0.00000000000E+00  0.74505805969E-08  0.10566000000E+00  0.10566000000E+00 0.  1.
     999900   -1    0    0    0    0 -0.00000000000E+00 -0.00000000000E+00 -0.74505805969E-08  0.93827000000E+00  0.93827000000E+00 0. -1.
     999902    2    1    2    0    0 -0.45002170639E-02 -0.14889078737E-01  0.20031948821E-01  0.10185683046E+01  0.10182525107E+01 0.  0.
     999903    2    3    3    0    0 -0.12572641984E+00 -0.24942858390E-01 -0.36167356929E-02  0.12988606050E+00  0.20688864263E-01 0.  0.
         14    1    1    2    0    0  0.45002170639E-02  0.14889078737E-01 -0.20031948821E-01  0.25361695385E-01  0.00000000000E+00 0. -1.
     999901    1    3    3    0    0  0.12122620278E+00  0.10053779653E-01  0.23648684513E-01  0.88868224411E+00  0.88000000000E+00 0. -1.
        -11    1    4    4    0    0 -0.49462458171E-01 -0.16102281885E-01  0.65841048570E-02  0.52435005559E-01  0.51100000000E-03 0.  1.
         11    1    4    4    0    0 -0.76263961670E-01 -0.88405765051E-02 -0.10200840550E-01  0.77451054941E-01  0.51100000000E-03 0. -1.
</event>
<event>
 8    1  0.1066842E+005  0.1043930E+01  0.7957747E-01            NaN
         13   -1    0    0    0    0  0.00000000000E+00  0.00000000000E+00  0.74505805969E-08  0.10566000000E+00  0.10566000000E+00 0. -1.
     999900   -1    0    0    0    0 -0.00000000000E+00 -0.00000000000E+00 -0.74505805969E-08  0.93827000000E+00  0.93827000000E+00 0.  1.
     999902    2    1    2    0    0 -0.19589987087E-01  0.12007145541E-01 -0.16019098948E-01  0.10159201683E+01  0.10155339668E+01 0.  0.
     999903    2    3    3    0    0 -0.37912553013E-01  0.11668822065E+00 -0.35566823191E-01  0.12931092103E+00  0.20070198555E-01 0.  0.
         14    1    1    2    0    0  0.19589987087E-01 -0.12007145541E-01  0.16019098948E-01  0.28009831653E-01  0.00000000000E+00 0. -1.
     999901    1    3    3    0    0  0.18322565926E-01 -0.10468107511E+00  0.19547724243E-01  0.88660924732E+00  0.88000000000E+00 0. -1.
        -11    1    4    4    0    0 -0.34932888766E-01  0.77558665714E-01 -0.25208624748E-01  0.88720850016E-01  0.51100000000E-03 0.  1.
         11    1    4    4    0    0 -0.29796642468E-02  0.39129554939E-01 -0.10358198443E-01  0.40590071012E-01  0.51100000000E-03 0. -1.
</event>
<event>
 8    1  0.1066842E+005  0.1043930E+01  0.7957747E-01            NaN
         13   -1    0    0    0    0  0.00000000000E+00  0.00000000000E+00  0.74505805969E-08  0.10566000000E+00  0.10566000000E+00 0.  1.
     999900   -1    0    0    0    0 -0.00000000000E+00 -0.00000000000E+00 -0.74505805969E-08  0.93827000000E+00  0.93827000000E+00 0.  1.
     999902    2    1    2    0    0 -0.24842963639E-02  0.11689696706E-01  0.20576282596E-01  0.10201349555E+01  0.10198574034E+01 0.  0.
     999903    2    3    3    0    0 -0.34064186564E-01  0.12535125159E+00 -0.86081476618E-02  0.13178369080E+00  0.20482574859E-01 0.  0.
         14    1    1    2    0    0  0.24842963639E-02 -0.11689696706E-01 -0.20576282596E-01  0.23795044504E-01  0.00000000000E+00 0. -1.
     999901    1    3    3    0    0  0.31579890201E-01 -0.11366155488E+00  0.29184430257E-01  0.88835126470E+00  0.88000000000E+00 0. -1.
        -11    1    4    4    0    0 -0.22516838779E-03  0.26916967285E-01 -0.63888152070E-02  0.27670415778E-01  0.51100000000E-03 0. -1.
         11    1    4    4    0    0 -0.33839018177E-01  0.98434284303E-01 -0.22193324549E-02  0.10411327502E+00  0.51100000000E-03 0.  1.
</event>
<event>
 8    1  0.1066842E+005  0.1043930E+01  0.7957747E-01            NaN
         13   -1    0    0    0    0  0.00000000000E+00  0.00000000000E+00  0.74505805969E-08  0.10566000000E+00  0.10566000000E+00 0.  1.
     999900   -1    0    0    0    0 -0.00000000000E+00 -0.00000000000E+00 -0.74505805969E-08  0.93827000000E+00  0.93827000000E+00 0. -1.
     999902    2    1    2    0    0 -0.13360566242E-01 -0.93978316578E-02  0.16843156850E-01  0.10204669247E+01  0.10201971518E+01 0.  0.
     999903    2    3    3    0    0  0.10596423698E+00  0.24125847003E-01  0.68843662987E-01  0.13026116290E+00  0.20446139307E-01 0.  0.
         14    1    1    2    0    0  0.13360566242E-01  0.93978316578E-02 -0.16843156850E-01  0.23463075307E-01  0.00000000000E+00 0. -1.
     999901    1    3    3    0    0 -0.11932480323E+00 -0.33523678661E-01 -0.52000506137E-01  0.89020576180E+00  0.88000000000E+00 0. -1.
        -11    1    4    4    0    0  0.10537522007E-01  0.46603153526E-03  0.14458508131E-01  0.17904360749E-01  0.51100000000E-03 0. -1.
         11    1    4    4    0    0  0.95426714977E-01  0.23659815468E-01  0.54385154856E-01  0.11235680215E+00  0.51100000000E-03 0.  1.
</event>
<event>
 8    1  0.1066842E+005  0.1043930E+01  0.7957747E-01            NaN
         13   -1    0    0    0    0  0.00000000000E+00  0.00000000000E+00  0.74505805969E-08  0.10566000000E+00  0.10566000000E+00 0.  1.
     999900   -1    0    0    0    0 -0.00000000000E+00 -0.00000000000E+00 -0.74505805969E-08  0.93827000000E+00  0.93827000000E+00 0.  1.
     999902    2    1    2    0    0 -0.37965004498E-02  0.29042747875E-02  0.24637960678E-01  0.10188326429E+01  0.10185234788E+01 0.  0.
     999903    2    3    3    0    0  0.10511779053E-01  0.53077225815E-01 -0.11286630547E+00  0.12662780369E+00  0.19186150181E-01 0.  0.
         14    1    1    2    0    0  0.37965004498E-02 -0.29042747875E-02 -0.24637960678E-01  0.25097357113E-01  0.00000000000E+00 0. -1.
     999901    1    3    3    0    0 -0.14308279503E-01 -0.50172951028E-01  0.13750426614E+00  0.89220483920E+00  0.88000000000E+00 0. -1.
        -11    1    4    4    0    0  0.14275248367E-01  0.24048974770E-01 -0.59906783524E-01  0.66115200496E-01  0.51100000000E-03 0. -1.
         11    1    4    4    0    0 -0.37634693140E-02  0.29028251045E-01 -0.52959521943E-01  0.60512603195E-01  0.51100000000E-03 0.  1.
</event>
<event>
 8    1  0.1066842E+005  0.1043930E+01  0.7957747E-01            NaN
         13   -1    0    0    0    0  0.00000000000E+00  0.00000000000E+00  0.74505805969E-08  0.10566000000E+00  0.10566000000E+00 0.  1.
     999900   -1    0    0    0    0 -0.00000000000E+00 -0.00000000000E+00 -0.74505805969E-08  0.93827000000E+00  0.93827000000E+00 0. -1.
     999902    2    1    2    0    0  0.11330494607E-02 -0.19054919934E-01 -0.14074918976E-01  0.10202133999E+01  0.10199376963E+01 0.  0.
     999903    2    3    3    0    0  0.28746950672E-01 -0.11461478064E+00  0.55119743320E-01  0.13191045847E+00  0.19981187009E-01 0.  0.
         14    1    1    2    0    0 -0.11330494607E-02  0.19054919934E-01  0.14074918976E-01  0.23716600071E-01  0.00000000000E+00 0.  1.
     999901    1    3    3    0    0 -0.27613901211E-01  0.95559860710E-01 -0.69194662296E-01  0.88830294146E+00  0.88000000000E+00 0. -1.
        -11    1    4    4    0    0  0.21584007673E-02 -0.36557230791E-01  0.10256998774E-01  0.38033629354E-01  0.51100000000E-03 0.  1.
         11    1    4    4    0    0  0.26588549905E-01 -0.78057549853E-01  0.44862744547E-01  0.93876829113E-01  0.51100000000E-03 0. -1.
</event>
<event>
 8    1  0.1066842E+005  0.1043930E+01  0.7957747E-01            NaN
         13   -1    0    0    0    0  0.00000000000E+00  0.00000000000E+00  0.74505805969E-08  0.10566000000E+00  0.10566000000E+00 0.  1.
     999900   -1    0    0    0    0 -0.00000000000E+00 -0.00000000000E+00 -0.74505805969E-08  0.93827000000E+00  0.93827000000E+00 0. -1.
     999902    2    1    2    0    0  0.20312347060E-01  0.12092426233E-01  0.70747241560E-02  0.10192547100E+01  0.10189559823E+01 0.  0.
     999903    2    3    3    0    0  0.10108489785E+00 -0.18632775760E-01 -0.78571565916E-01  0.13088343062E+00  0.19790010971E-01 0.  0.
         14    1    1    2    0    0 -0.20312347060E-01 -0.12092426233E-01 -0.70747241560E-02  0.24675290012E-01  0.00000000000E+00 0. -1.
     999901    1    3    3    0    0 -0.80772550793E-01  0.30725201993E-01  0.85646290072E-01  0.88837127937E+00  0.88000000000E+00 0.  1.
        -11    1    4    4    0    0  0.87912769835E-01 -0.11875267080E-01 -0.73566912195E-01  0.11524768440E+00  0.51100000000E-03 0.  1.
         11    1    4    4    0    0  0.13172128018E-01 -0.67575086793E-02 -0.50046537209E-02  0.15635746223E-01  0.51100000000E-03 0. -1.
</event>
<event>
 8    1  0.1066842E+005  0.1043930E+01  0.7957747E-01            NaN
         13   -1    0    0    0    0  0.00000000000E+00  0.00000000000E+00  0.74505805969E-08  0.10566000000E+00  0.10566000000E+00 0. -1.
     999900   -1    0    0    0    0 -0.00000000000E+00 -0.00000000000E+00 -0.74505805969E-08  0.93827000000E+00  0.93827000000E+00 0. -1.
     999902    2    1    2    0    0 -0.11402660039E-01 -0.15710824932E-01 -0.12623243728E-01  0.10207740729E+01  0.10205113968E+01 0.  0.
     999903    2    3    3    0    0  0.61938814610E-03  0.12224182034E+00  0.35009220464E-01  0.12867300600E+00  0.19688846414E-01 0.  0.
         14    1    1    2    0    0  0.11402660039E-01  0.15710824932E-01  0.12623243728E-01  0.23155927065E-01  0.00000000000E+00 0. -1.
     999901    1    3    3    0    0 -0.12022048185E-01 -0.13795264528E+00 -0.47632464192E-01  0.89210106693E+00  0.88000000000E+00 0. -1.
        -11    1    4    4    0    0  0.63763230866E-02  0.53750059048E-01  0.75391530839E-02  0.54651864506E-01  0.51100000000E-03 0.  1.
         11    1    4    4    0    0 -0.57569349405E-02  0.68491761295E-01  0.27470067380E-01  0.74021141494E-01  0.51100000000E-03 0. -1.
</event>
<event>
 8    1  0.1066842E+005  0.1043930E+01  0.7957747E-01            NaN
         13   -1    0    0    0    0  0.00000000000E+00  0.00000000000E+00  0.74505805969E-08  0.10566000000E+00  0.10566000000E+00 0. -1.
     999900   -1    0    0    0    0 -0.00000000000E+00 -0.00000000000E+00 -0.74505805969E-08  0.93827000000E+00  0.93827000000E+00 0.  1.
     999902    2    1    2    0    0 -0.20981838487E-01 -0.39544732485E-02  0.21904314042E-01  0.10133412050E+01  0.10128794219E+01 0.  0.
     999903    2    3    3    0    0 -0.11107178158E+00 -0.57953007676E-01 -0.59353423795E-03  0.12680965299E+00  0.19617442353E-01 0.  0.
         14    1    1    2    0    0  0.20981838487E-01  0.39544732485E-02 -0.21904314042E-01  0.30588794985E-01  0.00000000000E+00 0.  1.
     999901    1    3    3    0    0  0.90089943097E-01  0.53998534427E-01  0.22497848280E-01  0.88653155203E+00  0.88000000000E+00 0.  1.
        -11    1    4    4    0    0 -0.40819898786E-01 -0.31641271644E-01  0.26773099735E-02  0.51719080791E-01  0.51100000000E-03 0.  1.
         11    1    4    4    0    0 -0.70251882798E-01 -0.26311736032E-01 -0.32708442114E-02  0.75090572194E-01  0.51100000000E-03 0. -1.
</event>
<event>
 8    1  0.1066842E+005  0.1043930E+01  0.7957747E-01            NaN
         13   -1    0    0    0    0  0.00000000000E+00  0.00000000000E+00  0.74505805969E-08  0.10566000000E+00  0.10566000000E+00 0.  1.
     999900   -1    0    0    0    0 -0.00000000000E+00 -0.00000000000E+00 -0.74505805969E-08  0.93827000000E+00  0.93827000000E+00 0.  1.
     999902    2    1    2    0    0 -0.13416651778E-01 -0.26671516282E-02  0.30675991764E-01  0.10103422535E+01  0.10097838049E+01 0.  0.
     999903    2    3    3    0    0 -0.79647215752E-02  0.47062620030E-01 -0.10637238904E+00  0.11833046413E+00  0.20215998544E-01 0.  0.
         14    1    1    2    0    0  0.13416651778E-01  0.26671516282E-02 -0.30675991764E-01  0.33587746477E-01  0.00000000000E+00 0. -1.
     999901    1    3    3    0    0 -0.54519302028E-02 -0.49729771658E-01  0.13704838081E+00  0.89201178939E+00  0.88000000000E+00 0. -1.
        -11    1    4    4    0    0  0.13233110129E-02  0.28039595450E-01 -0.41624826838E-01  0.50208140728E-01  0.51100000000E-03 0. -1.
         11    1    4    4    0    0 -0.92880325881E-02  0.19023024580E-01 -0.64747562204E-01  0.68122323403E-01  0.51100000000E-03 0.  1.
</event>
<event>
 8    1  0.1066842E+005  0.1043930E+01  0.7957747E-01            NaN
         13   -1    0    0    0    0  0.00000000000E+00  0.00000000000E+00  0.74505805969E-08  0.10566000000E+00  0.10566000000E+00 0.  1.
     999900   -1    0    0    0    0 -0.00000000000E+00 -0.00000000000E+00 -0.74505805969E-08  0.93827000000E+00  0.93827000000E+00 0.  1.
     999902    2    1    2    0    0 -0.19919018819E-01  0.12526570514E-01  0.58532898689E-02  0.10196824582E+01  0.10193941202E+01 0.  0.
     999903    2    3    3    0    0  0.12533122658E+00 -0.74097611736E-02 -0.18643049397E-01  0.12721668200E+00  0.85848687297E-02 0.  0.
         14    1    1    2    0    0  0.19919018819E-01 -0.12526570514E-01 -0.58532898689E-02  0.24247541769E-01  0.00000000000E+00 0. -1.
     999901    1    3    3    0    0 -0.14525024540E+00  0.19936331688E-01  0.24496339266E-01  0.89246577623E+00  0.88000000000E+00 0.  1.
        -11    1    4    4    0    0  0.83679539778E-01 -0.69868473977E-02 -0.15942646330E-01  0.85472279173E-01  0.51100000000E-03 0.  1.
         11    1    4    4    0    0  0.41651686801E-01 -0.42291377589E-03 -0.27004030674E-02  0.41744402825E-01  0.51100000000E-03 0. -1.
</event>
<event>
 8    1  0.1066842E+005  0.1043930E+01  0.7957747E-01            NaN
         13   -1    0    0    0    0  0.00000000000E+00  0.00000000000E+00  0.74505805969E-08  0.10566000000E+00  0.10566000000E+00 0.  1.
     999900   -1    0    0    0    0 -0.00000000000E+00 -0.00000000000E+00 -0.74505805969E-08  0.93827000000E+00  0.93827000000E+00 0. -1.
     999902    2    1    2    0    0 -0.97086612924E-03 -0.23568514329E-01 -0.24194660268E-02  0.10202177402E+01  0.10199421386E+01 0.  0.
     999903    2    3    3    0    0 -0.44115205972E-02  0.27967964239E-01 -0.12539035098E+00  0.13016735665E+00  0.20472715487E-01 0.  0.
         14    1    1    2    0    0  0.97086612924E-03  0.23568514329E-01  0.24194660268E-02  0.23712259795E-01  0.00000000000E+00 0. -1.
     999901    1    3    3    0    0  0.34406544679E-02 -0.51536478568E-01  0.12297088495E+00  0.89005038356E+00  0.88000000000E+00 0.  1.
        -11    1    4    4    0    0  0.38270820145E-02  0.17491019945E-01 -0.41175980595E-01  0.44903283115E-01  0.51100000000E-03 0.  1.
         11    1    4    4    0    0 -0.82386026117E-02  0.10476944293E-01 -0.84214370386E-01  0.85264073532E-01  0.51100000000E-03 0. -1.
</event>
<event>
 8    1  0.1066842E+005  0.1043930E+01  0.7957747E-01            NaN
         13   -1    0    0    0    0  0.00000000000E+00  0.00000000000E+00  0.74505805969E-08  0.10566000000E+00  0.10566000000E+00 0. -1.
     999900   -1    0    0    0    0 -0.00000000000E+00 -0.00000000000E+00 -0.74505805969E-08  0.93827000000E+00  0.93827000000E+00 0. -1.
     999902    2    1    2    0    0  0.97930944725E-03 -0.18106691224E-01 -0.15439377648E-01  0.10201143393E+01  0.10198363003E+01 0.  0.
     999903    2    3    3    0    0 -0.12583504809E+00  0.53785406268E-02 -0.28089305425E-01  0.13062377829E+00  0.20252761513E-01 0.  0.
         14    1    1    2    0    0 -0.97930944725E-03  0.18106691224E-01  0.15439377648E-01  0.23815660735E-01  0.00000000000E+00 0.  1.
     999901    1    3    3    0    0  0.12681435753E+00 -0.23485231851E-01  0.12649927778E-01  0.88949056098E+00  0.88000000000E+00 0.  1.
        -11    1    4    4    0    0 -0.91475945259E-01  0.90696272021E-02 -0.12727047472E-01  0.92802723866E-01  0.51100000000E-03 0. -1.
         11    1    4    4    0    0 -0.34359102829E-01 -0.36910865753E-02 -0.15362257953E-01  0.37821054424E-01  0.51100000000E-03 0.  1.
</event>
<event>
 8    1  0.1066842E+005  0.1043930E+01  0.7957747E-01            NaN
         13   -1    0    0    0    0  0.00000000000E+00  0.00000000000E+00  0.74505805969E-08  0.10566000000E+00  0.10566000000E+00 0.  1.
     999900   -1    0    0    0    0 -0.00000000000E+00 -0.00000000000E+00 -0.74505805969E-08  0.93827000000E+00  0.93827000000E+00 0.  1.
     999902    2    1    2    0    0  0.13390983323E-01 -0.12292074685E-01  0.14549417201E-01  0.10206469788E+01  0.10203813779E+01 0.  0.
     999903    2    3    3    0    0 -0.38710671385E-01 -0.17510361703E-01 -0.11994643089E+00  0.12888975508E+00  0.20501069113E-01 0.  0.
         14    1    1    2    0    0 -0.13390983323E-01  0.12292074685E-01 -0.14549417201E-01  0.23283021181E-01  0.00000000000E+00 0.  1.
     999901    1    3    3    0    0  0.52101654708E-01  0.52182870182E-02  0.13449584809E+00  0.89175722374E+00  0.88000000000E+00 0. -1.
        -11    1    4    4    0    0 -0.18288737311E-01 -0.13035799436E-01 -0.87104554026E-01  0.89954846631E-01  0.51100000000E-03 0.  1.
         11    1    4    4    0    0 -0.20421934074E-01 -0.44745622671E-02 -0.32841876863E-01  0.38934908446E-01  0.51100000000E-03 0. -1.
</event>
<event>
 8    1  0.1066842E+005  0.1043930E+01  0.7957747E-01            NaN
         13   -1    0    0    0    0  0.00000000000E+00  0.00000000000E+00  0.74505805969E-08  0.10566000000E+00  0.10566000000E+00 0.  1.
     999900   -1    0    0    0    0 -0.00000000000E+00 -0.00000000000E+00 -0.74505805969E-08  0.93827000000E+00  0.93827000000E+00 0.  1.
     999902    2    1    2    0    0 -0.90115214471E-02 -0.23329485429E-01  0.60096770404E-02  0.10182086348E+01  0.10178837042E+01 0.  0.
     999903    2    3    3    0    0 -0.11221569425E+00 -0.63970004294E-01 -0.91849200875E-02  0.13111583874E+00  0.20554243508E-01 0.  0.
         14    1    1    2    0    0  0.90115214471E-02  0.23329485429E-01 -0.60096770404E-02  0.25721365191E-01  0.00000000000E+00 0.  1.
     999901    1    3    3    0    0  0.10320417280E+00  0.40640518866E-01  0.15194597128E-01  0.88709279607E+00  0.88000000000E+00 0. -1.
        -11    1    4    4    0    0 -0.30318129154E-01 -0.97253663381E-02 -0.81749379272E-02  0.32876472392E-01  0.51100000000E-03 0. -1.
         11    1    4    4    0    0 -0.81897565094E-01 -0.54244637956E-01 -0.10099821603E-02  0.98239366348E-01  0.51100000000E-03 0.  1.
</event>
<event>
 8    1  0.1066842E+005  0.1043930E+01  0.7957747E-01            NaN
         13   -1    0    0    0    0  0.00000000000E+00  0.00000000000E+00  0.74505805969E-08  0.10566000000E+00  0.10566000000E+00 0. -1.
     999900   -1    0    0    0    0 -0.00000000000E+00 -0.00000000000E+00 -0.74505805969E-08  0.93827000000E+00  0.93827000000E+00 0. -1.
     999902    2    1    2    0    0 -0.21130964991E-01 -0.87748071224E-02  0.51261357328E-02  0.10204823522E+01  0.10202129380E+01 0.  0.
     999903    2    3    3    0    0  0.83226629257E-01  0.10692994619E-01 -0.95058907563E-01  0.12845850401E+00  0.20600470701E-01 0.  0.
         14    1    1    2    0    0  0.21130964991E-01  0.87748071224E-02 -0.51261357328E-02  0.23447647836E-01  0.00000000000E+00 0.  1.
     999901    1    3    3    0    0 -0.10435759425E+00 -0.19467801742E-01  0.10018504330E+00  0.89202384816E+00  0.88000000000E+00 0. -1.
        -11    1    4    4    0    0  0.46094890776E-01  0.10543277496E-01 -0.39413422224E-01  0.61559553511E-01  0.51100000000E-03 0. -1.
         11    1    4    4    0    0  0.37131738481E-01  0.14971712346E-03 -0.55645485339E-01  0.66898950496E-01  0.51100000000E-03 0.  1.
</event>
<event>
 8    1  0.1066842E+005  0.1043930E+01  0.7957747E-01            NaN
         13   -1    0    0    0    0  0.00000000000E+00  0.00000000000E+00  0.74505805969E-08  0.10566000000E+00  0.10566000000E+00 0.  1.
     999900   -1    0    0    0    0 -0.00000000000E+00 -0.00000000000E+00 -0.74505805969E-08  0.93827000000E+00  0.93827000000E+00 0.  1.
     999902    2    1    2    0    0 -0.14521656034E-01  0.67340520446E-02  0.10845900231E-01  0.10245945532E+01  0.10244120943E+01 0.  0.
     999903    2    3    3    0    0 -0.37926220307E-01  0.46835752074E-01 -0.11806282096E+00  0.13399173580E+00  0.19569611885E-01 0.  0.
         14    1    1    2    0    0  0.14521656034E-01 -0.67340520446E-02 -0.10845900231E-01  0.19335446794E-01  0.00000000000E+00 0.  1.
     999901    1    3    3    0    0  0.23404564273E-01 -0.40101700029E-01  0.12890872119E+00  0.89060281741E+00  0.88000000000E+00 0. -1.
        -11    1    4    4    0    0 -0.17861264818E-01  0.36407395213E-01 -0.70735088230E-01  0.81536722003E-01  0.51100000000E-03 0.  1.
         11    1    4    4    0    0 -0.20064955488E-01  0.10428356861E-01 -0.47327732733E-01  0.52455013795E-01  0.51100000000E-03 0. -1.
</event>
<event>
 8    1  0.1066842E+005  0.1043930E+01  0.7957747E-01            NaN
         13   -1    0    0    0    0  0.00000000000E+00  0.00000000000E+00  0.74505805969E-08  0.10566000000E+00  0.10566000000E+00 0. -1.
     999900   -1    0    0    0    0 -0.00000000000E+00 -0.00000000000E+00 -0.74505805969E-08  0.93827000000E+00  0.93827000000E+00 0.  1.
     999902    2    1    2    0    0  0.82035065107E-02  0.22866002032E-01  0.73002746095E-03  0.10196259981E+01  0.10193362995E+01 0.  0.
     999903    2    3    3    0    0 -0.26892048247E-01  0.34403318142E-02 -0.12543144507E+00  0.12972388451E+00  0.18979479966E-01 0.  0.
         14    1    1    2    0    0 -0.82035065107E-02 -0.22866002032E-01 -0.73002746095E-03  0.24304001895E-01  0.00000000000E+00 0. -1.
     999901    1    3    3    0    0  0.35095554758E-01  0.19425670218E-01  0.12616147253E+00  0.88990211359E+00  0.88000000000E+00 0. -1.
        -11    1    4    4    0    0 -0.72923705898E-02 -0.75845409438E-02 -0.43941942572E-01  0.45186938026E-01  0.51100000000E-03 0. -1.
         11    1    4    4    0    0 -0.19599677658E-01  0.11024872758E-01 -0.81489502493E-01  0.84536946486E-01  0.51100000000E-03 0.  1.
</event>
<event>
 8    1  0.1066842E+005  0.1043930E+01  0.7957747E-01            NaN
         13   -1    0    0    0    0  0.00000000000E+00  0.00000000000E+00  0.74505805969E-08  0.10566000000E+00  0.10566000000E+00 0.  1.
     999900   -1    0    0    0    0 -0.00000000000E+00 -0.00000000000E+00 -0.74505805969E-08  0.93827000000E+00  0.93827000000E+00 0. -1.
     999902    2    1    2    0    0  0.95317034005E-02 -0.43077674680E-02 -0.22676829400E-01  0.10189570382E+01  0.10186509691E+01 0.  0.
     999903    2    3    3    0    0  0.66661036222E-01  0.52026172249E-01 -0.99404467447E-01  0.13198217728E+00  0.19688337208E-01 0.  0.
         14    1    1    2    0    0 -0.95317034005E-02  0.43077674680E-02  0.22676829400E-01  0.24972961817E-01  0.00000000000E+00 0. -1.
     999901    1    3    3    0    0 -0.57129332822E-01 -0.56333939717E-01  0.76727638047E-01  0.88697486090E+00  0.88000000000E+00 0.  1.
        -11    1    4    4    0    0  0.17500555326E-01  0.16883451712E-01 -0.42541797199E-01  0.49003938703E-01  0.51100000000E-03 0. -1.
         11    1    4    4    0    0  0.49160480896E-01  0.35142720537E-01 -0.56862670248E-01  0.82978238578E-01  0.51100000000E-03 0.  1.
</event>
<event>
 8    1  0.1066842E+005  0.1043930E+01  0.7957747E-01            NaN
         13   -1    0    0    0    0  0.00000000000E+00  0.00000000000E+00  0.74505805969E-08  0.10566000000E+00  0.10566000000E+00 0. -1.
     999900   -1    0    0    0    0 -0.00000000000E+00 -0.00000000000E+00 -0.74505805969E-08  0.93827000000E+00  0.93827000000E+00 0. -1.
     999902    2    1    2    0    0 -0.20946532040E-01 -0.96571948763E-02 -0.40353919803E-02  0.10205141292E+01  0.10202454532E+01 0.  0.
     999903    2    3    3    0    0 -0.18843688556E-01  0.99958771142E-01  0.78395734215E-01  0.12988796041E+00  0.19446094429E-01 0.  0.
         14    1    1    2    0    0  0.20946532040E-01  0.96571948763E-02  0.40353919803E-02  0.23415870811E-01  0.00000000000E+00 0.  1.
     999901    1    3    3    0    0 -0.21028434843E-02 -0.10961596602E+00 -0.82431126195E-01  0.89062616878E+00  0.88000000000E+00 0. -1.
        -11    1    4    4    0    0 -0.14063573565E-01  0.84197187412E-01  0.56042775564E-01  0.10211760026E+00  0.51100000000E-03 0.  1.
         11    1    4    4    0    0 -0.47801149906E-02  0.15761583730E-01  0.22352958651E-01  0.27770360143E-01  0.51100000000E-03 0. -1.
</event>
<event>
 8    1  0.1066842E+005  0.1043930E+01  0.7957747E-01            NaN
         13   -1    0    0    0    0  0.00000000000E+00  0.00000000000E+00  0.74505805969E-08  0.10566000000E+00  0.10566000000E+00 0. -1.
     999900   -1    0    0    0    0 -0.00000000000E+00 -0.00000000000E+00 -0.74505805969E-08  0.93827000000E+00  0.93827000000E+00 0.  1.
     999902    2    1    2    0    0 -0.13048969874E-01  0.20102287183E-01 -0.85742616607E-03  0.10199484916E+01  0.10196665204E+01 0.  0.
     999903    2    3    3    0    0 -0.98988162935E-01  0.86925020594E-01  0.46855393359E-02  0.13322331036E+00  0.19284204364E-01 0.  0.
         14    1    1    2    0    0  0.13048969874E-01 -0.20102287183E-01  0.85742616607E-03  0.23981508385E-01  0.00000000000E+00 0.  1.
     999901    1    3    3    0    0  0.85939193061E-01 -0.66822733411E-01 -0.55429655019E-02  0.88672518125E+00  0.88000000000E+00 0.  1.
        -11    1    4    4    0    0 -0.61211062940E-01  0.45679789460E-01 -0.46329926973E-02  0.76519037721E-01  0.51100000000E-03 0. -1.
         11    1    4    4    0    0 -0.37777099995E-01  0.41245231134E-01  0.93185320332E-02  0.56704272640E-01  0.51100000000E-03 0.  1.
</event>
<event>
 8    1  0.1066842E+005  0.1043930E+01  0.7957747E-01            NaN
         13   -1    0    0    0    0  0.00000000000E+00  0.00000000000E+00  0.74505805969E-08  0.10566000000E+00  0.10566000000E+00 0. -1.
     999900   -1    0    0    0    0 -0.00000000000E+00 -0.00000000000E+00 -0.74505805969E-08  0.93827000000E+00  0.93827000000E+00 0.  1.
     999902    2    1    2    0    0 -0.11826706752E-01 -0.55796272995E-02  0.22607539980E-01  0.10178128773E+01  0.10174777389E+01 0.  0.
     999903    2    3    3    0    0  0.90506186706E-01  0.78990753251E-01 -0.33732899204E-01  0.12607389340E+00  0.18050184949E-01 0.  0.
         14    1    1    2    0    0  0.11826706752E-01  0.55796272995E-02 -0.22607539980E-01  0.26117122685E-01  0.00000000000E+00 0.  1.
     999901    1    3    3    0    0 -0.10233289346E+00 -0.84570380550E-01  0.56340439184E-01  0.89173898392E+00  0.88000000000E+00 0. -1.
        -11    1    4    4    0    0  0.22787584343E-01  0.17497370438E-01 -0.46669687524E-03  0.28738665581E-01  0.51100000000E-03 0.  1.
         11    1    4    4    0    0  0.67718602363E-01  0.61493382813E-01 -0.33266202329E-01  0.97335227817E-01  0.51100000000E-03 0. -1.
</event>
<event>
 8    1  0.1066842E+005  0.1043930E+01  0.7957747E-01            NaN
         13   -1    0    0    0    0  0.00000000000E+00  0.00000000000E+00  0.74505805969E-08  0.10566000000E+00  0.10566000000E+00 0. -1.
     999900   -1    0    0    0    0 -0.00000000000E+00 -0.00000000000E+00 -0.74505805969E-08  0.93827000000E+00  0.93827000000E+00 0. -1.
     999902    2    1    2    0    0  0.18014910626E-01  0.12668651965E-01  0.52206208567E-02  0.10212962502E+01  0.10210454172E+01 0.  0.
     999903    2    3    3    0    0 -0.28070615113E-01 -0.46015223471E-02  0.12683766324E+00  0.13156997792E+00  0.20340423608E-01 0.  0.
         14    1    1    2    0    0 -0.18014910626E-01 -0.12668651965E-01 -0.52206208567E-02  0.22633749791E-01  0.00000000000E+00 0.  1.
     999901    1    3    3    0    0  0.46085525739E-01  0.17270174312E-01 -0.12161704238E+00  0.88972627229E+00  0.88000000000E+00 0. -1.
        -11    1    4    4    0    0 -0.24898570712E-01 -0.11250202816E-01  0.92764715195E-01  0.96706046311E-01  0.51100000000E-03 0. -1.
         11    1    4    4    0    0 -0.31720444012E-02  0.66486804686E-02  0.34072948046E-01  0.34863931609E-01  0.51100000000E-03 0.  1.
</event>
<event>
 8    1  0.1066842E+005  0.1043930E+01  0.7957747E-01            NaN
         13   -1    0    0    0    0  0.00000000000E+00  0.00000000000E+00  0.74505805969E-08  0.10566000000E+00  0.10566000000E+00 0.  1.
     999900   -1    0    0    0    0 -0.00000000000E+00 -0.00000000000E+00 -0.74505805969E-08  0.93827000000E+00  0.93827000000E+00 0.  1.
     999902    2    1    2    0    0  0.88400869284E-02  0.14363300504E-01  0.16262414473E-01  0.10205010081E+01  0.10202320274E+01 0.  0.
     999903    2    3    3    0    0  0.73253391132E-01  0.44811235794E-02  0.10881407813E+00  0.13325101984E+00  0.23004149774E-01 0.  0.
         14    1    1    2    0    0 -0.88400869284E-02 -0.14363300504E-01 -0.16262414473E-01  0.23428991928E-01  0.00000000000E+00 0.  1.
     999901    1    3    3    0    0 -0.64413304204E-01  0.98821769246E-02 -0.92551663658E-01  0.88724998824E+00  0.88000000000E+00 0.  1.
        -11    1    4    4    0    0  0.15314250608E-01  0.68962023309E-02  0.12963440125E-01  0.21222529989E-01  0.51100000000E-03 0.  1.
         11    1    4    4    0    0  0.57939140524E-01 -0.24150787515E-02  0.95850638006E-01  0.11202848985E+00  0.51100000000E-03 0. -1.
</event>
<event>
 8    1  0.1066842E+005  0.1043930E+01  0.7957747E-01            NaN
         13   -1    0    0    0    0  0.00000000000E+00  0.00000000000E+00  0.74505805969E-08  0.10566000000E+00  0.10566000000E+00 0. -1.
     999900   -1    0    0    0    0 -0.00000000000E+00 -0.00000000000E+00 -0.74505805969E-08  0.93827000000E+00  0.93827000000E+00 0. -1.
     999902    2    1    2    0    0 -0.16626792290E-01  0.16467546333E-01  0.23335969081E-02  0.10204124326E+01  0.10201413905E+01 0.  0.
     999903    2    3    3    0    0  0.19173940894E-01  0.11793521572E+00  0.53557475495E-01  0.13238018868E+00  0.19487330630E-01 0.  0.
         14    1    1    2    0    0  0.16626792290E-01 -0.16467546333E-01 -0.23335969081E-02  0.23517567447E-01  0.00000000000E+00 0.  1.
     999901    1    3    3    0    0 -0.35800733185E-01 -0.10146766939E+00 -0.51223878587E-01  0.88803224388E+00  0.88000000000E+00 0.  1.
        -11    1    4    4    0    0  0.13312960037E-02  0.24502591149E-02  0.51814682804E-02  0.59063400952E-02  0.51100000000E-03 0.  1.
         11    1    4    4    0    0  0.17842644891E-01  0.11548495661E+00  0.48376007214E-01  0.12647384858E+00  0.51100000000E-03 0. -1.
</event>
<event>
 8    1  0.1066842E+005  0.1043930E+01  0.7957747E-01            NaN
         13   -1    0    0    0    0  0.00000000000E+00  0.00000000000E+00  0.74505805969E-08  0.10566000000E+00  0.10566000000E+00 0. -1.
     999900   -1    0    0    0    0 -0.00000000000E+00 -0.00000000000E+00 -0.74505805969E-08  0.93827000000E+00  0.93827000000E+00 0.  1.
     999902    2    1    2    0    0  0.13050817717E-01  0.18657283659E-01 -0.46886871465E-02  0.10206834548E+01  0.10204186950E+01 0.  0.
     999903    2    3    3    0    0 -0.39072076027E-01  0.73794954419E-01  0.96433507334E-01  0.13164877774E+00  0.32552371988E-01 0.  0.
         14    1    1    2    0    0 -0.13050817717E-01 -0.18657283659E-01  0.46886871465E-02  0.23246545201E-01  0.00000000000E+00 0.  1.
     999901    1    3    3    0    0  0.52122893744E-01 -0.55137670760E-01 -0.10112219448E+00  0.88903467705E+00  0.88000000000E+00 0.  1.
        -11    1    4    4    0    0 -0.18352139683E-01  0.57324578697E-01  0.81291402830E-01  0.10115068783E+00  0.51100000000E-03 0.  1.
         11    1    4    4    0    0 -0.20719936343E-01  0.16470375722E-01  0.15142104504E-01  0.30498089913E-01  0.51100000000E-03 0. -1.
</event>
<event>
 8    1  0.1066842E+005  0.1043930E+01  0.7957747E-01            NaN
         13   -1    0    0    0    0  0.00000000000E+00  0.00000000000E+00  0.74505805969E-08  0.10566000000E+00  0.10566000000E+00 0.  1.
     999900   -1    0    0    0    0 -0.00000000000E+00 -0.00000000000E+00 -0.74505805969E-08  0.93827000000E+00  0.93827000000E+00 0.  1.
     999902    2    1    2    0    0 -0.38314012954E-02 -0.18290129705E-01 -0.74345374611E-02  0.10238182913E+01  0.10236207368E+01 0.  0.
     999903    2    3    3    0    0 -0.59571918922E-01 -0.22662099138E-01  0.11567656672E+00  0.13349112478E+00  0.19401753685E-01 0.  0.
         14    1    1    2    0    0  0.38314012954E-02  0.18290129705E-01  0.74345374611E-02  0.20111708724E-01  0.00000000000E+00 0.  1.
     999901    1    3    3    0    0  0.55740517627E-01  0.43719694323E-02 -0.12311110418E+00  0.89032716649E+00  0.88000000000E+00 0.  1.
        -11    1    4    4    0    0 -0.52226108106E-01 -0.25881416861E-01  0.97126712606E-01  0.11327521145E+00  0.51100000000E-03 0.  1.
         11    1    4    4    0    0 -0.73458108165E-02  0.32193177235E-02  0.18549854116E-01  0.20215913333E-01  0.51100000000E-03 0. -1.
</event>
<event>
 8    1  0.1066842E+005  0.1043930E+01  0.7957747E-01            NaN
         13   -1    0    0    0    0  0.00000000000E+00  0.00000000000E+00  0.74505805969E-08  0.10566000000E+00  0.10566000000E+00 0. -1.
     999900   -1    0    0    0    0 -0.00000000000E+00 -0.00000000000E+00 -0.74505805969E-08  0.93827000000E+00  0.93827000000E+00 0. -1.
     999902    2    1    2    0    0  0.37827120212E-02 -0.19151565331E-01 -0.73184836494E-02  0.10230817011E+01  0.10228692563E+01 0.  0.
     999903    2    3    3    0    0  0.58904640970E-01  0.11541481333E+00 -0.44894026987E-02  0.13114305913E+00  0.19698003872E-01 0.  0.
         14    1    1    2    0    0 -0.37827120212E-02  0.19151565331E-01  0.73184836494E-02  0.20848298918E-01  0.00000000000E+00 0. -1.
     999901    1    3    3    0    0 -0.55121928948E-01 -0.13456637866E+00 -0.28290809507E-02  0.89193864196E+00  0.88000000000E+00 0. -1.
        -11    1    4    4    0    0  0.46383395319E-01  0.71644667568E-01 -0.62646498814E-02  0.85579698010E-01  0.51100000000E-03 0.  1.
         11    1    4    4    0    0  0.12521245651E-01  0.43770145761E-01  0.17752471827E-02  0.45563361115E-01  0.51100000000E-03 0. -1.
</event>
<event>
 8    1  0.1066842E+005  0.1043930E+01  0.7957747E-01            NaN
         13   -1    0    0    0    0  0.00000000000E+00  0.00000000000E+00  0.74505805969E-08  0.10566000000E+00  0.10566000000E+00 0. -1.
     999900   -1    0    0    0    0 -0.00000000000E+00 -0.00000000000E+00 -0.74505805969E-08  0.93827000000E+00  0.93827000000E+00 0.  1.
     999902    2    1    2    0    0 -0.17652982799E-01  0.14666147627E-01  0.68468818378E-02  0.10199799796E+01  0.10196987571E+01 0.  0.
     999903    2    3    3    0    0 -0.12547283788E+00 -0.32412074061E-01  0.19757561660E-01  0.13205646610E+00  0.15955356694E-01 0.  0.
         14    1    1    2    0    0  0.17652982799E-01 -0.14666147627E-01 -0.68468818378E-02  0.23950020434E-01  0.00000000000E+00 0.  1.
     999901    1    3    3    0    0  0.10781985508E+00  0.47078221688E-01 -0.12910679823E-01  0.88792351346E+00  0.88000000000E+00 0. -1.
        -11    1    4    4    0    0 -0.60653105073E-01 -0.15243474811E-01  0.17576038679E-01  0.64964151161E-01  0.51100000000E-03 0. -1.
         11    1    4    4    0    0 -0.64819732803E-01 -0.17168599250E-01  0.21815229811E-02  0.67092314943E-01  0.51100000000E-03 0.  1.
</event>
<event>
 8    1  0.1066842E+005  0.1043930E+01  0.7957747E-01            NaN
         13   -1    0    0    0    0  0.00000000000E+00  0.00000000000E+00  0.74505805969E-08  0.10566000000E+00  0.10566000000E+00 0.  1.
     999900   -1    0    0    0    0 -0.00000000000E+00 -0.00000000000E+00 -0.74505805969E-08  0.93827000000E+00  0.93827000000E+00 0. -1.
     999902    2    1    2    0    0 -0.15474692383E-01 -0.15523132025E-01 -0.76802727201E-02  0.10207045760E+01  0.10204403026E+01 0.  0.
     999903    2    3    3    0    0 -0.19877822713E-02  0.37265539262E-01  0.12233184102E+00  0.12948536036E+00  0.20216516113E-01 0.  0.
         14    1    1    2    0    0  0.15474692383E-01  0.15523132025E-01  0.76802727201E-02  0.23225424028E-01  0.00000000000E+00 0.  1.
     999901    1    3    3    0    0 -0.13486910112E-01 -0.52788671287E-01 -0.13001211374E+00  0.89121921561E+00  0.88000000000E+00 0. -1.
        -11    1    4    4    0    0 -0.99614377777E-02  0.13609306778E-01  0.60315045822E-01  0.62630738037E-01  0.51100000000E-03 0.  1.
         11    1    4    4    0    0  0.79736555064E-02  0.23656232484E-01  0.62016795201E-01  0.66854622320E-01  0.51100000000E-03 0. -1.
</event>
<event>
 8    1  0.1066842E+005  0.1043930E+01  0.7957747E-01            NaN
         13   -1    0    0    0    0  0.00000000000E+00  0.00000000000E+00  0.74505805969E-08  0.10566000000E+00  0.10566000000E+00 0.  1.
     999900   -1    0    0    0    0 -0.00000000000E+00 -0.00000000000E+00 -0.74505805969E-08  0.93827000000E+00  0.93827000000E+00 0.  1.
     999902    2    1    2    0    0 -0.17020056795E-01 -0.10632430922E-01  0.13340976824E-01  0.10198320212E+01  0.10195472715E+01 0.  0.
     999903    2    3    3    0    0  0.10822550737E+00  0.30586176144E-02  0.67752676586E-01  0.12919487328E+00  0.19462130139E-01 0.  0.
         14    1    1    2    0    0  0.17020056795E-01  0.10632430922E-01 -0.13340976824E-01  0.24097978821E-01  0.00000000000E+00 0. -1.
     999901    1    3    3    0    0 -0.12524556416E+00 -0.13691048536E-01 -0.54411699761E-01  0.89063714790E+00  0.88000000000E+00 0. -1.
        -11    1    4    4    0    0  0.85519083594E-02  0.15298987079E-02  0.12466722547E-01  0.15203815926E-01  0.51100000000E-03 0.  1.
         11    1    4    4    0    0  0.99673599010E-01  0.15287189065E-02  0.55285954038E-01  0.11399105735E+00  0.51100000000E-03 0. -1.
</event>
<event>
 8    1  0.1066842E+005  0.1043930E+01  0.7957747E-01            NaN
         13   -1    0    0    0    0  0.00000000000E+00  0.00000000000E+00  0.74505805969E-08  0.10566000000E+00  0.10566000000E+00 0. -1.
     999900   -1    0    0    0    0 -0.00000000000E+00 -0.00000000000E+00 -0.74505805969E-08  0.93827000000E+00  0.93827000000E+00 0. -1.
     999902    2    1    2    0    0 -0.84412935145E-02  0.21705426015E-01  0.20948230639E-02  0.10205469027E+01  0.10202789870E+01 0.  0.
     999903    2    3    3    0    0  0.55970839603E-01 -0.10819067856E+00  0.33864206781E-01  0.12811695330E+00  0.20717418049E-01 0.  0.
         14    1    1    2    0    0  0.84412935145E-02 -0.21705426015E-01 -0.20948230639E-02  0.23383097279E-01  0.00000000000E+00 0.  1.
     999901    1    3    3    0    0 -0.64412133118E-01  0.12989610457E+00 -0.31769383717E-01  0.89242994942E+00  0.88000000000E+00 0. -1.
        -11    1    4    4    0    0  0.20770570907E-01 -0.31527601167E-01  0.19660362045E-01  0.42569909654E-01  0.51100000000E-03 0.  1.
         11    1    4    4    0    0  0.35200268696E-01 -0.76663077389E-01  0.14203844735E-01  0.85547043650E-01  0.51100000000E-03 0. -1.
</event>
<event>
 8    1  0.1066842E+005  0.1043930E+01  0.7957747E-01            NaN
         13   -1    0    0    0    0  0.00000000000E+00  0.00000000000E+00  0.74505805969E-08  0.10566000000E+00  0.10566000000E+00 0. -1.
     999900   -1    0    0    0    0 -0.00000000000E+00 -0.00000000000E+00 -0.74505805969E-08  0.93827000000E+00  0.93827000000E+00 0.  1.
     999902    2    1    2    0    0  0.94338240079E-02 -0.16261634392E-01  0.14599007795E-01  0.10201272939E+01  0.10198495609E+01 0.  0.
     999903    2    3    3    0    0 -0.45649176354E-01 -0.80198844516E-01 -0.89361039067E-01  0.12999820490E+00  0.19960861954E-01 0.  0.
         14    1    1    2    0    0 -0.94338240079E-02  0.16261634392E-01 -0.14599007795E-01  0.23802706088E-01  0.00000000000E+00 0.  1.
     999901    1    3    3    0    0  0.55083000362E-01  0.63937210124E-01  0.10396004686E+00  0.89012908902E+00  0.88000000000E+00 0. -1.
        -11    1    4    4    0    0 -0.30821115908E-01 -0.41659852672E-01 -0.38935937001E-01  0.64820928886E-01  0.51100000000E-03 0.  1.
         11    1    4    4    0    0 -0.14828060445E-01 -0.38538991844E-01 -0.50425102066E-01  0.65177276012E-01  0.51100000000E-03 0. -1.
</event>
<event>
 8    1  0.1066842E+005  0.1043930E+01  0.7957747E-01            NaN
         13   -1    0    0    0    0  0.00000000000E+00  0.00000000000E+00  0.74505805969E-08  0.10566000000E+00  0.10566000000E+00 0.  1.
     999900   -1    0    0    0    0 -0.00000000000E+00 -0.00000000000E+00 -0.74505805969E-08  0.93827000000E+00  0.93827000000E+00 0.  1.
     999902    2    1    2    0    0 -0.14956374758E-01 -0.59658698300E-02 -0.16386535270E-01  0.10209560302E+01  0.10206975127E+01 0.  0.
     999903    2    3    3    0    0 -0.12146641890E+00 -0.30129945003E-02 -0.53032900143E-01  0.13377168353E+00  0.17866330396E-01 0.  0.
         14    1    1    2    0    0  0.14956374758E-01  0.59658698300E-02  0.16386535270E-01  0.22973969767E-01  0.00000000000E+00 0.  1.
     999901    1    3    3    0    0  0.10651004414E+00 -0.29528753297E-02  0.36646364873E-01  0.88718434670E+00  0.88000000000E+00 0. -1.
        -11    1    4    4    0    0 -0.82816262738E-01 -0.82372372811E-02 -0.29968124371E-01  0.88457532473E-01  0.51100000000E-03 0. -1.
         11    1    4    4    0    0 -0.38650156158E-01  0.52242427808E-02 -0.23064775772E-01  0.45314151057E-01  0.51100000000E-03 0.  1.
</event>
<event>
 8    1  0.1066842E+005  0.1043930E+01  0.7957747E-01            NaN
         13   -1    0    0    0    0  0.00000000000E+00  0.00000000000E+00  0.74505805969E-08  0.10566000000E+00  0.10566000000E+00 0.  1.
     999900   -1    0    0    0    0 -0.00000000000E+00 -0.00000000000E+00 -0.74505805969E-08  0.93827000000E+00  0.93827000000E+00 0.  1.
     999902    2    1    2    0    0  0.16109708664E-01 -0.93576135016E-02 -0.15338376698E-01  0.10197979996E+01  0.10195124357E+01 0.  0.
     999903    2    3    3    0    0 -0.30954785565E-01  0.12336798821E+00 -0.11410261350E-01  0.12859287054E+00  0.15102086832E-01 0.  0.
         14    1    1    2    0    0 -0.16109708664E-01  0.93576135016E-02  0.15338376698E-01  0.24132000402E-01  0.00000000000E+00 0. -1.
     999901    1    3    3    0    0  0.47064494228E-01 -0.13272560171E+00 -0.39281153480E-02  0.89120512906E+00  0.88000000000E+00 0. -1.
        -11    1    4    4    0    0 -0.15589793714E-01  0.55114320631E-01 -0.12472123817E-01  0.58621199239E-01  0.51100000000E-03 0.  1.
         11    1    4    4    0    0 -0.15364991850E-01  0.68253667575E-01  0.10618624672E-02  0.69971671303E-01  0.51100000000E-03 0. -1.
</event>
<event>
 8    1  0.1066842E+005  0.1043930E+01  0.7957747E-01            NaN
         13   -1    0    0    0    0  0.00000000000E+00  0.00000000000E+00  0.74505805969E-08  0.10566000000E+00  0.10566000000E+00 0.  1.
     999900   -1    0    0    0    0 -0.00000000000E+00 -0.00000000000E+00 -0.74505805969E-08  0.93827000000E+00  0.93827000000E+00 0.  1.
     999902    2    1    2    0    0 -0.17932340515E-01  0.45949049948E-02 -0.16372806125E-01  0.10192166277E+01  0.10189169659E+01 0.  0.
     999903    2    3    3    0    0 -0.13543290232E-01 -0.12464474992E+00 -0.27203605335E-01  0.12970020946E+00  0.19036118280E-01 0.  0.
         14    1    1    2    0    0  0.17932340515E-01 -0.45949049948E-02  0.16372806125E-01  0.24713372264E-01  0.00000000000E+00 0.  1.
     999901    1    3    3    0    0 -0.43890502832E-02  0.12923965491E+00  0.10830799210E-01  0.88951641827E+00  0.88000000000E+00 0. -1.
        -11    1    4    4    0    0 -0.85818335958E-02 -0.21688748160E-01 -0.91176619510E-02  0.25048803266E-01  0.51100000000E-03 0.  1.
         11    1    4    4    0    0 -0.49614566362E-02 -0.10295600176E+00 -0.18085943384E-01  0.10465140620E+00  0.51100000000E-03 0. -1.
</event>
<event>
 8    1  0.1066842E+005  0.1043930E+01  0.7957747E-01            NaN
         13   -1    0    0    0    0  0.00000000000E+00  0.00000000000E+00  0.74505805969E-08  0.10566000000E+00  0.10566000000E+00 0.  1.
     999900   -1    0    0    0    0 -0.00000000000E+00 -0.00000000000E+00 -0.74505805969E-08  0.93827000000E+00  0.93827000000E+00 0. -1.
     999902    2    1    2    0    0 -0.23989959780E-02 -0.29262551124E-03 -0.23267401381E-01  0.10205374204E+01  0.10202692849E+01 0.  0.
     999903    2    3    3    0    0 -0.11781020644E+00 -0.20559505695E-01 -0.52928989979E-01  0.13227490082E+00  0.19830113181E-01 0.  0.
         14    1    1    2    0    0  0.23989959780E-02  0.29262551124E-03  0.23267401381E-01  0.23392579558E-01  0.00000000000E+00 0.  1.
     999901    1    3    3    0    0  0.11541121047E+00  0.20266880184E-01  0.29661588598E-01  0.88826251963E+00  0.88000000000E+00 0.  1.
        -11    1    4    4    0    0 -0.84893663786E-01 -0.64424435112E-02 -0.33218107835E-01  0.91390059845E-01  0.51100000000E-03 0.  1.
         11    1    4    4    0    0 -0.32916542658E-01 -0.14117062184E-01 -0.19710882144E-01  0.40884840970E-01  0.51100000000E-03 0. -1.
</event>
<event>
 8    1  0.1066842E+005  0.1043930E+01  0.7957747E-01            NaN
         13   -1    0    0    0    0  0.00000000000E+00  0.00000000000E+00  0.74505805969E-08  0.10566000000E+00  0.10566000000E+00 0. -1.
     999900   -1    0    0    0    0 -0.00000000000E+00 -0.00000000000E+00 -0.74505805969E-08  0.93827000000E+00  0.93827000000E+00 0. -1.
     999902    2    1    2    0    0 -0.11763450266E-03  0.24566264939E-01 -0.66415678107E-02  0.10184815102E+01  0.10181635237E+01 0.  0.
     999903    2    3    3    0    0  0.66633684482E-02 -0.81012203826E-01 -0.96384776774E-01  0.12761303582E+00  0.19689694475E-01 0.  0.
         14    1    1    2    0    0  0.11763450266E-03 -0.24566264939E-01  0.66415678107E-02  0.25448489816E-01  0.00000000000E+00 0. -1.
     999901    1    3    3    0    0 -0.67810029509E-02  0.10557846877E+00  0.89743208963E-01  0.89086847437E+00  0.88000000000E+00 0. -1.
        -11    1    4    4    0    0  0.13360992285E-01 -0.62392658866E-01 -0.75071192130E-01  0.98525656578E-01  0.51100000000E-03 0. -1.
         11    1    4    4    0    0 -0.66976238364E-02 -0.18619544960E-01 -0.21313584644E-01  0.29087379238E-01  0.51100000000E-03 0.  1.
</event>
<event>
 8    1  0.1066842E+005  0.1043930E+01  0.7957747E-01            NaN
         13   -1    0    0    0    0  0.00000000000E+00  0.00000000000E+00  0.74505805969E-08  0.10566000000E+00  0.10566000000E+00 0.  1.
     999900   -1    0    0    0    0 -0.00000000000E+00 -0.00000000000E+00 -0.74505805969E-08  0.93827000000E+00  0.93827000000E+00 0.  1.
     999902    2    1    2    0    0  0.22817035159E-01 -0.51475324034E-03  0.10111760612E-02  0.10210847698E+01  0.10208291741E+01 0.  0.
     999903    2    3    3    0    0 -0.66478540966E-01  0.40503137780E-01  0.10208055529E+00  0.12986583673E+00  0.19616197481E-01 0.  0.
         14    1    1    2    0    0 -0.22817035159E-01  0.51475324034E-03 -0.10111760612E-02  0.22845230167E-01  0.00000000000E+00 0. -1.
     999901    1    3    3    0    0  0.89295576126E-01 -0.41017891020E-01 -0.10106937923E+00  0.89121893310E+00  0.88000000000E+00 0.  1.
        -11    1    4    4    0    0 -0.29580910587E-01  0.81641144916E-02  0.32241123818E-01  0.44513303884E-01  0.51100000000E-03 0.  1.
         11    1    4    4    0    0 -0.36897630379E-01  0.32339023288E-01  0.69839431469E-01  0.85352532849E-01  0.51100000000E-03 0. -1.
</event>
<event>
 8    1  0.1066842E+005  0.1043930E+01  0.7957747E-01            NaN
         13   -1    0    0    0    0  0.00000000000E+00  0.00000000000E+00  0.74505805969E-08  0.10566000000E+00  0.10566000000E+00 0. -1.
     999900   -1    0    0    0    0 -0.00000000000E+00 -0.00000000000E+00 -0.74505805969E-08  0.93827000000E+00  0.93827000000E+00 0. -1.
     999902    2    1    2    0    0 -0.38086553925E-02  0.10137097466E-01 -0.18635486339E-01  0.10223766255E+01  0.10221494100E+01 0.  0.
     999903    2    3    3    0    0 -0.10553794483E+00  0.60322072022E-01 -0.53837524586E-01  0.13439770487E+00  0.19678766419E-01 0.  0.
         14    1    1    2    0    0  0.38086553925E-02 -0.10137097466E-01  0.18635486339E-01  0.21553374492E-01  0.00000000000E+00 0. -1.
     999901    1    3    3    0    0  0.10172928944E+00 -0.50184974556E-01  0.35202038248E-01  0.88797892064E+00  0.88000000000E+00 0. -1.
        -11    1    4    4    0    0 -0.80549841557E-01  0.50685254000E-01 -0.49458834279E-01  0.10725534652E+00  0.51100000000E-03 0. -1.
         11    1    4    4    0    0 -0.24988103276E-01  0.96368180227E-02 -0.43786903075E-02  0.27142358349E-01  0.51100000000E-03 0.  1.
</event>
<event>
 8    1  0.1066842E+005  0.1043930E+01  0.7957747E-01            NaN
         13   -1    0    0    0    0  0.00000000000E+00  0.00000000000E+00  0.74505805969E-08  0.10566000000E+00  0.10566000000E+00 0. -1.
     999900   -1    0    0    0    0 -0.00000000000E+00 -0.00000000000E+00 -0.74505805969E-08  0.93827000000E+00  0.93827000000E+00 0. -1.
     999902    2    1    2    0    0 -0.52281706794E-02  0.13889317987E-02  0.23002450263E-01  0.10203000271E+01  0.10200263574E+01 0.  0.
     999903    2    3    3    0    0  0.91440220302E-01  0.29403763228E-01  0.88457487532E-01  0.13214802971E+00  0.20309590729E-01 0.  0.
         14    1    1    2    0    0  0.52281706794E-02 -0.13889317987E-02 -0.23002450263E-01  0.23629972879E-01  0.00000000000E+00 0.  1.
     999901    1    3    3    0    0 -0.96668390982E-01 -0.28014831430E-01 -0.65455037269E-01  0.88815199741E+00  0.88000000000E+00 0. -1.
        -11    1    4    4    0    0  0.66769432110E-01  0.19180717897E-01  0.51176874092E-01  0.86286676643E-01  0.51100000000E-03 0. -1.
         11    1    4    4    0    0  0.24670788192E-01  0.10223045331E-01  0.37280613440E-01  0.45861353069E-01  0.51100000000E-03 0.  1.
</event>
<event>
 8    1  0.1066842E+005  0.1043930E+01  0.7957747E-01            NaN
         13   -1    0    0    0    0  0.00000000000E+00  0.00000000000E+00  0.74505805969E-08  0.10566000000E+00  0.10566000000E+00 0.  1.
     999900   -1    0    0    0    0 -0.00000000000E+00 -0.00000000000E+00 -0.74505805969E-08  0.93827000000E+00  0.93827000000E+00 0.  1.
     999902    2    1    2    0    0 -0.21038910701E-01  0.18391813841E-02  0.10786411609E-01  0.10202157632E+01  0.10199401151E+01 0.  0.
     999903    2    3    3    0    0 -0.92401911612E-01 -0.64802523191E-01 -0.64608126701E-01  0.13161116548E+00  0.20243728922E-01 0.  0.
         14    1    1    2    0    0  0.21038910701E-01 -0.18391813841E-02 -0.10786411609E-01  0.23714236801E-01  0.00000000000E+00 0. -1.
     999901    1    3    3    0    0  0.71363000911E-01  0.66641704575E-01  0.75394538310E-01  0.88860459772E+00  0.88000000000E+00 0. -1.
        -11    1    4    4    0    0 -0.33506975262E-01 -0.17287299349E-01 -0.30980347569E-01  0.48801753723E-01  0.51100000000E-03 0. -1.
         11    1    4    4    0    0 -0.58894936351E-01 -0.47515223842E-01 -0.33627779131E-01  0.82809411752E-01  0.51100000000E-03 0.  1.
</event>
<event>
 8    1  0.1101036E+005  0.1043930E+01  0.7957747E-01            NaN
         13   -1    0    0    0    0  0.00000000000E+00  0.00000000000E+00  0.74505805969E-08  0.10566000000E+00  0.10566000000E+00 0. -1.
     999900   -1    0    0    0    0 -0.00000000000E+00 -0.00000000000E+00 -0.74505805969E-08  0.93827000000E+00  0.93827000000E+00 0.  1.
     999902    2    1    2    0    0  0.83874768914E-02  0.17021277102E-01 -0.13829111217E-01  0.10204498390E+01  0.10201796685E+01 0.  0.
     999903    2    3    3    0    0  0.44227588763E-01 -0.72109023360E-01 -0.97973346371E-01  0.13123165635E+00  0.21614351035E-01 0.  0.
         14    1    1    2    0    0 -0.83874768914E-02 -0.17021277102E-01  0.13829111217E-01  0.23480160984E-01  0.00000000000E+00 0.  1.
     999901    1    3    3    0    0 -0.35840111871E-01  0.89130300462E-01  0.84144235154E-01  0.88921818267E+00  0.88000000000E+00 0. -1.
        -11    1    4    4    0    0  0.18498726642E-01 -0.16421231609E-01 -0.38669025564E-01  0.45906583341E-01  0.51100000000E-03 0.  1.
         11    1    4    4    0    0  0.25728862121E-01 -0.55687791751E-01 -0.59304320807E-01  0.85325073006E-01  0.51100000000E-03 0. -1.
</event>
<event>
 8    1  0.1066842E+005  0.1043930E+01  0.7957747E-01            NaN
         13   -1    0    0    0    0  0.00000000000E+00  0.00000000000E+00  0.74505805969E-08  0.10566000000E+00  0.10566000000E+00 0.  1.
     999900   -1    0    0    0    0 -0.00000000000E+00 -0.00000000000E+00 -0.74505805969E-08  0.93827000000E+00  0.93827000000E+00 0. -1.
     999902    2    1    2    0    0 -0.16026382636E-02 -0.14704128509E-01 -0.18926268612E-01  0.10199095194E+01  0.10196266200E+01 0.  0.
     999903    2    3    3    0    0  0.12214462763E-01  0.99084607900E-01  0.76622781856E-01  0.12734668696E+00  0.19472425542E-01 0.  0.
         14    1    1    2    0    0  0.16026382636E-02  0.14704128509E-01  0.18926268612E-01  0.24020480599E-01  0.00000000000E+00 0.  1.
     999901    1    3    3    0    0 -0.13817101027E-01 -0.11378873641E+00 -0.95549050468E-01  0.89256283244E+00  0.88000000000E+00 0. -1.
        -11    1    4    4    0    0 -0.50783572708E-02  0.31268198780E-01  0.25654703698E-01  0.40766590615E-01  0.51100000000E-03 0. -1.
         11    1    4    4    0    0  0.17292820034E-01  0.67816409119E-01  0.50968078158E-01  0.86580096342E-01  0.51100000000E-03 0.  1.
</event>
<event>
 8    1  0.1066842E+005  0.1043930E+01  0.7957747E-01            NaN
         13   -1    0    0    0    0  0.00000000000E+00  0.00000000000E+00  0.74505805969E-08  0.10566000000E+00  0.10566000000E+00 0.  1.
     999900   -1    0    0    0    0 -0.00000000000E+00 -0.00000000000E+00 -0.74505805969E-08  0.93827000000E+00  0.93827000000E+00 0. -1.
     999902    2    1    2    0    0  0.21066017126E-01  0.23746562098E-02 -0.10008128737E-01  0.10204869048E+01  0.10202175965E+01 0.  0.
     999903    2    3    3    0    0  0.12128719064E+00  0.62025547190E-02 -0.52374405253E-01  0.13377734822E+00  0.20105876572E-01 0.  0.
         14    1    1    2    0    0 -0.21066017126E-01 -0.23746562098E-02  0.10008128737E-01  0.23443095156E-01  0.00000000000E+00 0. -1.
     999901    1    3    3    0    0 -0.10022117351E+00 -0.38278985092E-02  0.42366276516E-01  0.88670955663E+00  0.88000000000E+00 0.  1.
        -11    1    4    4    0    0  0.16602029311E-01  0.75605780408E-02 -0.54402767959E-02  0.19043304602E-01  0.51100000000E-03 0.  1.
         11    1    4    4    0    0  0.10468516133E+00 -0.13580233218E-02 -0.46934128457E-01  0.11473404362E+00  0.51100000000E-03 0. -1.
</event>
<event>
 8    1  0.1066842E+005  0.1043930E+01  0.7957747E-01            NaN
         13   -1    0    0    0    0  0.00000000000E+00  0.00000000000E+00  0.74505805969E-08  0.10566000000E+00  0.10566000000E+00 0. -1.
     999900   -1    0    0    0    0 -0.00000000000E+00 -0.00000000000E+00 -0.74505805969E-08  0.93827000000E+00  0.93827000000E+00 0. -1.
     999902    2    1    2    0    0 -0.76665015404E-02 -0.85691265782E-02 -0.20704783926E-01  0.10202468150E+01  0.10199718968E+01 0.  0.
     999903    2    3    3    0    0 -0.25761975352E-01 -0.86933952493E-01  0.90401767712E-01  0.12962166490E+00  0.20201607231E-01 0.  0.
         14    1    1    2    0    0  0.76665015404E-02  0.85691265782E-02  0.20704783926E-01  0.23683185039E-01  0.00000000000E+00 0. -1.
     999901    1    3    3    0    0  0.18095473811E-01  0.78364825914E-01 -0.11110655164E+00  0.89062515007E+00  0.88000000000E+00 0. -1.
        -11    1    4    4    0    0 -0.41745903320E-02 -0.49470378148E-01  0.48921535798E-01  0.69701673613E-01  0.51100000000E-03 0.  1.
         11    1    4    4    0    0 -0.21587385020E-01 -0.37463574344E-01  0.41480231914E-01  0.59919991282E-01  0.51100000000E-03 0. -1.
</event>
<event>
 8    1  0.1066842E+005  0.1043930E+01  0.7957747E-01            NaN
         13   -1    0    0    0    0  0.00000000000E+00  0.00000000000E+00  0.74505805969E-08  0.10566000000E+00  0.10566000000E+00 0. -1.
     999900   -1    0    0    0    0 -0.00000000000E+00 -0.00000000000E+00 -0.74505805969E-08  0.93827000000E+00  0.93827000000E+00 0.  1.
     999902    2    1    2    0    0  0.12887376705E-01 -0.19363344941E-02  0.20410755628E-01  0.10197136251E+01  0.10194260367E+01 0.  0.
     999903    2    3    3    0    0 -0.20376984332E-01  0.12324645770E+00 -0.25971010448E-01  0.12902371415E+00  0.19175886017E-01 0.  0.
         14    1    1    2    0    0 -0.12887376705E-01  0.19363344941E-02 -0.20410755628E-01  0.24216374934E-01  0.00000000000E+00 0.  1.
     999901    1    3    3    0    0  0.33264361037E-01 -0.12518279219E+00  0.46381766076E-01  0.89068991091E+00  0.88000000000E+00 0.  1.
        -11    1    4    4    0    0 -0.16106121061E-01  0.54212938529E-01 -0.51534245475E-02  0.56791449577E-01  0.51100000000E-03 0.  1.
         11    1    4    4    0    0 -0.42708632715E-02  0.69033519171E-01 -0.20817585901E-01  0.72232264577E-01  0.51100000000E-03 0. -1.
</event>
<event>
 8    1  0.1066842E+005  0.1043930E+01  0.7957747E-01            NaN
         13   -1    0    0    0    0  0.00000000000E+00  0.00000000000E+00  0.74505805969E-08  0.10566000000E+00  0.10566000000E+00 0. -1.
     999900   -1    0    0    0    0 -0.00000000000E+00 -0.00000000000E+00 -0.74505805969E-08  0.93827000000E+00  0.93827000000E+00 0.  1.
     999902    2    1    2    0    0 -0.51249320156E-02  0.18555983755E-01  0.12922950170E-01  0.10207439675E+01  0.10204806001E+01 0.  0.
     999903    2    3    3    0    0  0.67227524187E-02 -0.11258739211E+00 -0.57491894822E-01  0.12816500571E+00  0.19995860979E-01 0.  0.
         14    1    1    2    0    0  0.51249320156E-02 -0.18555983755E-01 -0.12922950170E-01  0.23186032485E-01  0.00000000000E+00 0.  1.
     999901    1    3    3    0    0 -0.11847684434E-01  0.13114337587E+00  0.70414844992E-01  0.89257896180E+00  0.88000000000E+00 0. -1.
        -11    1    4    4    0    0  0.97571520083E-02 -0.92402116966E-01 -0.53942733016E-01  0.10744036858E+00  0.51100000000E-03 0. -1.
         11    1    4    4    0    0 -0.30343995896E-02 -0.20185275144E-01 -0.35491618057E-02  0.20724637127E-01  0.51100000000E-03 0.  1.
</event>
<event>
 8    1  0.1066842E+005  0.1043930E+01  0.7957747E-01            NaN
         13   -1    0    0    0    0  0.00000000000E+00  0.00000000000E+00  0.74505805969E-08  0.10566000000E+00  0.10566000000E+00 0.  1.
     999900   -1    0    0    0    0 -0.00000000000E+00 -0.00000000000E+00 -0.74505805969E-08  0.93827000000E+00  0.93827000000E+00 0.  1.
     999902    2    1    2    0    0  0.16688328282E-01  0.23286850696E-03 -0.15528142433E-01  0.10211335587E+01  0.10208790658E+01 0.  0.
     999903    2    3    3    0    0 -0.10229607780E+00 -0.58011115841E-01  0.48898089930E-01  0.12888897899E+00  0.19788092667E-01 0.  0.
         14    1    1    2    0    0 -0.16688328282E-01 -0.23286850696E-03  0.15528142433E-01  0.22796441302E-01  0.00000000000E+00 0.  1.
     999901    1    3    3    0    0  0.11898440608E+00  0.58243984348E-01 -0.64426232363E-01  0.89224457971E+00  0.88000000000E+00 0.  1.
        -11    1    4    4    0    0 -0.67094034624E-01 -0.44088120106E-01  0.41263466545E-01  0.90267971113E-01  0.51100000000E-03 0. -1.
         11    1    4    4    0    0 -0.35202043178E-01 -0.13922995735E-01  0.76346233845E-02  0.38621007876E-01  0.51100000000E-03 0.  1.
</event>
<event>
 8    1  0.1066842E+005  0.1043930E+01  0.7957747E-01            NaN
         13   -1    0    0    0    0  0.00000000000E+00  0.00000000000E+00  0.74505805969E-08  0.10566000000E+00  0.10566000000E+00 0.  1.
     999900   -1    0    0    0    0 -0.00000000000E+00 -0.00000000000E+00 -0.74505805969E-08  0.93827000000E+00  0.93827000000E+00 0.  1.
     999902    2    1    2    0    0 -0.18265736997E-01 -0.14292967688E-01 -0.49997276650E-02  0.10202039942E+01  0.10199280693E+01 0.  0.
     999903    2    3    3    0    0  0.61200217513E-01  0.67489210305E-01 -0.88947527804E-01  0.12888452528E+00  0.19982442895E-01 0.  0.
         14    1    1    2    0    0  0.18265736997E-01  0.14292967688E-01  0.49997276650E-02  0.23726005776E-01  0.00000000000E+00 0.  1.
     999901    1    3    3    0    0 -0.79465954510E-01 -0.81782177993E-01  0.83947800139E-01  0.89131946894E+00  0.88000000000E+00 0. -1.
        -11    1    4    4    0    0  0.27182227269E-01  0.16085882113E-01 -0.31927674222E-01  0.44913990971E-01  0.51100000000E-03 0. -1.
         11    1    4    4    0    0  0.34017990244E-01  0.51403328191E-01 -0.57019853582E-01  0.83970534313E-01  0.51100000000E-03 0.  1.
</event>
<event>
 8    1  0.1066842E+005  0.1043930E+01  0.7957747E-01            NaN
         13   -1    0    0    0    0  0.00000000000E+00  0.00000000000E+00  0.74505805969E-08  0.10566000000E+00  0.10566000000E+00 0.  1.
     999900   -1    0    0    0    0 -0.00000000000E+00 -0.00000000000E+00 -0.74505805969E-08  0.93827000000E+00  0.93827000000E+00 0.  1.
     999902    2    1    2    0    0 -0.18141701478E-01 -0.14929796450E-01 -0.23834660886E-02  0.10203143047E+01  0.10200409694E+01 0.  0.
     999903    2    3    3    0    0 -0.73492057548E-01  0.60013599257E-01 -0.88486052952E-01  0.13121710531E+00  0.19632435915E-01 0.  0.
         14    1    1    2    0    0  0.18141701478E-01  0.14929796450E-01  0.23834660886E-02  0.23615695314E-01  0.00000000000E+00 0. -1.
     999901    1    3    3    0    0  0.55350356070E-01 -0.74943395707E-01  0.86102586864E-01  0.88909719938E+00  0.88000000000E+00 0. -1.
        -11    1    4    4    0    0 -0.23546048041E-01  0.21118368522E-01 -0.42457491567E-01  0.52946214015E-01  0.51100000000E-03 0.  1.
         11    1    4    4    0    0 -0.49946009507E-01  0.38895230735E-01 -0.46028561385E-01  0.78270891293E-01  0.51100000000E-03 0. -1.
</event>
<event>
 8    1  0.1066842E+005  0.1043930E+01  0.7957747E-01            NaN
         13   -1    0    0    0    0  0.00000000000E+00  0.00000000000E+00  0.74505805969E-08  0.10566000000E+00  0.10566000000E+00 0. -1.
     999900   -1    0    0    0    0 -0.00000000000E+00 -0.00000000000E+00 -0.74505805969E-08  0.93827000000E+00  0.93827000000E+00 0. -1.
     999902    2    1    2    0    0 -0.10326534518E-01  0.12936749982E-01  0.17462476971E-01  0.10198689336E+01  0.10195850660E+01 0.  0.
     999903    2    3    3    0    0 -0.71363058097E-01  0.10475978404E+00  0.37691576655E-01  0.13275781130E+00  0.11691154706E-01 0.  0.
         14    1    1    2    0    0  0.10326534518E-01 -0.12936749982E-01 -0.17462476971E-01  0.24061066419E-01  0.00000000000E+00 0.  1.
     999901    1    3    3    0    0  0.61036523579E-01 -0.91823034058E-01 -0.20229099684E-01  0.88711112228E+00  0.88000000000E+00 0. -1.
        -11    1    4    4    0    0 -0.22351069748E-01  0.36637008908E-01  0.18085879299E-01  0.46574680800E-01  0.51100000000E-03 0. -1.
         11    1    4    4    0    0 -0.49011988349E-01  0.68122775132E-01  0.19605697356E-01  0.86183130503E-01  0.51100000000E-03 0.  1.
</event>
<event>
 8    1  0.1066842E+005  0.1043930E+01  0.7957747E-01            NaN
         13   -1    0    0    0    0  0.00000000000E+00  0.00000000000E+00  0.74505805969E-08  0.10566000000E+00  0.10566000000E+00 0. -1.
     999900   -1    0    0    0    0 -0.00000000000E+00 -0.00000000000E+00 -0.74505805969E-08  0.93827000000E+00  0.93827000000E+00 0. -1.
     999902    2    1    2    0    0 -0.16836676965E-01  0.65884600403E-02 -0.11688481562E-01  0.10224009011E+01  0.10221742026E+01 0.  0.
     999903    2    3    3    0    0 -0.85620646080E-01 -0.41889118131E-01 -0.92608077323E-01  0.13469076208E+00  0.21903245227E-01 0.  0.
         14    1    1    2    0    0  0.16836676965E-01 -0.65884600403E-02  0.11688481562E-01  0.21529098870E-01  0.00000000000E+00 0. -1.
     999901    1    3    3    0    0  0.68783969114E-01  0.48477578171E-01  0.80919595761E-01  0.88771013905E+00  0.88000000000E+00 0.  1.
        -11    1    4    4    0    0 -0.17169435176E-01 -0.14165748284E-01 -0.32870914163E-01  0.39701587470E-01  0.51100000000E-03 0. -1.
         11    1    4    4    0    0 -0.68451210903E-01 -0.27723369846E-01 -0.59737163161E-01  0.94989174611E-01  0.51100000000E-03 0.  1.
</event>
<event>
 8    1  0.1066842E+005  0.1043930E+01  0.7957747E-01            NaN
         13   -1    0    0    0    0  0.00000000000E+00  0.00000000000E+00  0.74505805969E-08  0.10566000000E+00  0.10566000000E+00 0.  1.
     999900   -1    0    0    0    0 -0.00000000000E+00 -0.00000000000E+00 -0.74505805969E-08  0.93827000000E+00  0.93827000000E+00 0. -1.
     999902    2    1    2    0    0 -0.20250558530E-01  0.21119182015E-02 -0.43745536544E-04  0.10235695670E+01  0.10233670462E+01 0.  0.
     999903    2    3    3    0    0  0.11311943346E+00 -0.18850257457E-01 -0.61012861693E-01  0.13118837001E+00  0.18343410294E-01 0.  0.
         14    1    1    2    0    0  0.20250558530E-01 -0.21119182015E-02  0.43745536544E-04  0.20360433025E-01  0.00000000000E+00 0.  1.
     999901    1    3    3    0    0 -0.13336999199E+00  0.20962175659E-01  0.60969116157E-01  0.89238119697E+00  0.88000000000E+00 0.  1.
        -11    1    4    4    0    0  0.29108396636E-01 -0.11940646009E-01 -0.21360423317E-01  0.38031652437E-01  0.51100000000E-03 0. -1.
         11    1    4    4    0    0  0.84011036825E-01 -0.69096114482E-02 -0.39652438376E-01  0.93156717573E-01  0.51100000000E-03 0.  1.
</event>
<event>
 8    1  0.1066842E+005  0.1043930E+01  0.7957747E-01            NaN
         13   -1    0    0    0    0  0.00000000000E+00  0.00000000000E+00  0.74505805969E-08  0.10566000000E+00  0.10566000000E+00 0. -1.
     999900   -1    0    0    0    0 -0.00000000000E+00 -0.00000000000E+00 -0.74505805969E-08  0.93827000000E+00  0.93827000000E+00 0.  1.
     999902    2    1    2    0    0  0.20983654632E-01 -0.83746182521E-02  0.71494939437E-02  0.10202326741E+01  0.10199574236E+01 0.  0.
     999903    2    3    3    0    0  0.27162834442E-01  0.73901592818E-01 -0.10111588767E+00  0.12976709359E+00  0.20391440428E-01 0.  0.
         14    1    1    2    0    0 -0.20983654632E-01  0.83746182521E-02 -0.71494939437E-02  0.23697325930E-01  0.00000000000E+00 0.  1.
     999901    1    3    3    0    0 -0.61791798099E-02 -0.82276211070E-01  0.10826538161E+00  0.89046558048E+00  0.88000000000E+00 0. -1.
        -11    1    4    4    0    0  0.39136535989E-03  0.59642295778E-02 -0.18776515111E-01  0.19711515467E-01  0.51100000000E-03 0.  1.
         11    1    4    4    0    0  0.26771469082E-01  0.67937363240E-01 -0.82339372559E-01  0.11005557812E+00  0.51100000000E-03 0. -1.
</event>
<event>
 8    1  0.1066842E+005  0.1043930E+01  0.7957747E-01            NaN
         13   -1    0    0    0    0  0.00000000000E+00  0.00000000000E+00  0.74505805969E-08  0.10566000000E+00  0.10566000000E+00 0.  1.
     999900   -1    0    0    0    0 -0.00000000000E+00 -0.00000000000E+00 -0.74505805969E-08  0.93827000000E+00  0.93827000000E+00 0.  1.
     999902    2    1    2    0    0 -0.18501188142E-01  0.46257086673E-02  0.19391337586E-01  0.10167322957E+01  0.10163684598E+01 0.  0.
     999903    2    3    3    0    0 -0.16713785210E-01  0.71348156196E-01  0.10543962060E+00  0.13001961013E+00  0.20437108875E-01 0.  0.
         14    1    1    2    0    0  0.18501188142E-01 -0.46257086673E-02 -0.19391337586E-01  0.27197704255E-01  0.00000000000E+00 0. -1.
     999901    1    3    3    0    0 -0.17874029326E-02 -0.66722447529E-01 -0.86048283012E-01  0.88671268561E+00  0.88000000000E+00 0.  1.
        -11    1    4    4    0    0 -0.64141330111E-02  0.34542923877E-01  0.67860824576E-01  0.76417977763E-01  0.51100000000E-03 0.  1.
         11    1    4    4    0    0 -0.10299652199E-01  0.36805232319E-01  0.37578796022E-01  0.53601632372E-01  0.51100000000E-03 0. -1.
</event>
<event>
 8    1  0.1066842E+005  0.1043930E+01  0.7957747E-01            NaN
         13   -1    0    0    0    0  0.00000000000E+00  0.00000000000E+00  0.74505805969E-08  0.10566000000E+00  0.10566000000E+00 0. -1.
     999900   -1    0    0    0    0 -0.00000000000E+00 -0.00000000000E+00 -0.74505805969E-08  0.93827000000E+00  0.93827000000E+00 0. -1.
     999902    2    1    2    0    0  0.21425449707E-01 -0.51045874317E-02  0.84088720360E-02  0.10203542532E+01  0.10200818527E+01 0.  0.
     999903    2    3    3    0    0  0.12774150082E+00 -0.21184297339E-01 -0.24066622588E-01  0.13321485179E+00  0.20008221532E-01 0.  0.
         14    1    1    2    0    0 -0.21425449707E-01  0.51045874317E-02 -0.84088720360E-02  0.23575746794E-01  0.00000000000E+00 0. -1.
     999901    1    3    3    0    0 -0.10631605111E+00  0.16079709908E-01  0.32475494624E-01  0.88713940142E+00  0.88000000000E+00 0. -1.
        -11    1    4    4    0    0  0.37944799283E-01 -0.14058300740E-01 -0.12731660353E-01  0.42424048707E-01  0.51100000000E-03 0. -1.
         11    1    4    4    0    0  0.89796701537E-01 -0.71259965988E-02 -0.11334962236E-01  0.90790803082E-01  0.51100000000E-03 0.  1.
</event>
<event>
 7    1  0.1066842E+005  0.1043930E+01  0.7957747E-01            NaN
         13   -1    0    0    0    0  0.00000000000E+00  0.00000000000E+00  0.74505805969E-08  0.10566000000E+00  0.10566000000E+00 0.  1.
     999900   -1    0    0    0    0 -0.00000000000E+00 -0.00000000000E+00 -0.74505805969E-08  0.93827000000E+00  0.93827000000E+00 0.  1.
     999903    2    1    2    0    0  0.37004885668E-01  0.74025987500E-01  0.13224473322E-01  0.86233932916E-01  0.20302613201E-01 0.  0.
         14    1    1    2    0    0 -0.16696901070E-01  0.23956836480E-01 -0.64231239729E-01  0.70557555772E-01  0.00000000000E+00 0. -1.
     999901    1    1    2    0    0 -0.20307984598E-01 -0.97982823980E-01  0.51006766407E-01  0.88713851131E+00  0.88000000000E+00 0. -1.
        -11    1    3    3    0    0  0.16711061309E-01  0.53287551518E-01  0.50082119246E-02  0.56072863531E-01  0.51100000000E-03 0. -1.
         11    1    3    3    0    0  0.20293824359E-01  0.20738435982E-01  0.82162613973E-02  0.30161069385E-01  0.51100000000E-03 0.  1.
</event>
<event>
 8    1  0.1066842E+005  0.1043930E+01  0.7957747E-01            NaN
         13   -1    0    0    0    0  0.00000000000E+00  0.00000000000E+00  0.74505805969E-08  0.10566000000E+00  0.10566000000E+00 0.  1.
     999900   -1    0    0    0    0 -0.00000000000E+00 -0.00000000000E+00 -0.74505805969E-08  0.93827000000E+00  0.93827000000E+00 0. -1.
     999902    2    1    2    0    0 -0.11129984380E-01  0.28608875203E-01  0.12558060796E-01  0.10107630106E+01  0.10102186964E+01 0.  0.
     999903    2    3    3    0    0  0.26611819138E-01 -0.59892522555E-01  0.99540497231E-01  0.12125590814E+00  0.22346845284E-01 0.  0.
         14    1    1    2    0    0  0.11129984380E-01 -0.28608875203E-01 -0.12558060796E-01  0.33166989367E-01  0.00000000000E+00 0.  1.
     999901    1    3    3    0    0 -0.37741803518E-01  0.88501397758E-01 -0.86982436435E-01  0.88950710249E+00  0.88000000000E+00 0. -1.
        -11    1    4    4    0    0  0.22514927111E-01 -0.32778367758E-01  0.43979127159E-01  0.59293912693E-01  0.51100000000E-03 0. -1.
         11    1    4    4    0    0  0.40968920267E-02 -0.27114154797E-01  0.55561370072E-01  0.61961995448E-01  0.51100000000E-03 0.  1.
</event>
<event>
 8    1  0.1066842E+005  0.1043930E+01  0.7957747E-01            NaN
         13   -1    0    0    0    0  0.00000000000E+00  0.00000000000E+00  0.74505805969E-08  0.10566000000E+00  0.10566000000E+00 0.  1.
     999900   -1    0    0    0    0 -0.00000000000E+00 -0.00000000000E+00 -0.74505805969E-08  0.93827000000E+00  0.93827000000E+00 0.  1.
     999902    2    1    2    0    0  0.25320442907E-01  0.18686488452E-02  0.30375814270E-02  0.10183596348E+01  0.10180385563E+01 0.  0.
     999903    2    3    3    0    0  0.88346768024E-01 -0.17184246685E-01  0.93551974121E-01  0.13126990662E+00  0.19477339865E-01 0.  0.
         14    1    1    2    0    0 -0.25320442907E-01 -0.18686488452E-02 -0.30375814270E-02  0.25570365239E-01  0.00000000000E+00 0. -1.
     999901    1    3    3    0    0 -0.63026325116E-01  0.19052895530E-01 -0.90514392694E-01  0.88708972814E+00  0.88000000000E+00 0.  1.
        -11    1    4    4    0    0  0.24515204066E-02 -0.22708362870E-02 -0.16322393982E-04  0.33805379996E-02  0.51100000000E-03 0. -1.
         11    1    4    4    0    0  0.85895247617E-01 -0.14913410398E-01  0.93568296515E-01  0.12788936862E+00  0.51100000000E-03 0.  1.
</event>
<event>
 8    1  0.1066842E+005  0.1043930E+01  0.7957747E-01            NaN
         13   -1    0    0    0    0  0.00000000000E+00  0.00000000000E+00  0.74505805969E-08  0.10566000000E+00  0.10566000000E+00 0. -1.
     999900   -1    0    0    0    0 -0.00000000000E+00 -0.00000000000E+00 -0.74505805969E-08  0.93827000000E+00  0.93827000000E+00 0. -1.
     999902    2    1    2    0    0 -0.10917094914E-01  0.20019599149E-01  0.44823903145E-02  0.10206908276E+01  0.10204262376E+01 0.  0.
     999903    2    3    3    0    0  0.11052443106E+00 -0.61996696653E-01  0.84711563128E-02  0.12856380341E+00  0.19941183553E-01 0.  0.
         14    1    1    2    0    0  0.10917094914E-01 -0.20019599149E-01 -0.44823903145E-02  0.23239172412E-01  0.00000000000E+00 0. -1.
     999901    1    3    3    0    0 -0.12144152598E+00  0.82016295802E-01 -0.39887659984E-02  0.89212702417E+00  0.88000000000E+00 0. -1.
        -11    1    4    4    0    0  0.77552906951E-01 -0.32921321573E-01  0.75590528057E-02  0.84591176791E-01  0.51100000000E-03 0.  1.
         11    1    4    4    0    0  0.32971524111E-01 -0.29075375081E-01  0.91210350717E-03  0.43972626623E-01  0.51100000000E-03 0. -1.
</event>
<event>
 8    1  0.1066842E+005  0.1043930E+01  0.7957747E-01            NaN
         13   -1    0    0    0    0  0.00000000000E+00  0.00000000000E+00  0.74505805969E-08  0.10566000000E+00  0.10566000000E+00 0. -1.
     999900   -1    0    0    0    0 -0.00000000000E+00 -0.00000000000E+00 -0.74505805969E-08  0.93827000000E+00  0.93827000000E+00 0. -1.
     999902    2    1    2    0    0  0.31240036144E-02  0.13348185101E-01  0.19179903609E-01  0.10203545436E+01  0.10200821498E+01 0.  0.
     999903    2    3    3    0    0  0.53416819077E-01  0.10009376912E+00 -0.62074689332E-01  0.13094098817E+00  0.20497710844E-01 0.  0.
         14    1    1    2    0    0 -0.31240036144E-02 -0.13348185101E-01 -0.19179903609E-01  0.23575456444E-01  0.00000000000E+00 0. -1.
     999901    1    3    3    0    0 -0.50292815462E-01 -0.86745584019E-01  0.81254592941E-01  0.88941355539E+00  0.88000000000E+00 0.  1.
        -11    1    4    4    0    0  0.12308006199E-01  0.99763952032E-02 -0.12430974980E-01  0.20144620567E-01  0.51100000000E-03 0.  1.
         11    1    4    4    0    0  0.41108812878E-01  0.90117373917E-01 -0.49643714352E-01  0.11079636760E+00  0.51100000000E-03 0. -1.
</event>
<event>
 8    1  0.1066842E+005  0.1043930E+01  0.7957747E-01            NaN
         13   -1    0    0    0    0  0.00000000000E+00  0.00000000000E+00  0.74505805969E-08  0.10566000000E+00  0.10566000000E+00 0.  1.
     999900   -1    0    0    0    0 -0.00000000000E+00 -0.00000000000E+00 -0.74505805969E-08  0.93827000000E+00  0.93827000000E+00 0.  1.
     999902    2    1    2    0    0  0.33904325678E-02  0.10844225438E-01 -0.25526031839E-01  0.10159895175E+01  0.10156052526E+01 0.  0.
     999903    2    3    3    0    0 -0.52935176820E-01 -0.68928682663E-01 -0.91925093410E-01  0.12810150292E+00  0.20161250286E-01 0.  0.
         14    1    1    2    0    0 -0.33904325678E-02 -0.10844225438E-01  0.25526031839E-01  0.27940482455E-01  0.00000000000E+00 0.  1.
     999901    1    3    3    0    0  0.56325609388E-01  0.79772908101E-01  0.66399061570E-01  0.88788801463E+00  0.88000000000E+00 0. -1.
        -11    1    4    4    0    0 -0.40586623211E-02 -0.26668144102E-02 -0.13635038361E-01  0.14483094664E-01  0.51100000000E-03 0. -1.
         11    1    4    4    0    0 -0.48876514499E-01 -0.66261868252E-01 -0.78290055048E-01  0.11361840825E+00  0.51100000000E-03 0.  1.
</event>
<event>
 8    1  0.1066842E+005  0.1043930E+01  0.7957747E-01            NaN
         13   -1    0    0    0    0  0.00000000000E+00  0.00000000000E+00  0.74505805969E-08  0.10566000000E+00  0.10566000000E+00 0. -1.
     999900   -1    0    0    0    0 -0.00000000000E+00 -0.00000000000E+00 -0.74505805969E-08  0.93827000000E+00  0.93827000000E+00 0.  1.
     999902    2    1    2    0    0 -0.12568403792E-01  0.14663541648E-01  0.13574474587E-01  0.10203238443E+01  0.10200507324E+01 0.  0.
     999903    2    3    3    0    0 -0.34107011506E-01 -0.12114468055E+00 -0.19907133593E-01  0.12901648824E+00  0.20239525976E-01 0.  0.
         14    1    1    2    0    0  0.12568403792E-01 -0.14663541648E-01 -0.13574474587E-01  0.23606155720E-01  0.00000000000E+00 0.  1.
     999901    1    3    3    0    0  0.21538607714E-01  0.13580822220E+00  0.33481608180E-01  0.89130735604E+00  0.88000000000E+00 0. -1.
        -11    1    4    4    0    0 -0.12528928545E-01 -0.69968399646E-01 -0.37924348838E-02  0.71184230577E-01  0.51100000000E-03 0. -1.
         11    1    4    4    0    0 -0.21578082962E-01 -0.51176280902E-01 -0.16114698710E-01  0.57832257666E-01  0.51100000000E-03 0.  1.
</event>
<event>
 8    1  0.1066842E+005  0.1043930E+01  0.7957747E-01            NaN
         13   -1    0    0    0    0  0.00000000000E+00  0.00000000000E+00  0.74505805969E-08  0.10566000000E+00  0.10566000000E+00 0.  1.
     999900   -1    0    0    0    0 -0.00000000000E+00 -0.00000000000E+00 -0.74505805969E-08  0.93827000000E+00  0.93827000000E+00 0. -1.
     999902    2    1    2    0    0  0.19811052538E-01 -0.11692713868E-01  0.43089390743E-02  0.10205256347E+01  0.10202572258E+01 0.  0.
     999903    2    3    3    0    0 -0.57136822419E-01  0.10444214784E+00 -0.43197514839E-01  0.12830080610E+00  0.20549764891E-01 0.  0.
         14    1    1    2    0    0 -0.19811052538E-01  0.11692713868E-01 -0.43089390743E-02  0.23404365324E-01  0.00000000000E+00 0. -1.
     999901    1    3    3    0    0  0.76947874958E-01 -0.11613486170E+00  0.47506453914E-01  0.89222482858E+00  0.88000000000E+00 0.  1.
        -11    1    4    4    0    0 -0.90051929091E-02  0.35775427509E-01 -0.15036642097E-01  0.39841391032E-01  0.51100000000E-03 0.  1.
         11    1    4    4    0    0 -0.48131629510E-01  0.68666720326E-01 -0.28160872742E-01  0.88459415068E-01  0.51100000000E-03 0. -1.
</event>
<event>
 8    1  0.1066842E+005  0.1043930E+01  0.7957747E-01            NaN
         13   -1    0    0    0    0  0.00000000000E+00  0.00000000000E+00  0.74505805969E-08  0.10566000000E+00  0.10566000000E+00 0. -1.
     999900   -1    0    0    0    0 -0.00000000000E+00 -0.00000000000E+00 -0.74505805969E-08  0.93827000000E+00  0.93827000000E+00 0. -1.
     999902    2    1    2    0    0  0.40624264574E-02 -0.94062583962E-02 -0.20328751993E-01  0.10211651331E+01  0.10209113526E+01 0.  0.
     999903    2    3    3    0    0  0.35313131060E-01 -0.97500445676E-01  0.76779721083E-01  0.13090267301E+00  0.22068758432E-01 0.  0.
         14    1    1    2    0    0 -0.40624264574E-02  0.94062583962E-02  0.20328751993E-01  0.22764866864E-01  0.00000000000E+00 0. -1.
     999901    1    3    3    0    0 -0.31250704603E-01  0.88094187279E-01 -0.97108473076E-01  0.89026246013E+00  0.88000000000E+00 0.  1.
        -11    1    4    4    0    0  0.18667490540E-01 -0.69175204066E-01  0.41989552747E-01  0.83048586511E-01  0.51100000000E-03 0. -1.
         11    1    4    4    0    0  0.16645640520E-01 -0.28325241610E-01  0.34790168336E-01  0.47854086497E-01  0.51100000000E-03 0.  1.
</event>
<event>
 8    1  0.1066842E+005  0.1043930E+01  0.7957747E-01            NaN
         13   -1    0    0    0    0  0.00000000000E+00  0.00000000000E+00  0.74505805969E-08  0.10566000000E+00  0.10566000000E+00 0. -1.
     999900   -1    0    0    0    0 -0.00000000000E+00 -0.00000000000E+00 -0.74505805969E-08  0.93827000000E+00  0.93827000000E+00 0.  1.
     999902    2    1    2    0    0 -0.23419241026E-01  0.74446968531E-02  0.62468941745E-03  0.10193480026E+01  0.10190515569E+01 0.  0.
     999903    2    3    3    0    0 -0.33141029052E-01 -0.66580799321E-01 -0.10508334238E+00  0.12988272767E+00  0.17195448663E-01 0.  0.
         14    1    1    2    0    0  0.23419241026E-01 -0.74446968531E-02 -0.62468941745E-03  0.24581997444E-01  0.00000000000E+00 0. -1.
     999901    1    3    3    0    0  0.97217880260E-02  0.74025496174E-01  0.10570803180E+00  0.88946527489E+00  0.88000000000E+00 0. -1.
        -11    1    4    4    0    0 -0.26115937865E-01 -0.54564863939E-01 -0.72346626576E-01  0.94306214457E-01  0.51100000000E-03 0. -1.
         11    1    4    4    0    0 -0.70250911877E-02 -0.12015935382E-01 -0.32736715807E-01  0.35576513210E-01  0.51100000000E-03 0.  1.
</event>
<event>
 8    1  0.1066842E+005  0.1043930E+01  0.7957747E-01            NaN
         13   -1    0    0    0    0  0.00000000000E+00  0.00000000000E+00  0.74505805969E-08  0.10566000000E+00  0.10566000000E+00 0.  1.
     999900   -1    0    0    0    0 -0.00000000000E+00 -0.00000000000E+00 -0.74505805969E-08  0.93827000000E+00  0.93827000000E+00 0. -1.
     999902    2    1    2    0    0  0.21852717816E-01 -0.23104812842E-02 -0.87703206242E-02  0.10202699467E+01  0.10199955715E+01 0.  0.
     999903    2    3    3    0    0 -0.11919138556E-01  0.12529016831E+00 -0.26629793419E-01  0.13024667460E+00  0.20380338742E-01 0.  0.
         14    1    1    2    0    0 -0.21852717816E-01  0.23104812842E-02  0.87703206242E-02  0.23660053330E-01  0.00000000000E+00 0.  1.
     999901    1    3    3    0    0  0.33771856372E-01 -0.12760064960E+00  0.17859472794E-01  0.89002327207E+00  0.88000000000E+00 0.  1.
        -11    1    4    4    0    0  0.20296887524E-02  0.30773812083E-01 -0.14002222324E-01  0.33874333905E-01  0.51100000000E-03 0.  1.
         11    1    4    4    0    0 -0.13948827309E-01  0.94516356229E-01 -0.12627571095E-01  0.96372340694E-01  0.51100000000E-03 0. -1.
</event>
<event>
 8    1  0.1066842E+005  0.1043930E+01  0.7957747E-01            NaN
         13   -1    0    0    0    0  0.00000000000E+00  0.00000000000E+00  0.74505805969E-08  0.10566000000E+00  0.10566000000E+00 0.  1.
     999900   -1    0    0    0    0 -0.00000000000E+00 -0.00000000000E+00 -0.74505805969E-08  0.93827000000E+00  0.93827000000E+00 0.  1.
     999902    2    1    2    0    0  0.15100625762E-02 -0.19592914043E-01  0.13485172685E-01  0.10200969882E+01  0.10198185392E+01 0.  0.
     999903    2    3    3    0    0 -0.11942646418E+00 -0.77108245059E-02 -0.46264521075E-01  0.12973927723E+00  0.19228546066E-01 0.  0.
         14    1    1    2    0    0 -0.15100625762E-02  0.19592914043E-01 -0.13485172685E-01  0.23833011812E-01  0.00000000000E+00 0. -1.
     999901    1    3    3    0    0  0.12093652676E+00 -0.11882089537E-01  0.59749693760E-01  0.89035771096E+00  0.88000000000E+00 0. -1.
        -11    1    4    4    0    0 -0.41509647123E-01  0.30834524974E-02 -0.85210062691E-02  0.42490318338E-01  0.51100000000E-03 0.  1.
         11    1    4    4    0    0 -0.77916817061E-01 -0.10794277003E-01 -0.37743514806E-01  0.87248958893E-01  0.51100000000E-03 0. -1.
</event>
<event>
 8    1  0.1066842E+005  0.1043930E+01  0.7957747E-01            NaN
         13   -1    0    0    0    0  0.00000000000E+00  0.00000000000E+00  0.74505805969E-08  0.10566000000E+00  0.10566000000E+00 0. -1.
     999900   -1    0    0    0    0 -0.00000000000E+00 -0.00000000000E+00 -0.74505805969E-08  0.93827000000E+00  0.93827000000E+00 0.  1.
     999902    2    1    2    0    0  0.12021002759E-01  0.26841080619E-02  0.20245007380E-01  0.10202325472E+01  0.10199572938E+01 0.  0.
     999903    2    3    3    0    0  0.14398603452E-01  0.29613134979E-01 -0.12242080926E+00  0.12833324759E+00  0.19957714163E-01 0.  0.
         14    1    1    2    0    0 -0.12021002759E-01 -0.26841080619E-02 -0.20245007380E-01  0.23697452758E-01  0.00000000000E+00 0.  1.
     999901    1    3    3    0    0 -0.23776006933E-02 -0.26929026917E-01  0.14266581664E+00  0.89189929965E+00  0.88000000000E+00 0. -1.
        -11    1    4    4    0    0  0.97794259480E-02  0.28140688621E-01 -0.75607541573E-01  0.81266825899E-01  0.51100000000E-03 0.  1.
         11    1    4    4    0    0  0.46191775039E-02  0.14724463578E-02 -0.46813267682E-01  0.47066421695E-01  0.51100000000E-03 0. -1.
</event>
<event>
 8    1  0.1066842E+005  0.1043930E+01  0.7957747E-01            NaN
         13   -1    0    0    0    0  0.00000000000E+00  0.00000000000E+00  0.74505805969E-08  0.10566000000E+00  0.10566000000E+00 0.  1.
     999900   -1    0    0    0    0 -0.00000000000E+00 -0.00000000000E+00 -0.74505805969E-08  0.93827000000E+00  0.93827000000E+00 0.  1.
     999902    2    1    2    0    0 -0.63784111669E-02 -0.14810739539E-01  0.18531743601E-01  0.10193644213E+01  0.10190683764E+01 0.  0.
     999903    2    3    3    0    0  0.60811742539E-02 -0.11937356252E+00 -0.48332406021E-01  0.13056779683E+00  0.20613102329E-01 0.  0.
         14    1    1    2    0    0  0.63784111669E-02  0.14810739539E-01 -0.18531743601E-01  0.24565578675E-01  0.00000000000E+00 0.  1.
     999901    1    3    3    0    0 -0.12459585421E-01  0.10456282298E+00  0.66864149623E-01  0.88879662450E+00  0.88000000000E+00 0. -1.
        -11    1    4    4    0    0  0.93069468298E-02 -0.76203632657E-01 -0.21863086452E-01  0.79823984865E-01  0.51100000000E-03 0.  1.
         11    1    4    4    0    0 -0.32257725759E-02 -0.43169929860E-01 -0.26469319570E-01  0.50743811961E-01  0.51100000000E-03 0. -1.
</event>
<event>
 8    1  0.1066842E+005  0.1043930E+01  0.7957747E-01            NaN
         13   -1    0    0    0    0  0.00000000000E+00  0.00000000000E+00  0.74505805969E-08  0.10566000000E+00  0.10566000000E+00 0.  1.
     999900   -1    0    0    0    0 -0.00000000000E+00 -0.00000000000E+00 -0.74505805969E-08  0.93827000000E+00  0.93827000000E+00 0.  1.
     999902    2    1    2    0    0  0.19630010975E-01  0.93482001612E-02 -0.10389418794E-01  0.10198329836E+01  0.10195482569E+01 0.  0.
     999903    2    3    3    0    0  0.47365745033E-01 -0.58057322244E-01 -0.10646758280E+00  0.13160790570E+00  0.19264687538E-01 0.  0.
         14    1    1    2    0    0 -0.19630010975E-01 -0.93482001612E-02  0.10389418794E-01  0.24097016413E-01  0.00000000000E+00 0. -1.
     999901    1    3    3    0    0 -0.27735734058E-01  0.67405522406E-01  0.96078164006E-01  0.88822507789E+00  0.88000000000E+00 0. -1.
        -11    1    4    4    0    0  0.31418529587E-01 -0.50958822330E-01 -0.80782313478E-01  0.10054834094E+00  0.51100000000E-03 0.  1.
         11    1    4    4    0    0  0.15947215445E-01 -0.70984999140E-02 -0.25685269322E-01  0.31059564753E-01  0.51100000000E-03 0. -1.
</event>
<event>
 8    1  0.1066842E+005  0.1043930E+01  0.7957747E-01            NaN
         13   -1    0    0    0    0  0.00000000000E+00  0.00000000000E+00  0.74505805969E-08  0.10566000000E+00  0.10566000000E+00 0. -1.
     999900   -1    0    0    0    0 -0.00000000000E+00 -0.00000000000E+00 -0.74505805969E-08  0.93827000000E+00  0.93827000000E+00 0. -1.
     999902    2    1    2    0    0  0.21266560009E-01  0.10217030557E-01 -0.44773329025E-02  0.10199154045E+01  0.10196326454E+01 0.  0.
     999903    2    3    3    0    0 -0.68481399549E-01  0.49019985933E-02  0.10668640719E+00  0.12837722643E+00  0.19621190392E-01 0.  0.
         14    1    1    2    0    0 -0.21266560009E-01 -0.10217030557E-01  0.44773329025E-02  0.24014595519E-01  0.00000000000E+00 0. -1.
     999901    1    3    3    0    0  0.89747959558E-01  0.53150319633E-02 -0.11116374009E+00  0.89153817805E+00  0.88000000000E+00 0. -1.
        -11    1    4    4    0    0 -0.52178397749E-01  0.65579555864E-02  0.65187566260E-01  0.83757219922E-01  0.51100000000E-03 0.  1.
         11    1    4    4    0    0 -0.16303001800E-01 -0.16559569931E-02  0.41498840931E-01  0.44620006509E-01  0.51100000000E-03 0. -1.
</event>
<event>
 8    1  0.1066842E+005  0.1043930E+01  0.7957747E-01            NaN
         13   -1    0    0    0    0  0.00000000000E+00  0.00000000000E+00  0.74505805969E-08  0.10566000000E+00  0.10566000000E+00 0.  1.
     999900   -1    0    0    0    0 -0.00000000000E+00 -0.00000000000E+00 -0.74505805969E-08  0.93827000000E+00  0.93827000000E+00 0.  1.
     999902    2    1    2    0    0 -0.17616525916E-01  0.46213291430E-02 -0.15217035780E-01  0.10201969672E+01  0.10199208768E+01 0.  0.
     999903    2    3    3    0    0 -0.86809338530E-01 -0.51094464302E-01 -0.84622258978E-01  0.13300534191E+00  0.19570097712E-01 0.  0.
         14    1    1    2    0    0  0.17616525916E-01 -0.46213291430E-02  0.15217035780E-01  0.23733032809E-01  0.00000000000E+00 0. -1.
     999901    1    3    3    0    0  0.69192812614E-01  0.55715793445E-01  0.69405223198E-01  0.88719162528E+00  0.88000000000E+00 0. -1.
        -11    1    4    4    0    0 -0.47861780041E-01 -0.18977001788E-01 -0.35310514548E-01  0.62433726015E-01  0.51100000000E-03 0.  1.
         11    1    4    4    0    0 -0.38947558489E-01 -0.32117462514E-01 -0.49311744430E-01  0.70571615897E-01  0.51100000000E-03 0. -1.
</event>
<event>
 8    1  0.1066842E+005  0.1043930E+01  0.7957747E-01            NaN
         13   -1    0    0    0    0  0.00000000000E+00  0.00000000000E+00  0.74505805969E-08  0.10566000000E+00  0.10566000000E+00 0. -1.
     999900   -1    0    0    0    0 -0.00000000000E+00 -0.00000000000E+00 -0.74505805969E-08  0.93827000000E+00  0.93827000000E+00 0.  1.
     999902    2    1    2    0    0  0.16199103563E-01  0.15236094655E-01  0.91789347707E-02  0.10198716879E+01  0.10195878861E+01 0.  0.
     999903    2    3    3    0    0  0.75947761242E-01 -0.58504110257E-01 -0.85225264628E-01  0.12974828480E+00  0.19505853573E-01 0.  0.
         14    1    1    2    0    0 -0.16199103563E-01 -0.15236094655E-01 -0.91789347707E-02  0.24058312079E-01  0.00000000000E+00 0.  1.
     999901    1    3    3    0    0 -0.59748657679E-01  0.73740204911E-01  0.94404199399E-01  0.89012340312E+00  0.88000000000E+00 0. -1.
        -11    1    4    4    0    0  0.53416074590E-01 -0.29896733347E-01 -0.49395033320E-01  0.78658897317E-01  0.51100000000E-03 0.  1.
         11    1    4    4    0    0  0.22531686652E-01 -0.28607376910E-01 -0.35830231308E-01  0.51089387485E-01  0.51100000000E-03 0. -1.
</event>
<event>
 8    1  0.1066842E+005  0.1043930E+01  0.7957747E-01            NaN
         13   -1    0    0    0    0  0.00000000000E+00  0.00000000000E+00  0.74505805969E-08  0.10566000000E+00  0.10566000000E+00 0.  1.
     999900   -1    0    0    0    0 -0.00000000000E+00 -0.00000000000E+00 -0.74505805969E-08  0.93827000000E+00  0.93827000000E+00 0. -1.
     999902    2    1    2    0    0  0.20979146195E-01  0.16986634310E-02  0.10090501215E-01  0.10205884438E+01  0.10203214902E+01 0.  0.
     999903    2    3    3    0    0  0.10277789404E+00 -0.81720199321E-01  0.37011221867E-02  0.13284379243E+00  0.19806271779E-01 0.  0.
         14    1    1    2    0    0 -0.20979146195E-01 -0.16986634310E-02 -0.10090501215E-01  0.23341556231E-01  0.00000000000E+00 0.  1.
     999901    1    3    3    0    0 -0.81798747846E-01  0.83418862752E-01  0.63893790279E-02  0.88774465134E+00  0.88000000000E+00 0.  1.
        -11    1    4    4    0    0  0.82698715394E-01 -0.60947357260E-01 -0.44248419589E-02  0.10282751690E+00  0.51100000000E-03 0.  1.
         11    1    4    4    0    0  0.20079178647E-01 -0.20772842062E-01  0.81259641456E-02  0.30016275531E-01  0.51100000000E-03 0. -1.
</event>
<event>
 8    1  0.1066842E+005  0.1043930E+01  0.7957747E-01            NaN
         13   -1    0    0    0    0  0.00000000000E+00  0.00000000000E+00  0.74505805969E-08  0.10566000000E+00  0.10566000000E+00 0.  1.
     999900   -1    0    0    0    0 -0.00000000000E+00 -0.00000000000E+00 -0.74505805969E-08  0.93827000000E+00  0.93827000000E+00 0. -1.
     999902    2    1    2    0    0 -0.55855988120E-02 -0.14724215676E-01  0.17600627790E-01  0.10203125586E+01  0.10200391824E+01 0.  0.
     999903    2    3    3    0    0 -0.64357132143E-01 -0.53871202337E-01 -0.97102132135E-01  0.13006354687E+00  0.21065499263E-01 0.  0.
         14    1    1    2    0    0  0.55855988120E-02  0.14724215676E-01 -0.17600627790E-01  0.23617441436E-01  0.00000000000E+00 0. -1.
     999901    1    3    3    0    0  0.58771533331E-01  0.39146986661E-01  0.11470275993E+00  0.89024901170E+00  0.88000000000E+00 0.  1.
        -11    1    4    4    0    0 -0.51587465311E-01 -0.52282905452E-01 -0.85632499217E-01  0.11281823799E+00  0.51100000000E-03 0. -1.
         11    1    4    4    0    0 -0.12769666832E-01 -0.15882968859E-02 -0.11469632918E-01  0.17245308878E-01  0.51100000000E-03 0.  1.
</event>
<event>
 8    1  0.1066842E+005  0.1043930E+01  0.7957747E-01            NaN
         13   -1    0    0    0    0  0.00000000000E+00  0.00000000000E+00  0.74505805969E-08  0.10566000000E+00  0.10566000000E+00 0. -1.
     999900   -1    0    0    0    0 -0.00000000000E+00 -0.00000000000E+00 -0.74505805969E-08  0.93827000000E+00  0.93827000000E+00 0. -1.
     999902    2    1    2    0    0 -0.19884313250E-02 -0.24797799927E-01  0.92559182654E-02  0.10173865118E+01  0.10170401947E+01 0.  0.
     999903    2    3    3    0    0 -0.62884751864E-01  0.10692665185E+00  0.11919130332E-01  0.12549706480E+00  0.14820482909E-01 0.  0.
         14    1    1    2    0    0  0.19884313250E-02  0.24797799927E-01 -0.92559182654E-02  0.26543488152E-01  0.00000000000E+00 0.  1.
     999901    1    3    3    0    0  0.60896320539E-01 -0.13172445178E+00 -0.26632120665E-02  0.89188944704E+00  0.88000000000E+00 0.  1.
        -11    1    4    4    0    0 -0.22298499602E-01  0.49287373101E-01  0.63537699576E-03  0.54102985653E-01  0.51100000000E-03 0.  1.
         11    1    4    4    0    0 -0.40586252261E-01  0.57639278749E-01  0.11283753336E-01  0.71394079150E-01  0.51100000000E-03 0. -1.
</event>
<event>
 8    1  0.1066842E+005  0.1043930E+01  0.7957747E-01            NaN
         13   -1    0    0    0    0  0.00000000000E+00  0.00000000000E+00  0.74505805969E-08  0.10566000000E+00  0.10566000000E+00 0. -1.
     999900   -1    0    0    0    0 -0.00000000000E+00 -0.00000000000E+00 -0.74505805969E-08  0.93827000000E+00  0.93827000000E+00 0. -1.
     999902    2    1    2    0    0 -0.14462737638E-01 -0.13980698302E-01 -0.11903568339E-01  0.10205563900E+01  0.10202886942E+01 0.  0.
     999903    2    3    3    0    0  0.20535314011E-01  0.12442978057E+00 -0.18546276784E-01  0.12902599240E+00  0.19981814647E-01 0.  0.
         14    1    1    2    0    0  0.14462737638E-01  0.13980698302E-01  0.11903568339E-01  0.23373609995E-01  0.00000000000E+00 0. -1.
     999901    1    3    3    0    0 -0.34998051649E-01 -0.13841047888E+00  0.66427084450E-02  0.89153039761E+00  0.88000000000E+00 0.  1.
        -11    1    4    4    0    0  0.84203235878E-02  0.38463081103E-01 -0.14994904351E-01  0.42135718040E-01  0.51100000000E-03 0. -1.
         11    1    4    4    0    0  0.12114990423E-01  0.85966699471E-01 -0.35513724331E-02  0.86890274358E-01  0.51100000000E-03 0.  1.
</event>
<event>
 8    1  0.1066842E+005  0.1043930E+01  0.7957747E-01            NaN
         13   -1    0    0    0    0  0.00000000000E+00  0.00000000000E+00  0.74505805969E-08  0.10566000000E+00  0.10566000000E+00 0. -1.
     999900   -1    0    0    0    0 -0.00000000000E+00 -0.00000000000E+00 -0.74505805969E-08  0.93827000000E+00  0.93827000000E+00 0.  1.
     999902    2    1    2    0    0  0.82923225456E-03  0.21810799014E-01  0.58768970397E-02  0.10213260955E+01  0.10210759310E+01 0.  0.
     999903    2    3    3    0    0  0.23587191025E-01 -0.71840266469E-01  0.10444715178E+00  0.13059350832E+00  0.20690032208E-01 0.  0.
         14    1    1    2    0    0 -0.82923225456E-03 -0.21810799014E-01 -0.58768970397E-02  0.22603904499E-01  0.00000000000E+00 0. -1.
     999901    1    3    3    0    0 -0.22757958770E-01  0.93651065483E-01 -0.98570254740E-01  0.89073258718E+00  0.88000000000E+00 0.  1.
        -11    1    4    4    0    0 -0.29176902048E-02 -0.15054475826E-01  0.25974749516E-01  0.30167845331E-01  0.51100000000E-03 0.  1.
         11    1    4    4    0    0  0.26504881230E-01 -0.56785790643E-01  0.78472402264E-01  0.10042566299E+00  0.51100000000E-03 0. -1.
</event>
<event>
 8    1  0.1066842E+005  0.1043930E+01  0.7957747E-01            NaN
         13   -1    0    0    0    0  0.00000000000E+00  0.00000000000E+00  0.74505805969E-08  0.10566000000E+00  0.10566000000E+00 0.  1.
     999900   -1    0    0    0    0 -0.00000000000E+00 -0.00000000000E+00 -0.74505805969E-08  0.93827000000E+00  0.93827000000E+00 0.  1.
     999902    2    1    2    0    0 -0.15767034089E-01  0.12368506492E-01  0.68873286140E-02  0.10227400351E+01  0.10225204960E+01 0.  0.
     999903    2    3    3    0    0  0.99120544980E-01 -0.61154403494E-01 -0.54151570880E-01  0.13014240943E+00  0.20974045827E-01 0.  0.
         14    1    1    2    0    0  0.15767034089E-01 -0.12368506492E-01 -0.68873286140E-02  0.21189964895E-01  0.00000000000E+00 0. -1.
     999901    1    3    3    0    0 -0.11488757907E+00  0.73522909987E-01  0.61038899495E-01  0.89259762568E+00  0.88000000000E+00 0. -1.
        -11    1    4    4    0    0  0.65668826807E-01 -0.41706029076E-01 -0.46694440132E-01  0.90732681740E-01  0.51100000000E-03 0. -1.
         11    1    4    4    0    0  0.33451718173E-01 -0.19448374418E-01 -0.74571307486E-02  0.39409727685E-01  0.51100000000E-03 0.  1.
</event>
<event>
 8    1  0.1066842E+005  0.1043930E+01  0.7957747E-01            NaN
         13   -1    0    0    0    0  0.00000000000E+00  0.00000000000E+00  0.74505805969E-08  0.10566000000E+00  0.10566000000E+00 0.  1.
     999900   -1    0    0    0    0 -0.00000000000E+00 -0.00000000000E+00 -0.74505805969E-08  0.93827000000E+00  0.93827000000E+00 0. -1.
     999902    2    1    2    0    0 -0.16531545607E-01 -0.55427406387E-02  0.15839573494E-01  0.10203735558E+01  0.10201016064E+01 0.  0.
     999903    2    3    3    0    0 -0.35871126257E-01  0.11704821576E+00  0.42506917364E-01  0.13126517705E+00  0.20897037377E-01 0.  0.
         14    1    1    2    0    0  0.16531545607E-01  0.55427406387E-02 -0.15839573494E-01  0.23556444180E-01  0.00000000000E+00 0. -1.
     999901    1    3    3    0    0  0.19339580650E-01 -0.12259095640E+00 -0.26667343870E-01  0.88910837877E+00  0.88000000000E+00 0. -1.
        -11    1    4    4    0    0 -0.34904417869E-01  0.83960933957E-01  0.28205152357E-01  0.95202670961E-01  0.51100000000E-03 0.  1.
         11    1    4    4    0    0 -0.96670838777E-03  0.33087281801E-01  0.14301765007E-01  0.36062506088E-01  0.51100000000E-03 0. -1.
</event>
<event>
 8    1  0.1066842E+005  0.1043930E+01  0.7957747E-01            NaN
         13   -1    0    0    0    0  0.00000000000E+00  0.00000000000E+00  0.74505805969E-08  0.10566000000E+00  0.10566000000E+00 0. -1.
     999900   -1    0    0    0    0 -0.00000000000E+00 -0.00000000000E+00 -0.74505805969E-08  0.93827000000E+00  0.93827000000E+00 0. -1.
     999902    2    1    2    0    0 -0.18705960201E-01  0.77986402009E-02  0.17085325507E-01  0.10174226410E+01  0.10170772784E+01 0.  0.
     999903    2    3    3    0    0 -0.10529422086E+00 -0.28342103794E-01 -0.65156974111E-01  0.12862149553E+00  0.20196782951E-01 0.  0.
         14    1    1    2    0    0  0.18705960201E-01 -0.77986402009E-02 -0.17085325507E-01  0.26507359048E-01  0.00000000000E+00 0.  1.
     999901    1    3    3    0    0  0.86588260664E-01  0.36140743995E-01  0.82242299617E-01  0.88880114542E+00  0.88000000000E+00 0.  1.
        -11    1    4    4    0    0 -0.76238669422E-01 -0.29273046244E-01 -0.50995786907E-01  0.96281240930E-01  0.51100000000E-03 0.  1.
         11    1    4    4    0    0 -0.29055551442E-01  0.93094244975E-03 -0.14161187204E-01  0.32340254598E-01  0.51100000000E-03 0. -1.
</event>
<event>
 8    1  0.1066842E+005  0.1043930E+01  0.7957747E-01            NaN
         13   -1    0    0    0    0  0.00000000000E+00  0.00000000000E+00  0.74505805969E-08  0.10566000000E+00  0.10566000000E+00 0. -1.
     999900   -1    0    0    0    0 -0.00000000000E+00 -0.00000000000E+00 -0.74505805969E-08  0.93827000000E+00  0.93827000000E+00 0.  1.
     999902    2    1    2    0    0 -0.16213318312E-01  0.20803710152E-01  0.94377812557E-02  0.10159168288E+01  0.10155305339E+01 0.  0.
     999903    2    3    3    0    0  0.94972462639E-01 -0.73454922488E-01  0.21726513981E-01  0.12384173067E+00  0.21197607139E-01 0.  0.
         14    1    1    2    0    0  0.16213318312E-01 -0.20803710152E-01 -0.94377812557E-02  0.28013171220E-01  0.00000000000E+00 0.  1.
     999901    1    3    3    0    0 -0.11118578095E+00  0.94258632641E-01 -0.12288732725E-01  0.89207509811E+00  0.88000000000E+00 0. -1.
        -11    1    4    4    0    0  0.66412484617E-01 -0.61784483473E-01  0.12067374169E-01  0.91508596051E-01  0.51100000000E-03 0. -1.
         11    1    4    4    0    0  0.28559978022E-01 -0.11670439016E-01  0.96591398116E-02  0.32333134620E-01  0.51100000000E-03 0.  1.
</event>
<event>
 8    1  0.1066842E+005  0.1043930E+01  0.7957747E-01            NaN
         13   -1    0    0    0    0  0.00000000000E+00  0.00000000000E+00  0.74505805969E-08  0.10566000000E+00  0.10566000000E+00 0.  1.
     999900   -1    0    0    0    0 -0.00000000000E+00 -0.00000000000E+00 -0.74505805969E-08  0.93827000000E+00  0.93827000000E+00 0. -1.
     999902    2    1    2    0    0 -0.99266735423E-02 -0.93322123784E-03 -0.20159314670E-01  0.10214398306E+01  0.10211922052E+01 0.  0.
     999903    2    3    3    0    0 -0.19410773820E-01  0.12935118081E+00 -0.79541116687E-02  0.13171350163E+00  0.13291820840E-01 0.  0.
         14    1    1    2    0    0  0.99266735423E-02  0.93322123784E-03  0.20159314670E-01  0.22490169351E-01  0.00000000000E+00 0.  1.
     999901    1    3    3    0    0  0.94841002779E-02 -0.13028440205E+00 -0.12205203001E-01  0.88972632902E+00  0.88000000000E+00 0. -1.
        -11    1    4    4    0    0 -0.11160709126E-01  0.71225135892E-01  0.22071300705E-02  0.72129840948E-01  0.51100000000E-03 0.  1.
         11    1    4    4    0    0 -0.82500646946E-02  0.58126044917E-01 -0.10161241739E-01  0.59583660679E-01  0.51100000000E-03 0. -1.
</event>
<event>
 8    1  0.1066842E+005  0.1043930E+01  0.7957747E-01            NaN
         13   -1    0    0    0    0  0.00000000000E+00  0.00000000000E+00  0.74505805969E-08  0.10566000000E+00  0.10566000000E+00 0. -1.
     999900   -1    0    0    0    0 -0.00000000000E+00 -0.00000000000E+00 -0.74505805969E-08  0.93827000000E+00  0.93827000000E+00 0. -1.
     999902    2    1    2    0    0 -0.20939205991E-01 -0.20211956251E-02  0.10301158869E-01  0.10205067327E+01  0.10202378850E+01 0.  0.
     999903    2    3    3    0    0 -0.34760796617E-01 -0.79378554035E-01 -0.95842468381E-01  0.13065187546E+00  0.19361456361E-01 0.  0.
         14    1    1    2    0    0  0.20939205991E-01  0.20211956251E-02 -0.10301158869E-01  0.23423267350E-01  0.00000000000E+00 0.  1.
     999901    1    3    3    0    0  0.13821590626E-01  0.77357358410E-01  0.10614362725E+00  0.88985485719E+00  0.88000000000E+00 0.  1.
        -11    1    4    4    0    0 -0.14168231876E-01 -0.37550226374E-01 -0.30648889007E-01  0.50501225863E-01  0.51100000000E-03 0. -1.
         11    1    4    4    0    0 -0.20592564742E-01 -0.41828327661E-01 -0.65193579374E-01  0.80150649593E-01  0.51100000000E-03 0.  1.
</event>
<event>
 8    1  0.1066842E+005  0.1043930E+01  0.7957747E-01            NaN
         13   -1    0    0    0    0  0.00000000000E+00  0.00000000000E+00  0.74505805969E-08  0.10566000000E+00  0.10566000000E+00 0. -1.
     999900   -1    0    0    0    0 -0.00000000000E+00 -0.00000000000E+00 -0.74505805969E-08  0.93827000000E+00  0.93827000000E+00 0. -1.
     999902    2    1    2    0    0  0.16437283819E-01  0.83626857435E-02 -0.14828973948E-01  0.10202653158E+01  0.10199908319E+01 0.  0.
     999903    2    3    3    0    0  0.72287430514E-01 -0.10212617187E+00  0.30849904932E-01  0.13042623675E+00  0.20101219072E-01 0.  0.
         14    1    1    2    0    0 -0.16437283819E-01 -0.83626857435E-02  0.14828973948E-01  0.23664684247E-01  0.00000000000E+00 0. -1.
     999901    1    3    3    0    0 -0.55850146695E-01  0.11048885761E+00 -0.45678878879E-01  0.88983907900E+00  0.88000000000E+00 0. -1.
        -11    1    4    4    0    0  0.45502377985E-01 -0.75549249394E-01  0.28212387277E-01  0.92597815327E-01  0.51100000000E-03 0.  1.
         11    1    4    4    0    0  0.26785052529E-01 -0.26576922473E-01  0.26375176546E-02  0.37828421425E-01  0.51100000000E-03 0. -1.
</event>
<event>
 8    1  0.1066842E+005  0.1043930E+01  0.7957747E-01            NaN
         13   -1    0    0    0    0  0.00000000000E+00  0.00000000000E+00  0.74505805969E-08  0.10566000000E+00  0.10566000000E+00 0. -1.
     999900   -1    0    0    0    0 -0.00000000000E+00 -0.00000000000E+00 -0.74505805969E-08  0.93827000000E+00  0.93827000000E+00 0. -1.
     999902    2    1    2    0    0  0.19910274134E-01 -0.48678749707E-02 -0.10584206137E-01  0.10208618262E+01  0.10206011599E+01 0.  0.
     999903    2    3    3    0    0  0.97771474455E-01  0.78174426730E-02 -0.88891160142E-01  0.13386956984E+00  0.19976229650E-01 0.  0.
         14    1    1    2    0    0 -0.19910274134E-01  0.48678749707E-02  0.10584206137E-01  0.23068173798E-01  0.00000000000E+00 0. -1.
     999901    1    3    3    0    0 -0.77861200321E-01 -0.12685317644E-01  0.78306954005E-01  0.88699225636E+00  0.88000000000E+00 0. -1.
        -11    1    4    4    0    0  0.23944104020E-01 -0.57890676331E-02 -0.27206257228E-01  0.36705244512E-01  0.51100000000E-03 0.  1.
         11    1    4    4    0    0  0.73827370435E-01  0.13606510306E-01 -0.61684902915E-01  0.97164325329E-01  0.51100000000E-03 0. -1.
</event>
<event>
 8    1  0.1066842E+005  0.1043930E+01  0.7957747E-01            NaN
         13   -1    0    0    0    0  0.00000000000E+00  0.00000000000E+00  0.74505805969E-08  0.10566000000E+00  0.10566000000E+00 0. -1.
     999900   -1    0    0    0    0 -0.00000000000E+00 -0.00000000000E+00 -0.74505805969E-08  0.93827000000E+00  0.93827000000E+00 0.  1.
     999902    2    1    2    0    0  0.27482387545E-02 -0.58819631201E-02  0.22182819743E-01  0.10208166316E+01  0.10205549312E+01 0.  0.
     999903    2    3    3    0    0 -0.11585813768E+00 -0.39289341546E-01  0.45170630090E-01  0.13193420694E+00  0.19987213758E-01 0.  0.
         14    1    1    2    0    0 -0.27482387545E-02  0.58819631201E-02 -0.22182819743E-01  0.23113368386E-01  0.00000000000E+00 0.  1.
     999901    1    3    3    0    0  0.11860637643E+00  0.33407378426E-01 -0.22987810347E-01  0.88888242467E+00  0.88000000000E+00 0.  1.
        -11    1    4    4    0    0 -0.67706375255E-01 -0.12819454909E-01  0.22502155405E-01  0.72492067105E-01  0.51100000000E-03 0. -1.
         11    1    4    4    0    0 -0.48151762423E-01 -0.26469886637E-01  0.22668474685E-01  0.59442139838E-01  0.51100000000E-03 0.  1.
</event>
<event>
 8    1  0.1066842E+005  0.1043930E+01  0.7957747E-01            NaN
         13   -1    0    0    0    0  0.00000000000E+00  0.00000000000E+00  0.74505805969E-08  0.10566000000E+00  0.10566000000E+00 0.  1.
     999900   -1    0    0    0    0 -0.00000000000E+00 -0.00000000000E+00 -0.74505805969E-08  0.93827000000E+00  0.93827000000E+00 0.  1.
     999902    2    1    2    0    0 -0.31905004352E-03  0.22743918722E-01 -0.46224561873E-02  0.10207189093E+01  0.10204549657E+01 0.  0.
     999903    2    3    3    0    0 -0.91938170114E-01  0.81213708929E-01 -0.48215293502E-01  0.13296155785E+00  0.17486214481E-01 0.  0.
         14    1    1    2    0    0  0.31905004352E-03 -0.22743918722E-01  0.46224561873E-02  0.23211090732E-01  0.00000000000E+00 0.  1.
     999901    1    3    3    0    0  0.91619120070E-01 -0.58469790207E-01  0.43592837315E-01  0.88775735142E+00  0.88000000000E+00 0.  1.
        -11    1    4    4    0    0 -0.37065129042E-01  0.37247773490E-01 -0.12149981956E-01  0.53936106677E-01  0.51100000000E-03 0. -1.
         11    1    4    4    0    0 -0.54873041071E-01  0.43965935439E-01 -0.36065311546E-01  0.79025451174E-01  0.51100000000E-03 0.  1.
</event>
<event>
 8    1  0.1066842E+005  0.1043930E+01  0.7957747E-01            NaN
         13   -1    0    0    0    0  0.00000000000E+00  0.00000000000E+00  0.74505805969E-08  0.10566000000E+00  0.10566000000E+00 0. -1.
     999900   -1    0    0    0    0 -0.00000000000E+00 -0.00000000000E+00 -0.74505805969E-08  0.93827000000E+00  0.93827000000E+00 0. -1.
     999902    2    1    2    0    0 -0.15967258269E-01  0.13367891320E-02  0.20137822692E-01  0.10181953493E+01  0.10178700787E+01 0.  0.
     999903    2    3    3    0    0 -0.11196712150E+00 -0.50004850494E-01  0.39538461803E-01  0.13127465249E+00  0.25151999025E-01 0.  0.
         14    1    1    2    0    0  0.15967258269E-01 -0.13367891320E-02 -0.20137822692E-01  0.25734650660E-01  0.00000000000E+00 0. -1.
     999901    1    3    3    0    0  0.95999863231E-01  0.51341639626E-01 -0.19400639111E-01  0.88692069685E+00  0.88000000000E+00 0. -1.
        -11    1    4    4    0    0 -0.71184301237E-01 -0.39529456858E-01  0.15830410523E-01  0.82949657747E-01  0.51100000000E-03 0.  1.
         11    1    4    4    0    0 -0.40782820263E-01 -0.10475393635E-01  0.23708051281E-01  0.48324994744E-01  0.51100000000E-03 0. -1.
</event>
<event>
 8    1  0.1203602E+005  0.1043930E+01  0.7957747E-01            NaN
         13   -1    0    0    0    0  0.00000000000E+00  0.00000000000E+00  0.74505805969E-08  0.10566000000E+00  0.10566000000E+00 0.  1.
     999900   -1    0    0    0    0 -0.00000000000E+00 -0.00000000000E+00 -0.74505805969E-08  0.93827000000E+00  0.93827000000E+00 0.  1.
     999902    2    1    2    0    0 -0.20846779065E-01 -0.86960949204E-02  0.95420699084E-02  0.10194093686E+01  0.10191144192E+01 0.  0.
     999903    2    3    3    0    0  0.34573229649E-01 -0.12029755201E+00  0.30265874253E-01  0.13038983080E+00  0.20461564073E-01 0.  0.
         14    1    1    2    0    0  0.20846779065E-01  0.86960949204E-02 -0.95420699084E-02  0.24520631362E-01  0.00000000000E+00 0. -1.
     999901    1    3    3    0    0 -0.55420008714E-01  0.11160145709E+00 -0.20723804345E-01  0.88901953784E+00  0.88000000000E+00 0.  1.
        -11    1    4    4    0    0  0.84381480369E-02 -0.64927255800E-01  0.18505475667E-01  0.68040169302E-01  0.51100000000E-03 0. -1.
         11    1    4    4    0    0  0.26135081612E-01 -0.55370296209E-01  0.11760398587E-01  0.62349661499E-01  0.51100000000E-03 0.  1.
</event>
<event>
 8    1  0.1066842E+005  0.1043930E+01  0.7957747E-01            NaN
         13   -1    0    0    0    0  0.00000000000E+00  0.00000000000E+00  0.74505805969E-08  0.10566000000E+00  0.10566000000E+00 0.  1.
     999900   -1    0    0    0    0 -0.00000000000E+00 -0.00000000000E+00 -0.74505805969E-08  0.93827000000E+00  0.93827000000E+00 0. -1.
     999902    2    1    2    0    0 -0.20014446001E-01  0.11738060671E-01  0.44719109568E-02  0.10203003977E+01  0.10200267366E+01 0.  0.
     999903    2    3    3    0    0  0.19007131644E-01 -0.11124348929E+00 -0.58330856209E-01  0.12867753308E+00  0.20470314422E-01 0.  0.
         14    1    1    2    0    0  0.20014446001E-01 -0.11738060671E-01 -0.44719109568E-02  0.23629602296E-01  0.00000000000E+00 0.  1.
     999901    1    3    3    0    0 -0.39021577645E-01  0.12298154996E+00  0.62802767166E-01  0.89162286462E+00  0.88000000000E+00 0.  1.
        -11    1    4    4    0    0  0.20105481656E-01 -0.68630552391E-01 -0.42566883694E-01  0.83226100609E-01  0.51100000000E-03 0. -1.
         11    1    4    4    0    0 -0.10983500123E-02 -0.42612936894E-01 -0.15763972515E-01  0.45451432474E-01  0.51100000000E-03 0.  1.
</event>
<event>
 8    1  0.1066842E+005  0.1043930E+01  0.7957747E-01            NaN
         13   -1    0    0    0    0  0.00000000000E+00  0.00000000000E+00  0.74505805969E-08  0.10566000000E+00  0.10566000000E+00 0.  1.
     999900   -1    0    0    0    0 -0.00000000000E+00 -0.00000000000E+00 -0.74505805969E-08  0.93827000000E+00  0.93827000000E+00 0.  1.
     999902    2    1    2    0    0  0.15450095748E-01  0.87181157012E-03  0.17663161663E-01  0.10204469680E+01  0.10201767306E+01 0.  0.
     999903    2    3    3    0    0 -0.67762695961E-01  0.37371423131E-01  0.10440233239E+00  0.13152611991E+00  0.20269853990E-01 0.  0.
         14    1    1    2    0    0 -0.15450095748E-01 -0.87181157012E-03 -0.17663161663E-01  0.23483032043E-01  0.00000000000E+00 0. -1.
     999901    1    3    3    0    0  0.83212791709E-01 -0.36499611560E-01 -0.86739170725E-01  0.88892084804E+00  0.88000000000E+00 0.  1.
        -11    1    4    4    0    0 -0.44785406363E-01  0.32317942970E-01  0.83126314208E-01  0.99801940340E-01  0.51100000000E-03 0. -1.
         11    1    4    4    0    0 -0.22977289597E-01  0.50534801606E-02  0.21276018180E-01  0.31724179573E-01  0.51100000000E-03 0.  1.
</event>
<event>
 8    1  0.1276894E+005  0.1043930E+01  0.7957747E-01            NaN
         13   -1    0    0    0    0  0.00000000000E+00  0.00000000000E+00  0.74505805969E-08  0.10566000000E+00  0.10566000000E+00 0.  1.
     999900   -1    0    0    0    0 -0.00000000000E+00 -0.00000000000E+00 -0.74505805969E-08  0.93827000000E+00  0.93827000000E+00 0. -1.
     999902    2    1    2    0    0 -0.38278130831E-02  0.11237156400E-01  0.20335402783E-01  0.10203831437E+01  0.10201114181E+01 0.  0.
     999903    2    3    3    0    0 -0.11616805213E-01 -0.84264013727E-01 -0.93397601055E-01  0.12790550358E+00  0.20033267075E-01 0.  0.
         14    1    1    2    0    0  0.38278130831E-02 -0.11237156400E-01 -0.20335402783E-01  0.23546856336E-01  0.00000000000E+00 0. -1.
     999901    1    3    3    0    0  0.77889921302E-02  0.95501170126E-01  0.11373300384E+00  0.89247764009E+00  0.88000000000E+00 0.  1.
        -11    1    4    4    0    0 -0.63729710323E-02 -0.37518356465E-01 -0.27564905308E-01  0.46992839425E-01  0.51100000000E-03 0.  1.
         11    1    4    4    0    0 -0.52438341811E-02 -0.46745657262E-01 -0.65832695747E-01  0.80912664152E-01  0.51100000000E-03 0. -1.
</event>
<event>
 8    1  0.1066842E+005  0.1043930E+01  0.7957747E-01            NaN
         13   -1    0    0    0    0  0.00000000000E+00  0.00000000000E+00  0.74505805969E-08  0.10566000000E+00  0.10566000000E+00 0. -1.
     999900   -1    0    0    0    0 -0.00000000000E+00 -0.00000000000E+00 -0.74505805969E-08  0.93827000000E+00  0.93827000000E+00 0.  1.
     999902    2    1    2    0    0  0.95331168235E-02  0.15908395960E-01 -0.11759253759E-01  0.10219700950E+01  0.10217341326E+01 0.  0.
     999903    2    3    3    0    0 -0.65109908307E-01 -0.65086809805E-01 -0.91687864947E-01  0.13150932246E+00  0.20308725834E-01 0.  0.
         14    1    1    2    0    0 -0.95331168235E-02 -0.15908395960E-01  0.11759253759E-01  0.21959904994E-01  0.00000000000E+00 0. -1.
     999901    1    3    3    0    0  0.74643025130E-01  0.80995205764E-01  0.79928611189E-01  0.89046077255E+00  0.88000000000E+00 0.  1.
        -11    1    4    4    0    0 -0.11317364862E-01 -0.29615929790E-02 -0.15673360573E-01  0.19564486527E-01  0.51100000000E-03 0. -1.
         11    1    4    4    0    0 -0.53792543445E-01 -0.62125216826E-01 -0.76014504374E-01  0.11194483593E+00  0.51100000000E-03 0.  1.
</event>
<event>
 8    1  0.1066842E+005  0.1043930E+01  0.7957747E-01            NaN
         13   -1    0    0    0    0  0.00000000000E+00  0.00000000000E+00  0.74505805969E-08  0.10566000000E+00  0.10566000000E+00 0.  1.
     999900   -1    0    0    0    0 -0.00000000000E+00 -0.00000000000E+00 -0.74505805969E-08  0.93827000000E+00  0.93827000000E+00 0.  1.
     999902    2    1    2    0    0  0.19142842190E-01 -0.12741315559E-01  0.64728562728E-02  0.10200409356E+01  0.10197611597E+01 0.  0.
     999903    2    3    3    0    0 -0.88149115550E-01 -0.90838770600E-01  0.21982779224E-01  0.12995592035E+00  0.19579321602E-01 0.  0.
         14    1    1    2    0    0 -0.19142842190E-01  0.12741315559E-01 -0.64728562728E-02  0.23889064394E-01  0.00000000000E+00 0.  1.
     999901    1    3    3    0    0  0.10729195774E+00  0.78097455042E-01 -0.15509922952E-01  0.89008501526E+00  0.88000000000E+00 0.  1.
        -11    1    4    4    0    0 -0.52635622394E-01 -0.60516598737E-01  0.22322412786E-01  0.83254541625E-01  0.51100000000E-03 0. -1.
         11    1    4    4    0    0 -0.35513493155E-01 -0.30322171863E-01 -0.33963356129E-03  0.46701378722E-01  0.51100000000E-03 0.  1.
</event>
<event>
 8    1  0.1066842E+005  0.1043930E+01  0.7957747E-01            NaN
         13   -1    0    0    0    0  0.00000000000E+00  0.00000000000E+00  0.74505805969E-08  0.10566000000E+00  0.10566000000E+00 0.  1.
     999900   -1    0    0    0    0 -0.00000000000E+00 -0.00000000000E+00 -0.74505805969E-08  0.93827000000E+00  0.93827000000E+00 0. -1.
     999902    2    1    2    0    0  0.29766656423E-02  0.21368413705E-01  0.10102315686E-01  0.10201071869E+01  0.10198289789E+01 0.  0.
     999903    2    3    3    0    0 -0.27776249306E-01  0.17417123819E-01 -0.12346602316E+00  0.12948838200E+00  0.21177959560E-01 0.  0.
         14    1    1    2    0    0 -0.29766656423E-02 -0.21368413705E-01 -0.10102315686E-01  0.23822813118E-01  0.00000000000E+00 0. -1.
     999901    1    3    3    0    0  0.30752914948E-01  0.39512898857E-02  0.13356833884E+00  0.89061880488E+00  0.88000000000E+00 0.  1.
        -11    1    4    4    0    0 -0.66606408735E-02 -0.38820183087E-02 -0.14040717865E-01  0.16026137468E-01  0.51100000000E-03 0.  1.
         11    1    4    4    0    0 -0.21115608432E-01  0.21299142128E-01 -0.10942530529E+00  0.11346224453E+00  0.51100000000E-03 0. -1.
</event>
<event>
 7    1  0.1066842E+005  0.1043930E+01  0.7957747E-01            NaN
         13   -1    0    0    0    0  0.00000000000E+00  0.00000000000E+00  0.74505805969E-08  0.10566000000E+00  0.10566000000E+00 0.  1.
     999900   -1    0    0    0    0 -0.00000000000E+00 -0.00000000000E+00 -0.74505805969E-08  0.93827000000E+00  0.93827000000E+00 0. -1.
     999902    2    1    2    0    0 -0.64811897704E-02  0.35627576544E-02  0.22389783356E-01  0.10203503168E+01  0.10200778242E+01 0.  0.
         14    1    1    2    0    0  0.64811897704E-02 -0.35627576544E-02 -0.22389783356E-01  0.23579683239E-01  0.00000000000E+00 0. -1.
     999901    1    3    3    0    0 -0.12770216380E+00  0.25531171345E-01  0.29776264505E-02  0.88958897790E+00  0.88000000000E+00 0.  1.
        -11    1    3    3    0    0  0.24109841236E-01  0.32477881412E-02  0.18259059103E-01  0.30421816721E-01  0.51100000000E-03 0. -1.
         11    1    3    3    0    0  0.97111132792E-01 -0.25216201832E-01  0.11530978021E-02  0.10033952214E+00  0.51100000000E-03 0.  1.
</event>
<event>
 8    1  0.1066842E+005  0.1043930E+01  0.7957747E-01            NaN
         13   -1    0    0    0    0  0.00000000000E+00  0.00000000000E+00  0.74505805969E-08  0.10566000000E+00  0.10566000000E+00 0. -1.
     999900   -1    0    0    0    0 -0.00000000000E+00 -0.00000000000E+00 -0.74505805969E-08  0.93827000000E+00  0.93827000000E+00 0.  1.
     999902    2    1    2    0    0 -0.70029658090E-02 -0.20654261591E-01 -0.48796626213E-02  0.10215815960E+01  0.10213371168E+01 0.  0.
     999903    2    3    3    0    0 -0.43543414783E-01  0.27591197033E-01  0.11864876904E+00  0.13089528644E+00  0.19968537586E-01 0.  0.
         14    1    1    2    0    0  0.70029658090E-02  0.20654261591E-01  0.48796626213E-02  0.22348403954E-01  0.00000000000E+00 0. -1.
     999901    1    3    3    0    0  0.36540448974E-01 -0.48245458623E-01 -0.12352843166E+00  0.89068630960E+00  0.88000000000E+00 0.  1.
        -11    1    4    4    0    0 -0.26523459973E-01  0.22035399219E-01  0.96087101111E-01  0.10208841692E+00  0.51100000000E-03 0.  1.
         11    1    4    4    0    0 -0.17019954810E-01  0.55557978138E-02  0.22561667928E-01  0.28806869525E-01  0.51100000000E-03 0. -1.
</event>
<event>
 8    1  0.1066842E+005  0.1043930E+01  0.7957747E-01            NaN
         13   -1    0    0    0    0  0.00000000000E+00  0.00000000000E+00  0.74505805969E-08  0.10566000000E+00  0.10566000000E+00 0. -1.
     999900   -1    0    0    0    0 -0.00000000000E+00 -0.00000000000E+00 -0.74505805969E-08  0.93827000000E+00  0.93827000000E+00 0. -1.
     999902    2    1    2    0    0  0.31182008091E-02 -0.23407269581E-01 -0.43219749001E-02  0.10199236902E+01  0.10196411284E+01 0.  0.
     999903    2    3    3    0    0 -0.79074345874E-01  0.81083546031E-01  0.55794115894E-01  0.12791029919E+00  0.20512621937E-01 0.  0.
         14    1    1    2    0    0 -0.31182008091E-02  0.23407269581E-01  0.43219749001E-02  0.24006309848E-01  0.00000000000E+00 0. -1.
     999901    1    3    3    0    0  0.82192546683E-01 -0.10449081561E+00 -0.60116090794E-01  0.89201339096E+00  0.88000000000E+00 0.  1.
        -11    1    4    4    0    0 -0.65507428858E-01  0.54917352692E-01  0.44192126209E-01  0.96230681189E-01  0.51100000000E-03 0.  1.
         11    1    4    4    0    0 -0.13566917016E-01  0.26166193340E-01  0.11601989685E-01  0.31679618004E-01  0.51100000000E-03 0. -1.
</event>
<event>
 8    1  0.1066842E+005  0.1043930E+01  0.7957747E-01            NaN
         13   -1    0    0    0    0  0.00000000000E+00  0.00000000000E+00  0.74505805969E-08  0.10566000000E+00  0.10566000000E+00 0. -1.
     999900   -1    0    0    0    0 -0.00000000000E+00 -0.00000000000E+00 -0.74505805969E-08  0.93827000000E+00  0.93827000000E+00 0.  1.
     999902    2    1    2    0    0  0.22946074457E-01  0.66009639162E-02  0.25567137747E-02  0.10199168402E+01  0.10196341153E+01 0.  0.
     999903    2    3    3    0    0 -0.24468430813E-01 -0.10639251575E+00  0.65922624737E-01  0.12916945715E+00  0.20515474508E-01 0.  0.
         14    1    1    2    0    0 -0.22946074457E-01 -0.66009639162E-02 -0.25567137747E-02  0.24013159787E-01  0.00000000000E+00 0. -1.
     999901    1    3    3    0    0  0.47414505270E-01  0.11299347967E+00 -0.63365910962E-01  0.89074738306E+00  0.88000000000E+00 0.  1.
        -11    1    4    4    0    0 -0.17280144445E-01 -0.35174461654E-01  0.27958867633E-01  0.48143592980E-01  0.51100000000E-03 0.  1.
         11    1    4    4    0    0 -0.71882863679E-02 -0.71218054098E-01  0.37963757104E-01  0.81025864172E-01  0.51100000000E-03 0. -1.
</event>
<event>
 8    1  0.1066842E+005  0.1043930E+01  0.7957747E-01            NaN
         13   -1    0    0    0    0  0.00000000000E+00  0.00000000000E+00  0.74505805969E-08  0.10566000000E+00  0.10566000000E+00 0.  1.
     999900   -1    0    0    0    0 -0.00000000000E+00 -0.00000000000E+00 -0.74505805969E-08  0.93827000000E+00  0.93827000000E+00 0. -1.
     999902    2    1    2    0    0 -0.42780903157E-02  0.16649199857E-01  0.15930751824E-01  0.10204931323E+01  0.10202239687E+01 0.  0.
     999903    2    3    3    0    0  0.11551331939E+00 -0.52361602737E-01  0.19277638384E-01  0.12969367433E+00  0.19072425725E-01 0.  0.
         14    1    1    2    0    0  0.42780903157E-02 -0.16649199857E-01 -0.15930751824E-01  0.23436867673E-01  0.00000000000E+00 0. -1.
     999901    1    3    3    0    0 -0.11979140970E+00  0.69010802595E-01 -0.33468865595E-02  0.89079945799E+00  0.88000000000E+00 0.  1.
        -11    1    4    4    0    0  0.17990252759E-01 -0.13727437532E-01 -0.17719107859E-02  0.22704460451E-01  0.51100000000E-03 0.  1.
         11    1    4    4    0    0  0.97523066629E-01 -0.38634165205E-01  0.21049549169E-01  0.10698921388E+00  0.51100000000E-03 0. -1.
</event>
<event>
 8    1  0.1066842E+005  0.1043930E+01  0.7957747E-01            NaN
         13   -1    0    0    0    0  0.00000000000E+00  0.00000000000E+00  0.74505805969E-08  0.10566000000E+00  0.10566000000E+00 0.  1.
     999900   -1    0    0    0    0 -0.00000000000E+00 -0.00000000000E+00 -0.74505805969E-08  0.93827000000E+00  0.93827000000E+00 0. -1.
     999902    2    1    2    0    0  0.11860728202E-01 -0.20825132762E-01 -0.53820144182E-03  0.10199580854E+01  0.10196763424E+01 0.  0.
     999903    2    3    3    0    0 -0.21011434024E-01  0.12303530836E+00 -0.16822688422E-01  0.12752232297E+00  0.19994312883E-01 0.  0.
         14    1    1    2    0    0 -0.11860728202E-01  0.20825132762E-01  0.53820144182E-03  0.23971914584E-01  0.00000000000E+00 0. -1.
     999901    1    3    3    0    0  0.32872162226E-01 -0.14386044112E+00  0.16284486980E-01  0.89243576244E+00  0.88000000000E+00 0.  1.
        -11    1    4    4    0    0 -0.14783561927E-01  0.75879425549E-01 -0.74766161617E-03  0.77311454803E-01  0.51100000000E-03 0.  1.
         11    1    4    4    0    0 -0.62278720971E-02  0.47155882812E-01 -0.16075026806E-01  0.50210868170E-01  0.51100000000E-03 0. -1.
</event>
<event>
 8    1  0.1066842E+005  0.1043930E+01  0.7957747E-01            NaN
         13   -1    0    0    0    0  0.00000000000E+00  0.00000000000E+00  0.74505805969E-08  0.10566000000E+00  0.10566000000E+00 0. -1.
     999900   -1    0    0    0    0 -0.00000000000E+00 -0.00000000000E+00 -0.74505805969E-08  0.93827000000E+00  0.93827000000E+00 0. -1.
     999902    2    1    2    0    0 -0.10459623757E-01 -0.17220040798E-01 -0.12835479626E-01  0.10200410262E+01  0.10197612524E+01 0.  0.
     999903    2    3    3    0    0  0.69576137942E-01  0.71512109798E-01  0.76206593730E-01  0.12751225433E+00  0.22295947131E-01 0.  0.
         14    1    1    2    0    0  0.10459623757E-01  0.17220040798E-01  0.12835479626E-01  0.23888973846E-01  0.00000000000E+00 0.  1.
     999901    1    3    3    0    0 -0.80035761699E-01 -0.88732150596E-01 -0.89042073356E-01  0.89252877182E+00  0.88000000000E+00 0. -1.
        -11    1    4    4    0    0  0.44601080603E-01  0.53406986569E-01  0.41261221854E-01  0.80896923027E-01  0.51100000000E-03 0.  1.
         11    1    4    4    0    0  0.24975057338E-01  0.18105123229E-01  0.34945371876E-01  0.46615331306E-01  0.51100000000E-03 0. -1.
</event>
<event>
 8    1  0.1066842E+005  0.1043930E+01  0.7957747E-01            NaN
         13   -1    0    0    0    0  0.00000000000E+00  0.00000000000E+00  0.74505805969E-08  0.10566000000E+00  0.10566000000E+00 0. -1.
     999900   -1    0    0    0    0 -0.00000000000E+00 -0.00000000000E+00 -0.74505805969E-08  0.93827000000E+00  0.93827000000E+00 0. -1.
     999902    2    1    2    0    0 -0.18776853123E-01  0.13712769119E-01  0.60334926010E-02  0.10199088992E+01  0.10196259851E+01 0.  0.
     999903    2    3    3    0    0 -0.11451947558E+00  0.10453150043E-01  0.63594918099E-01  0.13284036038E+00  0.19449141549E-01 0.  0.
         14    1    1    2    0    0  0.18776853123E-01 -0.13712769119E-01 -0.60334926010E-02  0.24021100788E-01  0.00000000000E+00 0. -1.
     999901    1    3    3    0    0  0.95742622453E-01  0.32596190758E-02 -0.57561425498E-01  0.88706853883E+00  0.88000000000E+00 0.  1.
        -11    1    4    4    0    0 -0.39890552927E-01  0.12021071112E-01  0.27515832784E-01  0.49931398322E-01  0.51100000000E-03 0. -1.
         11    1    4    4    0    0 -0.74628922649E-01 -0.15679210695E-02  0.36079085315E-01  0.82908962063E-01  0.51100000000E-03 0.  1.
</event>
<event>
 8    1  0.1066842E+005  0.1043930E+01  0.7957747E-01            NaN
         13   -1    0    0    0    0  0.00000000000E+00  0.00000000000E+00  0.74505805969E-08  0.10566000000E+00  0.10566000000E+00 0.  1.
     999900   -1    0    0    0    0 -0.00000000000E+00 -0.00000000000E+00 -0.74505805969E-08  0.93827000000E+00  0.93827000000E+00 0. -1.
     999902    2    1    2    0    0 -0.14017225900E-01 -0.11738508636E-01 -0.15919712123E-01  0.10196872188E+01  0.10193989953E+01 0.  0.
     999903    2    3    3    0    0 -0.27664357596E-01 -0.11822905034E+00  0.44958775394E-01  0.13107444040E+00  0.20390988565E-01 0.  0.
         14    1    1    2    0    0  0.14017225900E-01  0.11738508636E-01  0.15919712123E-01  0.24242781214E-01  0.00000000000E+00 0.  1.
     999901    1    3    3    0    0  0.13647131697E-01  0.10649054170E+00 -0.60878487517E-01  0.88861277839E+00  0.88000000000E+00 0. -1.
        -11    1    4    4    0    0 -0.26137391823E-01 -0.70580252027E-01  0.30967559289E-01  0.81387874262E-01  0.51100000000E-03 0. -1.
         11    1    4    4    0    0 -0.15269657738E-02 -0.47648798312E-01  0.13991216105E-01  0.49686566134E-01  0.51100000000E-03 0.  1.
</event>
<event>
 8    1  0.1066842E+005  0.1043930E+01  0.7957747E-01            NaN
         13   -1    0    0    0    0  0.00000000000E+00  0.00000000000E+00  0.74505805969E-08  0.10566000000E+00  0.10566000000E+00 0.  1.
     999900   -1    0    0    0    0 -0.00000000000E+00 -0.00000000000E+00 -0.74505805969E-08  0.93827000000E+00  0.93827000000E+00 0. -1.
     999902    2    1    2    0    0  0.19641030836E-01 -0.90104510530E-02 -0.67388393813E-02  0.10212944024E+01  0.10210435281E+01 0.  0.
     999903    2    3    3    0    0  0.18764822345E-01 -0.12283533410E+00 -0.43619604145E-01  0.13319696266E+00  0.19953023237E-01 0.  0.
         14    1    1    2    0    0 -0.19641030836E-01  0.90104510530E-02  0.67388393813E-02  0.22635597555E-01  0.00000000000E+00 0.  1.
     999901    1    3    3    0    0  0.87620849024E-03  0.11382488304E+00  0.36880764764E-01  0.88809743978E+00  0.88000000000E+00 0.  1.
        -11    1    4    4    0    0  0.20030633738E-01 -0.88959416927E-01 -0.25167204907E-01  0.94597322751E-01  0.51100000000E-03 0.  1.
         11    1    4    4    0    0 -0.12658113925E-02 -0.33875917169E-01 -0.18452399238E-01  0.38599639910E-01  0.51100000000E-03 0. -1.
</event>
<event>
 8    1  0.1066842E+005  0.1043930E+01  0.7957747E-01            NaN
         13   -1    0    0    0    0  0.00000000000E+00  0.00000000000E+00  0.74505805969E-08  0.10566000000E+00  0.10566000000E+00 0. -1.
     999900   -1    0    0    0    0 -0.00000000000E+00 -0.00000000000E+00 -0.74505805969E-08  0.93827000000E+00  0.93827000000E+00 0. -1.
     999902    2    1    2    0    0  0.22180487634E-01 -0.76253273901E-02  0.45013290618E-02  0.10200473366E+01  0.10197677124E+01 0.  0.
     999903    2    3    3    0    0  0.32203440955E-01  0.11503718097E+00 -0.46859799502E-01  0.12999985689E+00  0.20820839734E-01 0.  0.
         14    1    1    2    0    0 -0.22180487634E-01  0.76253273901E-02 -0.45013290618E-02  0.23882663436E-01  0.00000000000E+00 0.  1.
     999901    1    3    3    0    0 -0.10022953321E-01 -0.12266250836E+00  0.51361128564E-01  0.89004747968E+00  0.88000000000E+00 0.  1.
        -11    1    4    4    0    0  0.18339126489E-01  0.35631447996E-01 -0.21592794789E-01  0.45523988780E-01  0.51100000000E-03 0.  1.
         11    1    4    4    0    0  0.13864314466E-01  0.79405732972E-01 -0.25267004713E-01  0.84475868108E-01  0.51100000000E-03 0. -1.
</event>
<event>
 8    1  0.1066842E+005  0.1043930E+01  0.7957747E-01            NaN
         13   -1    0    0    0    0  0.00000000000E+00  0.00000000000E+00  0.74505805969E-08  0.10566000000E+00  0.10566000000E+00 0. -1.
     999900   -1    0    0    0    0 -0.00000000000E+00 -0.00000000000E+00 -0.74505805969E-08  0.93827000000E+00  0.93827000000E+00 0. -1.
     999902    2    1    2    0    0 -0.14696849579E-01  0.17006882326E-01  0.62484507415E-02  0.10206003071E+01  0.10203336279E+01 0.  0.
     999903    2    3    3    0    0  0.10490472427E+00 -0.68385628421E-01  0.19127199737E-01  0.12832104615E+00  0.20465721715E-01 0.  0.
         14    1    1    2    0    0  0.14696849579E-01 -0.17006882326E-01 -0.62484507415E-02  0.23329692897E-01  0.00000000000E+00 0.  1.
     999901    1    3    3    0    0 -0.11960157385E+00  0.85392510747E-01 -0.12878748996E-01  0.89227926096E+00  0.88000000000E+00 0. -1.
        -11    1    4    4    0    0  0.67281051490E-01 -0.53423699327E-01  0.77598459434E-02  0.86263015652E-01  0.51100000000E-03 0. -1.
         11    1    4    4    0    0  0.37623672780E-01 -0.14961929094E-01  0.11367353794E-01  0.42058030493E-01  0.51100000000E-03 0.  1.
</event>
<event>
 8    1  0.1066842E+005  0.1043930E+01  0.7957747E-01            NaN
         13   -1    0    0    0    0  0.00000000000E+00  0.00000000000E+00  0.74505805969E-08  0.10566000000E+00  0.10566000000E+00 0.  1.
     999900   -1    0    0    0    0 -0.00000000000E+00 -0.00000000000E+00 -0.74505805969E-08  0.93827000000E+00  0.93827000000E+00 0.  1.
     999902    2    1    2    0    0 -0.10977054788E-01 -0.16414076036E-01 -0.12093391495E-01  0.10207747038E+01  0.10205120422E+01 0.  0.
     999903    2    3    3    0    0 -0.80285478496E-01 -0.10139823994E+00 -0.82023308470E-02  0.13395955618E+00  0.33919365260E-01 0.  0.
         14    1    1    2    0    0  0.10977054788E-01  0.16414076036E-01  0.12093391495E-01  0.23155296193E-01  0.00000000000E+00 0.  1.
     999901    1    3    3    0    0  0.69308423708E-01  0.84984163904E-01 -0.38910606480E-02  0.88681514763E+00  0.88000000000E+00 0.  1.
        -11    1    4    4    0    0 -0.40207802487E-01 -0.61987701885E-01 -0.19950940749E-01  0.76533938378E-01  0.51100000000E-03 0.  1.
         11    1    4    4    0    0 -0.40077676009E-01 -0.39410538055E-01  0.11748609902E-01  0.57425617800E-01  0.51100000000E-03 0. -1.
</event>
<event>
 8    1  0.1066842E+005  0.1043930E+01  0.7957747E-01            NaN
         13   -1    0    0    0    0  0.00000000000E+00  0.00000000000E+00  0.74505805969E-08  0.10566000000E+00  0.10566000000E+00 0.  1.
     999900   -1    0    0    0    0 -0.00000000000E+00 -0.00000000000E+00 -0.74505805969E-08  0.93827000000E+00  0.93827000000E+00 0.  1.
     999902    2    1    2    0    0  0.96641792933E-02  0.13234761176E-01  0.17487739713E-01  0.10199638509E+01  0.10196822450E+01 0.  0.
     999903    2    3    3    0    0 -0.86866458645E-01  0.92585337217E-01 -0.22545295053E-01  0.13023505967E+00  0.18304483976E-01 0.  0.
         14    1    1    2    0    0 -0.96641792933E-02 -0.13234761176E-01 -0.17487739713E-01  0.23966149149E-01  0.00000000000E+00 0. -1.
     999901    1    3    3    0    0  0.96530637939E-01 -0.79350576041E-01  0.40033034765E-01  0.88972879118E+00  0.88000000000E+00 0. -1.
        -11    1    4    4    0    0 -0.43564151963E-01  0.59304922562E-01 -0.14983893728E-01  0.75097851957E-01  0.51100000000E-03 0.  1.
         11    1    4    4    0    0 -0.43302306682E-01  0.33280414655E-01 -0.75614013249E-02  0.55137207715E-01  0.51100000000E-03 0. -1.
</event>
<event>
 8    1  0.1066842E+005  0.1043930E+01  0.7957747E-01            NaN
         13   -1    0    0    0    0  0.00000000000E+00  0.00000000000E+00  0.74505805969E-08  0.10566000000E+00  0.10566000000E+00 0.  1.
     999900   -1    0    0    0    0 -0.00000000000E+00 -0.00000000000E+00 -0.74505805969E-08  0.93827000000E+00  0.93827000000E+00 0.  1.
     999902    2    1    2    0    0  0.55631149554E-02 -0.22782742252E-01 -0.66918266780E-04  0.10204777918E+01  0.10202082716E+01 0.  0.
     999903    2    3    3    0    0 -0.69367046422E-02  0.11964623412E+00  0.39762318309E-01  0.12804929218E+00  0.21265936648E-01 0.  0.
         14    1    1    2    0    0 -0.55631149554E-02  0.22782742252E-01  0.66918266780E-04  0.23452208224E-01  0.00000000000E+00 0. -1.
     999901    1    3    3    0    0  0.12499819598E-01 -0.14242897637E+00 -0.39829236576E-01  0.89242849959E+00  0.88000000000E+00 0. -1.
        -11    1    4    4    0    0 -0.13464584089E-01  0.51975007152E-01  0.15941646890E-01  0.56009763610E-01  0.51100000000E-03 0. -1.
         11    1    4    4    0    0  0.65278794472E-02  0.67671226966E-01  0.23820671420E-01  0.72039528573E-01  0.51100000000E-03 0.  1.
</event>
<event>
 8    1  0.1066842E+005  0.1043930E+01  0.7957747E-01            NaN
         13   -1    0    0    0    0  0.00000000000E+00  0.00000000000E+00  0.74505805969E-08  0.10566000000E+00  0.10566000000E+00 0.  1.
     999900   -1    0    0    0    0 -0.00000000000E+00 -0.00000000000E+00 -0.74505805969E-08  0.93827000000E+00  0.93827000000E+00 0.  1.
     999902    2    1    2    0    0  0.28119201191E-02  0.20073822238E-01 -0.11160548910E-01  0.10207907890E+01  0.10205284963E+01 0.  0.
     999903    2    3    3    0    0  0.77830042408E-01  0.10263046721E+00  0.25839604462E-01  0.13297755996E+00  0.20611113343E-01 0.  0.
         14    1    1    2    0    0 -0.28119201191E-02 -0.20073822238E-01  0.11160548910E-01  0.23139211005E-01  0.00000000000E+00 0.  1.
     999901    1    3    3    0    0 -0.75018122289E-01 -0.82556644971E-01 -0.37000153372E-01  0.88781322904E+00  0.88000000000E+00 0.  1.
        -11    1    4    4    0    0  0.67595236953E-01  0.75823613595E-01  0.22890341268E-01  0.10412763937E+00  0.51100000000E-03 0. -1.
         11    1    4    4    0    0  0.10234805456E-01  0.26806853613E-01  0.29492631937E-02  0.28849920585E-01  0.51100000000E-03 0.  1.
</event>
<event>
 8    1  0.1066842E+005  0.1043930E+01  0.7957747E-01            NaN
         13   -1    0    0    0    0  0.00000000000E+00  0.00000000000E+00  0.74505805969E-08  0.10566000000E+00  0.10566000000E+00 0. -1.
     999900   -1    0    0    0    0 -0.00000000000E+00 -0.00000000000E+00 -0.74505805969E-08  0.93827000000E+00  0.93827000000E+00 0. -1.
     999902    2    1    2    0    0 -0.18630731676E-02 -0.19930027530E-01 -0.82406819932E-02  0.10222831555E+01  0.10220539438E+01 0.  0.
     999903    2    3    3    0    0 -0.71922814681E-01 -0.54007609349E-01 -0.98385956766E-01  0.13425397827E+00  0.15956849765E-01 0.  0.
         14    1    1    2    0    0  0.18630731676E-02  0.19930027530E-01  0.82406819932E-02  0.21646844543E-01  0.00000000000E+00 0.  1.
     999901    1    3    3    0    0  0.70059741513E-01  0.34077581820E-01  0.90145274773E-01  0.88802917718E+00  0.88000000000E+00 0.  1.
        -11    1    4    4    0    0 -0.31225522619E-01 -0.16904060999E-01 -0.30295768676E-01  0.46678423942E-01  0.51100000000E-03 0. -1.
         11    1    4    4    0    0 -0.40697292062E-01 -0.37103548350E-01 -0.68090188091E-01  0.87575554332E-01  0.51100000000E-03 0.  1.
</event>
<event>
 8    1  0.1066842E+005  0.1043930E+01  0.7957747E-01            NaN
         13   -1    0    0    0    0  0.00000000000E+00  0.00000000000E+00  0.74505805969E-08  0.10566000000E+00  0.10566000000E+00 0.  1.
     999900   -1    0    0    0    0 -0.00000000000E+00 -0.00000000000E+00 -0.74505805969E-08  0.93827000000E+00  0.93827000000E+00 0. -1.
     999902    2    1    2    0    0  0.15013110312E-01 -0.99347062060E-03 -0.18097027164E-01  0.10203952840E+01  0.10201238419E+01 0.  0.
     999903    2    3    3    0    0  0.83681340698E-01 -0.96294579276E-01 -0.30311246298E-01  0.13250631891E+00  0.19077214686E-01 0.  0.
         14    1    1    2    0    0 -0.15013110312E-01  0.99347062060E-03  0.18097027164E-01  0.23534716001E-01  0.00000000000E+00 0.  1.
     999901    1    3    3    0    0 -0.68668230387E-01  0.95301108655E-01  0.12214219134E-01  0.88788896509E+00  0.88000000000E+00 0.  1.
        -11    1    4    4    0    0  0.78534939779E-01 -0.85308011686E-01 -0.22642585592E-01  0.11814457849E+00  0.51100000000E-03 0.  1.
         11    1    4    4    0    0  0.51464009200E-02 -0.10986567590E-01 -0.76686607051E-02  0.14361740418E-01  0.51100000000E-03 0. -1.
</event>
<event>
 7    1  0.1066842E+005  0.1043930E+01  0.7957747E-01            NaN
         13   -1    0    0    0    0  0.00000000000E+00  0.00000000000E+00  0.74505805969E-08  0.10566000000E+00  0.10566000000E+00 0.  1.
     999900   -1    0    0    0    0 -0.00000000000E+00 -0.00000000000E+00 -0.74505805969E-08  0.93827000000E+00  0.93827000000E+00 0. -1.
     999902    2    1    2    0    0  0.55865638065E-02 -0.21476805938E-01 -0.90936173235E-02  0.10199475738E+01  0.10196655808E+01 0.  0.
         14    1    1    2    0    0 -0.55865638065E-02  0.21476805938E-01  0.90936173235E-02  0.23982426160E-01  0.00000000000E+00 0. -1.
     999901    1    3    3    0    0  0.11691048863E+00 -0.41607612611E-01  0.38760254178E-01  0.88955135494E+00  0.88000000000E+00 0. -1.
        -11    1    3    3    0    0 -0.10741590018E+00  0.28958284669E-01 -0.46715093570E-01  0.12066200293E+00  0.51100000000E-03 0. -1.
         11    1    3    3    0    0 -0.39080246399E-02 -0.88274779964E-02 -0.11387779320E-02  0.97342159695E-02  0.51100000000E-03 0.  1.
</event>
<event>
 8    1  0.1199223E+005  0.1043930E+01  0.7957747E-01            NaN
         13   -1    0    0    0    0  0.00000000000E+00  0.00000000000E+00  0.74505805969E-08  0.10566000000E+00  0.10566000000E+00 0.  1.
     999900   -1    0    0    0    0 -0.00000000000E+00 -0.00000000000E+00 -0.74505805969E-08  0.93827000000E+00  0.93827000000E+00 0.  1.
     999902    2    1    2    0    0 -0.16383660317E-01 -0.93058813986E-02 -0.14737719266E-01  0.10200087934E+01  0.10197282553E+01 0.  0.
     999903    2    3    3    0    0 -0.12093771227E+00  0.45725467700E-01 -0.18183284958E-01  0.13210571817E+00  0.20113186601E-01 0.  0.
         14    1    1    2    0    0  0.16383660317E-01  0.93058813986E-02  0.14737719266E-01  0.23921206557E-01  0.00000000000E+00 0.  1.
     999901    1    3    3    0    0  0.10455405195E+00 -0.55031349099E-01  0.34455656912E-02  0.88790307528E+00  0.88000000000E+00 0.  1.
        -11    1    4    4    0    0 -0.56341595126E-01  0.31003290804E-01 -0.46129906071E-02  0.64475733306E-01  0.51100000000E-03 0. -1.
         11    1    4    4    0    0 -0.64596117142E-01  0.14722176896E-01 -0.13570294351E-01  0.67629984860E-01  0.51100000000E-03 0.  1.
</event>
<event>
 8    1  0.1066842E+005  0.1043930E+01  0.7957747E-01            NaN
         13   -1    0    0    0    0  0.00000000000E+00  0.00000000000E+00  0.74505805969E-08  0.10566000000E+00  0.10566000000E+00 0.  1.
     999900   -1    0    0    0    0 -0.00000000000E+00 -0.00000000000E+00 -0.74505805969E-08  0.93827000000E+00  0.93827000000E+00 0.  1.
     999902    2    1    2    0    0 -0.74407061737E-02 -0.38692602785E-02 -0.21231909261E-01  0.10211017444E+01  0.10208465326E+01 0.  0.
     999903    2    3    3    0    0 -0.68506133593E-01  0.32567145823E-01 -0.10862021156E+00  0.13391894840E+00  0.19550576841E-01 0.  0.
         14    1    1    2    0    0  0.74407061737E-02  0.38692602785E-02  0.21231909261E-01  0.22828255613E-01  0.00000000000E+00 0.  1.
     999901    1    3    3    0    0  0.61065427420E-01 -0.36436406102E-01  0.87388302298E-01  0.88718279599E+00  0.88000000000E+00 0. -1.
        -11    1    4    4    0    0 -0.14460925635E-01  0.96862746705E-03 -0.12176515658E-01  0.18936347693E-01  0.51100000000E-03 0.  1.
         11    1    4    4    0    0 -0.54045207959E-01  0.31598518356E-01 -0.96443695901E-01  0.11498260071E+00  0.51100000000E-03 0. -1.
</event>
<event>
 8    1  0.1066842E+005  0.1043930E+01  0.7957747E-01            NaN
         13   -1    0    0    0    0  0.00000000000E+00  0.00000000000E+00  0.74505805969E-08  0.10566000000E+00  0.10566000000E+00 0.  1.
     999900   -1    0    0    0    0 -0.00000000000E+00 -0.00000000000E+00 -0.74505805969E-08  0.93827000000E+00  0.93827000000E+00 0. -1.
     999902    2    1    2    0    0  0.12416187753E-01  0.27057694082E-02 -0.19984440338E-01  0.10202475009E+01  0.10199725988E+01 0.  0.
     999903    2    3    3    0    0  0.10708663425E+00 -0.20011387643E-01  0.68985610278E-01  0.13041929697E+00  0.19549315238E-01 0.  0.
         14    1    1    2    0    0 -0.12416187753E-01 -0.27057694082E-02  0.19984440338E-01  0.23682499067E-01  0.00000000000E+00 0.  1.
     999901    1    3    3    0    0 -0.94670446496E-01  0.22717157051E-01 -0.88970050616E-01  0.88982820396E+00  0.88000000000E+00 0. -1.
        -11    1    4    4    0    0  0.71573180210E-01 -0.40901535177E-02  0.42542445709E-01  0.83364082728E-01  0.51100000000E-03 0. -1.
         11    1    4    4    0    0  0.35513454039E-01 -0.15921234125E-01  0.26443164569E-01  0.47055214241E-01  0.51100000000E-03 0.  1.
</event>
<event>
 8    1  0.1066842E+005  0.1043930E+01  0.7957747E-01            NaN
         13   -1    0    0    0    0  0.00000000000E+00  0.00000000000E+00  0.74505805969E-08  0.10566000000E+00  0.10566000000E+00 0. -1.
     999900   -1    0    0    0    0 -0.00000000000E+00 -0.00000000000E+00 -0.74505805969E-08  0.93827000000E+00  0.93827000000E+00 0.  1.
     999902    2    1    2    0    0 -0.18374448851E-01 -0.15173134593E-01 -0.37440263111E-02  0.10198081817E+01  0.10195228616E+01 0.  0.
     999903    2    3    3    0    0  0.10204047761E+00 -0.23564964373E-01  0.71742229699E-01  0.12836645499E+00  0.19063909001E-01 0.  0.
         14    1    1    2    0    0  0.18374448851E-01  0.15173134593E-01  0.37440263111E-02  0.24121818277E-01  0.00000000000E+00 0. -1.
     999901    1    3    3    0    0 -0.12041492646E+00  0.83918297804E-02 -0.75486256010E-01  0.89144172674E+00  0.88000000000E+00 0. -1.
        -11    1    4    4    0    0  0.55340632132E-01 -0.64973256644E-02  0.29108856455E-01  0.62868016119E-01  0.51100000000E-03 0.  1.
         11    1    4    4    0    0  0.46699845479E-01 -0.17067638709E-01  0.42633373244E-01  0.65498438867E-01  0.51100000000E-03 0. -1.
</event>
<event>
 8    1  0.1066842E+005  0.1043930E+01  0.7957747E-01            NaN
         13   -1    0    0    0    0  0.00000000000E+00  0.00000000000E+00  0.74505805969E-08  0.10566000000E+00  0.10566000000E+00 0. -1.
     999900   -1    0    0    0    0 -0.00000000000E+00 -0.00000000000E+00 -0.74505805969E-08  0.93827000000E+00  0.93827000000E+00 0.  1.
     999902    2    1    2    0    0 -0.10596106392E-01 -0.14713030421E-01 -0.17110500881E-01  0.10189996977E+01  0.10186946863E+01 0.  0.
     999903    2    3    3    0    0  0.10360263462E+00  0.33444243696E-01  0.57817467514E-01  0.12716188956E+00  0.31229205391E-01 0.  0.
         14    1    1    2    0    0  0.10596106392E-01  0.14713030421E-01  0.17110500881E-01  0.24930302350E-01  0.00000000000E+00 0. -1.
     999901    1    3    3    0    0 -0.11419874101E+00 -0.48157274116E-01 -0.74927968395E-01  0.89183780809E+00  0.88000000000E+00 0. -1.
        -11    1    4    4    0    0  0.85637900170E-01  0.16273225843E-01  0.52443541343E-01  0.10173128317E+00  0.51100000000E-03 0. -1.
         11    1    4    4    0    0  0.17964734449E-01  0.17171017852E-01  0.53739261708E-02  0.25430606391E-01  0.51100000000E-03 0.  1.
</event>
<event>
 8    1  0.1066842E+005  0.1043930E+01  0.7957747E-01            NaN
         13   -1    0    0    0    0  0.00000000000E+00  0.00000000000E+00  0.74505805969E-08  0.10566000000E+00  0.10566000000E+00 0. -1.
     999900   -1    0    0    0    0 -0.00000000000E+00 -0.00000000000E+00 -0.74505805969E-08  0.93827000000E+00  0.93827000000E+00 0.  1.
     999902    2    1    2    0    0  0.59010963614E-02  0.18651828311E-01  0.15188906680E-01  0.10191627530E+01  0.10188617672E+01 0.  0.
     999903    2    3    3    0    0 -0.28360122497E-01  0.79067695844E-02 -0.12254186861E+00  0.12772624160E+00  0.20752582433E-01 0.  0.
         14    1    1    2    0    0 -0.59010963614E-02 -0.18651828311E-01 -0.15188906680E-01  0.24767246996E-01  0.00000000000E+00 0. -1.
     999901    1    3    3    0    0  0.34261218859E-01  0.10745058726E-01  0.13773077529E+00  0.89143651141E+00  0.88000000000E+00 0. -1.
        -11    1    4    4    0    0 -0.25673455306E-01  0.11688719612E-01 -0.78098395895E-01  0.83038382907E-01  0.51100000000E-03 0. -1.
         11    1    4    4    0    0 -0.26866671917E-02 -0.37819500276E-02 -0.44443472714E-01  0.44687858692E-01  0.51100000000E-03 0.  1.
</event>
<event>
 8    1  0.1066842E+005  0.1043930E+01  0.7957747E-01            NaN
         13   -1    0    0    0    0  0.00000000000E+00  0.00000000000E+00  0.74505805969E-08  0.10566000000E+00  0.10566000000E+00 0. -1.
     999900   -1    0    0    0    0 -0.00000000000E+00 -0.00000000000E+00 -0.74505805969E-08  0.93827000000E+00  0.93827000000E+00 0.  1.
     999902    2    1    2    0    0 -0.35464621743E-02 -0.22334356056E-02 -0.23296683707E-01  0.10202593198E+01  0.10199846953E+01 0.  0.
     999903    2    3    3    0    0  0.12465804966E+00 -0.14868849186E-01 -0.31117171272E-01  0.13084534952E+00  0.19786741101E-01 0.  0.
         14    1    1    2    0    0  0.35464621743E-02  0.22334356056E-02  0.23296683707E-01  0.23670680183E-01  0.00000000000E+00 0. -1.
     999901    1    3    3    0    0 -0.12820451183E+00  0.12635413580E-01  0.78204875648E-02  0.88941397029E+00  0.88000000000E+00 0.  1.
        -11    1    4    4    0    0  0.80429714113E-01 -0.10226111548E-01 -0.29703690980E-01  0.86348611155E-01  0.51100000000E-03 0.  1.
         11    1    4    4    0    0  0.44228335544E-01 -0.46427376374E-02 -0.14134802917E-02  0.44496738367E-01  0.51100000000E-03 0. -1.
</event>
<event>
 8    1  0.1066842E+005  0.1043930E+01  0.7957747E-01            NaN
         13   -1    0    0    0    0  0.00000000000E+00  0.00000000000E+00  0.74505805969E-08  0.10566000000E+00  0.10566000000E+00 0.  1.
     999900   -1    0    0    0    0 -0.00000000000E+00 -0.00000000000E+00 -0.74505805969E-08  0.93827000000E+00  0.93827000000E+00 0.  1.
     999902    2    1    2    0    0 -0.16484330551E-01  0.36075982431E-02 -0.13065693432E-01  0.10225884850E+01  0.10223657610E+01 0.  0.
     999903    2    3    3    0    0 -0.49908079808E-01  0.12262073095E+00 -0.40591574898E-02  0.13390271910E+00  0.19667265549E-01 0.  0.
         14    1    1    2    0    0  0.16484330551E-01 -0.36075982431E-02  0.13065693432E-01  0.21341515027E-01  0.00000000000E+00 0.  1.
     999901    1    3    3    0    0  0.33423749257E-01 -0.11901313271E+00 -0.90065359421E-02  0.88868576587E+00  0.88000000000E+00 0. -1.
        -11    1    4    4    0    0 -0.47983253737E-01  0.97961763812E-01 -0.24406135740E-02  0.10911057476E+00  0.51100000000E-03 0.  1.
         11    1    4    4    0    0 -0.19248260716E-02  0.24658967139E-01 -0.16185439159E-02  0.24792144344E-01  0.51100000000E-03 0. -1.
</event>
<event>
 8    1  0.1066842E+005  0.1043930E+01  0.7957747E-01            NaN
         13   -1    0    0    0    0  0.00000000000E+00  0.00000000000E+00  0.74505805969E-08  0.10566000000E+00  0.10566000000E+00 0.  1.
     999900   -1    0    0    0    0 -0.00000000000E+00 -0.00000000000E+00 -0.74505805969E-08  0.93827000000E+00  0.93827000000E+00 0.  1.
     999902    2    1    2    0    0  0.24184133589E-01  0.11409866523E-01  0.15664009253E-02  0.10171436045E+01  0.10167908345E+01 0.  0.
     999903    2    3    3    0    0  0.10729808935E+00  0.70418126863E-01 -0.17932913969E-01  0.13104534375E+00  0.19485896094E-01 0.  0.
         14    1    1    2    0    0 -0.24184133589E-01 -0.11409866523E-01 -0.15664009253E-02  0.26786395491E-01  0.00000000000E+00 0.  1.
     999901    1    3    3    0    0 -0.83113955763E-01 -0.59008260340E-01  0.19499314895E-01  0.88609826075E+00  0.88000000000E+00 0.  1.
        -11    1    4    4    0    0  0.29211539339E-01  0.28925762662E-01 -0.96550085662E-02  0.42231434827E-01  0.51100000000E-03 0.  1.
         11    1    4    4    0    0  0.78086550014E-01  0.41492364201E-01 -0.82779054030E-02  0.88813908927E-01  0.51100000000E-03 0. -1.
</event>
<event>
 8    1  0.1066842E+005  0.1043930E+01  0.7957747E-01            NaN
         13   -1    0    0    0    0  0.00000000000E+00  0.00000000000E+00  0.74505805969E-08  0.10566000000E+00  0.10566000000E+00 0.  1.
     999900   -1    0    0    0    0 -0.00000000000E+00 -0.00000000000E+00 -0.74505805969E-08  0.93827000000E+00  0.93827000000E+00 0. -1.
     999902    2    1    2    0    0 -0.95859752866E-02  0.12082467874E-01  0.16856835720E-01  0.10210820272E+01  0.10208263693E+01 0.  0.
     999903    2    3    3    0    0  0.93539108214E-01 -0.71688220783E-01  0.51992539388E-01  0.13041551898E+00  0.20401413567E-01 0.  0.
         14    1    1    2    0    0  0.95859752866E-02 -0.12082467874E-01 -0.16856835720E-01  0.22847972834E-01  0.00000000000E+00 0.  1.
     999901    1    3    3    0    0 -0.10312508350E+00  0.83770688656E-01 -0.35135703668E-01  0.89066650818E+00  0.88000000000E+00 0. -1.
        -11    1    4    4    0    0  0.46759129786E-01 -0.36575960804E-01  0.37273527065E-01  0.70098459812E-01  0.51100000000E-03 0.  1.
         11    1    4    4    0    0  0.46779978428E-01 -0.35112259978E-01  0.14719012323E-01  0.60317059173E-01  0.51100000000E-03 0. -1.
</event>
<event>
 8    1  0.1066842E+005  0.1043930E+01  0.7957747E-01            NaN
         13   -1    0    0    0    0  0.00000000000E+00  0.00000000000E+00  0.74505805969E-08  0.10566000000E+00  0.10566000000E+00 0.  1.
     999900   -1    0    0    0    0 -0.00000000000E+00 -0.00000000000E+00 -0.74505805969E-08  0.93827000000E+00  0.93827000000E+00 0.  1.
     999902    2    1    2    0    0 -0.40107533486E-02  0.23170037920E-01 -0.21050317063E-02  0.10203213584E+01  0.10200481883E+01 0.  0.
     999903    2    3    3    0    0 -0.60049444950E-01  0.10072308844E+00 -0.60460006039E-01  0.13321363460E+00  0.18422370350E-01 0.  0.
         14    1    1    2    0    0  0.40107533486E-02 -0.23170037920E-01  0.21050317063E-02  0.23608641598E-01  0.00000000000E+00 0.  1.
     999901    1    3    3    0    0  0.56038691602E-01 -0.77553050519E-01  0.58354974333E-01  0.88710772380E+00  0.88000000000E+00 0.  1.
        -11    1    4    4    0    0 -0.10830133054E-01  0.21049027241E-01 -0.44543722002E-02  0.24092652043E-01  0.51100000000E-03 0.  1.
         11    1    4    4    0    0 -0.49219311896E-01  0.79674061198E-01 -0.56005633839E-01  0.10912098256E+00  0.51100000000E-03 0. -1.
</event>
<event>
 8    1  0.1066842E+005  0.1043930E+01  0.7957747E-01            NaN
         13   -1    0    0    0    0  0.00000000000E+00  0.00000000000E+00  0.74505805969E-08  0.10566000000E+00  0.10566000000E+00 0. -1.
     999900   -1    0    0    0    0 -0.00000000000E+00 -0.00000000000E+00 -0.74505805969E-08  0.93827000000E+00  0.93827000000E+00 0. -1.
     999902    2    1    2    0    0 -0.19778537703E-01 -0.52078106020E-02  0.10142641800E-01  0.10211005228E+01  0.10208452834E+01 0.  0.
     999903    2    3    3    0    0 -0.96624234756E-01  0.11965028335E-01 -0.87250729980E-01  0.13223290816E+00  0.19835510406E-01 0.  0.
         14    1    1    2    0    0  0.19778537703E-01  0.52078106020E-02 -0.10142641800E-01  0.22829477165E-01  0.00000000000E+00 0.  1.
     999901    1    3    3    0    0  0.76845697052E-01 -0.17172838937E-01  0.97393371780E-01  0.88886761468E+00  0.88000000000E+00 0.  1.
        -11    1    4    4    0    0 -0.78946919654E-01  0.17426777996E-01 -0.71472344322E-01  0.10791137956E+00  0.51100000000E-03 0. -1.
         11    1    4    4    0    0 -0.17677315102E-01 -0.54617496601E-02 -0.15778385657E-01  0.24321528601E-01  0.51100000000E-03 0.  1.
</event>
<event>
 8    1  0.1066842E+005  0.1043930E+01  0.7957747E-01            NaN
         13   -1    0    0    0    0  0.00000000000E+00  0.00000000000E+00  0.74505805969E-08  0.10566000000E+00  0.10566000000E+00 0.  1.
     999900   -1    0    0    0    0 -0.00000000000E+00 -0.00000000000E+00 -0.74505805969E-08  0.93827000000E+00  0.93827000000E+00 0. -1.
     999902    2    1    2    0    0  0.20758431743E-01  0.41621042257E-02  0.41029114160E-02  0.10223645303E+01  0.10221370570E+01 0.  0.
     999903    2    3    3    0    0  0.11420872669E+00  0.52087258533E-01  0.45491976428E-01  0.13515382664E+00  0.20983831434E-01 0.  0.
         14    1    1    2    0    0 -0.20758431743E-01 -0.41621042257E-02 -0.41029114160E-02  0.21565469670E-01  0.00000000000E+00 0. -1.
     999901    1    3    3    0    0 -0.93450294950E-01 -0.47925154307E-01 -0.41389065012E-01  0.88721070369E+00  0.88000000000E+00 0. -1.
        -11    1    4    4    0    0  0.52526228699E-01  0.15277900358E-01  0.26862330773E-01  0.60944769064E-01  0.51100000000E-03 0. -1.
         11    1    4    4    0    0  0.61682497993E-01  0.36809358175E-01  0.18629645655E-01  0.74209057575E-01  0.51100000000E-03 0.  1.
</event>
<event>
 8    1  0.1084644E+005  0.1043930E+01  0.7957747E-01            NaN
         13   -1    0    0    0    0  0.00000000000E+00  0.00000000000E+00  0.74505805969E-08  0.10566000000E+00  0.10566000000E+00 0. -1.
     999900   -1    0    0    0    0 -0.00000000000E+00 -0.00000000000E+00 -0.74505805969E-08  0.93827000000E+00  0.93827000000E+00 0.  1.
     999902    2    1    2    0    0 -0.92318756853E-02 -0.21548547668E-02 -0.22120017029E-01  0.10198641304E+01  0.10195801481E+01 0.  0.
     999903    2    3    3    0    0 -0.20153043637E-01  0.60337849533E-01  0.10914905368E+00  0.12786851439E+00  0.19749425283E-01 0.  0.
         14    1    1    2    0    0  0.92318756853E-02  0.21548547668E-02  0.22120017029E-01  0.24065869631E-01  0.00000000000E+00 0. -1.
     999901    1    3    3    0    0  0.10921167952E-01 -0.62492704300E-01 -0.13126907071E+00  0.89199561598E+00  0.88000000000E+00 0.  1.
        -11    1    4    4    0    0 -0.20870541586E-01  0.32327308952E-01  0.59622726345E-01  0.70963124424E-01  0.51100000000E-03 0. -1.
         11    1    4    4    0    0  0.71749794859E-03  0.28010540582E-01  0.49526327335E-01  0.56905389967E-01  0.51100000000E-03 0.  1.
</event>
<event>
 8    1  0.1066842E+005  0.1043930E+01  0.7957747E-01            NaN
         13   -1    0    0    0    0  0.00000000000E+00  0.00000000000E+00  0.74505805969E-08  0.10566000000E+00  0.10566000000E+00 0. -1.
     999900   -1    0    0    0    0 -0.00000000000E+00 -0.00000000000E+00 -0.74505805969E-08  0.93827000000E+00  0.93827000000E+00 0. -1.
     999902    2    1    2    0    0  0.58137680113E-02  0.18958117928E-01  0.12547152047E-01  0.10204642556E+01  0.10201944206E+01 0.  0.
     999903    2    3    3    0    0  0.12710337281E+00 -0.62542965532E-02  0.27255703453E-01  0.13166552952E+00  0.19963834492E-01 0.  0.
         14    1    1    2    0    0 -0.58137680113E-02 -0.18958117928E-01 -0.12547152047E-01  0.23465744360E-01  0.00000000000E+00 0.  1.
     999901    1    3    3    0    0 -0.12128960480E+00  0.25212414481E-01 -0.14708551405E-01  0.88879872612E+00  0.88000000000E+00 0.  1.
        -11    1    4    4    0    0  0.77494654122E-01 -0.13960168448E-02  0.68811046756E-02  0.77813758443E-01  0.51100000000E-03 0. -1.
         11    1    4    4    0    0  0.49608718686E-01 -0.48582797085E-02  0.20374598777E-01  0.53851771073E-01  0.51100000000E-03 0.  1.
</event>
<event>
 8    1  0.1066842E+005  0.1043930E+01  0.7957747E-01            NaN
         13   -1    0    0    0    0  0.00000000000E+00  0.00000000000E+00  0.74505805969E-08  0.10566000000E+00  0.10566000000E+00 0. -1.
     999900   -1    0    0    0    0 -0.00000000000E+00 -0.00000000000E+00 -0.74505805969E-08  0.93827000000E+00  0.93827000000E+00 0.  1.
     999902    2    1    2    0    0 -0.80773880375E-02  0.21176685930E-01 -0.24399877314E-02  0.10211341722E+01  0.10208796932E+01 0.  0.
     999903    2    3    3    0    0 -0.65703320358E-01  0.42205615538E-03 -0.11283396875E+00  0.13212442323E+00  0.20205303082E-01 0.  0.
         14    1    1    2    0    0  0.80773880375E-02 -0.21176685930E-01  0.24399877314E-02  0.22795827790E-01  0.00000000000E+00 0.  1.
     999901    1    3    3    0    0  0.57625932321E-01  0.20754629775E-01  0.11039398102E+00  0.88900974898E+00  0.88000000000E+00 0. -1.
        -11    1    4    4    0    0 -0.41464160209E-01  0.29654086773E-02 -0.51917805848E-01  0.66511577305E-01  0.51100000000E-03 0.  1.
         11    1    4    4    0    0 -0.24239160149E-01 -0.25433525219E-02 -0.60916162904E-01  0.65612845927E-01  0.51100000000E-03 0. -1.
</event>
<event>
 8    1  0.1066842E+005  0.1043930E+01  0.7957747E-01            NaN
         13   -1    0    0    0    0  0.00000000000E+00  0.00000000000E+00  0.74505805969E-08  0.10566000000E+00  0.10566000000E+00 0. -1.
     999900   -1    0    0    0    0 -0.00000000000E+00 -0.00000000000E+00 -0.74505805969E-08  0.93827000000E+00  0.93827000000E+00 0.  1.
     999902    2    1    2    0    0 -0.13834367529E-01 -0.18273384038E-01 -0.64669941034E-02  0.10201155443E+01  0.10198375338E+01 0.  0.
     999903    2    3    3    0    0 -0.21889028132E-01 -0.71237629248E-01  0.10627413669E+00  0.13130698704E+00  0.19834397956E-01 0.  0.
         14    1    1    2    0    0  0.13834367529E-01  0.18273384038E-01  0.64669941034E-02  0.23814455733E-01  0.00000000000E+00 0. -1.
     999901    1    3    3    0    0  0.80546606035E-02  0.52964245210E-01 -0.11274113080E+00  0.88880855723E+00  0.88000000000E+00 0.  1.
        -11    1    4    4    0    0 -0.96591342328E-02 -0.47608916380E-01  0.53919100595E-01  0.72577119831E-01  0.51100000000E-03 0. -1.
         11    1    4    4    0    0 -0.12229893899E-01 -0.23628712868E-01  0.52355036097E-01  0.58729867208E-01  0.51100000000E-03 0.  1.
</event>
<event>
 8    1  0.1066842E+005  0.1043930E+01  0.7957747E-01            NaN
         13   -1    0    0    0    0  0.00000000000E+00  0.00000000000E+00  0.74505805969E-08  0.10566000000E+00  0.10566000000E+00 0.  1.
     999900   -1    0    0    0    0 -0.00000000000E+00 -0.00000000000E+00 -0.74505805969E-08  0.93827000000E+00  0.93827000000E+00 0.  1.
     999902    2    1    2    0    0  0.20114162394E-01  0.12421320592E-01  0.22879689810E-02  0.10201791361E+01  0.10199026258E+01 0.  0.
     999903    2    3    3    0    0 -0.12681009786E-01  0.12944920954E+00  0.78152052283E-02  0.13180894274E+00  0.19864895965E-01 0.  0.
         14    1    1    2    0    0 -0.20114162394E-01 -0.12421320592E-01 -0.22879689810E-02  0.23750863902E-01  0.00000000000E+00 0. -1.
     999901    1    3    3    0    0  0.32795172180E-01 -0.11702788895E+00 -0.55272362473E-02  0.88837019336E+00  0.88000000000E+00 0.  1.
        -11    1    4    4    0    0 -0.16223671169E-01  0.78372375995E-01  0.93769719279E-02  0.80583035118E-01  0.51100000000E-03 0.  1.
         11    1    4    4    0    0  0.35426613832E-02  0.51076833550E-01 -0.15617666997E-02  0.51225907619E-01  0.51100000000E-03 0. -1.
</event>
<event>
 8    1  0.1066842E+005  0.1043930E+01  0.7957747E-01            NaN
         13   -1    0    0    0    0  0.00000000000E+00  0.00000000000E+00  0.74505805969E-08  0.10566000000E+00  0.10566000000E+00 0.  1.
     999900   -1    0    0    0    0 -0.00000000000E+00 -0.00000000000E+00 -0.74505805969E-08  0.93827000000E+00  0.93827000000E+00 0. -1.
     999902    2    1    2    0    0 -0.73427053302E-02 -0.15347924015E-01 -0.18589853445E-01  0.10187296678E+01  0.10184179296E+01 0.  0.
     999903    2    3    3    0    0 -0.11043715091E+00 -0.64358864403E-01  0.18850977502E-01  0.13056732180E+00  0.18815909215E-01 0.  0.
         14    1    1    2    0    0  0.73427053302E-02  0.15347924015E-01  0.18589853445E-01  0.25200332225E-01  0.00000000000E+00 0.  1.
     999901    1    3    3    0    0  0.10309444558E+00  0.49010940388E-01 -0.37440830947E-01  0.88816234598E+00  0.88000000000E+00 0. -1.
        -11    1    4    4    0    0 -0.64344608411E-01 -0.33249976300E-01  0.19292143077E-01  0.74954902848E-01  0.51100000000E-03 0. -1.
         11    1    4    4    0    0 -0.46092542503E-01 -0.31108888103E-01 -0.44116557544E-03  0.55612418950E-01  0.51100000000E-03 0.  1.
</event>
<event>
 8    1  0.1066842E+005  0.1043930E+01  0.7957747E-01            NaN
         13   -1    0    0    0    0  0.00000000000E+00  0.00000000000E+00  0.74505805969E-08  0.10566000000E+00  0.10566000000E+00 0.  1.
     999900   -1    0    0    0    0 -0.00000000000E+00 -0.00000000000E+00 -0.74505805969E-08  0.93827000000E+00  0.93827000000E+00 0.  1.
     999902    2    1    2    0    0  0.10821880787E-01  0.16730876868E-01 -0.11961179336E-01  0.10206898374E+01  0.10204252247E+01 0.  0.
     999903    2    3    3    0    0  0.69823581657E-01  0.10184397837E+00  0.44415651093E-01  0.13282510238E+00  0.20548218283E-01 0.  0.
         14    1    1    2    0    0 -0.10821880787E-01 -0.16730876868E-01  0.11961179336E-01  0.23240162557E-01  0.00000000000E+00 0. -1.
     999901    1    3    3    0    0 -0.59001700870E-01 -0.85113101506E-01 -0.56376830429E-01  0.88786473506E+00  0.88000000000E+00 0.  1.
        -11    1    4    4    0    0  0.61629417283E-01  0.83762054345E-01  0.44118181980E-01  0.11296433917E+00  0.51100000000E-03 0. -1.
         11    1    4    4    0    0  0.81941643737E-02  0.18081924030E-01  0.29746911309E-03  0.19860763210E-01  0.51100000000E-03 0.  1.
</event>
<event>
 8    1  0.1066842E+005  0.1043930E+01  0.7957747E-01            NaN
         13   -1    0    0    0    0  0.00000000000E+00  0.00000000000E+00  0.74505805969E-08  0.10566000000E+00  0.10566000000E+00 0. -1.
     999900   -1    0    0    0    0 -0.00000000000E+00 -0.00000000000E+00 -0.74505805969E-08  0.93827000000E+00  0.93827000000E+00 0.  1.
     999902    2    1    2    0    0 -0.14915788854E-01  0.21871975431E-01  0.19770331409E-02  0.10173824441E+01  0.10170360194E+01 0.  0.
     999903    2    3    3    0    0  0.50783474188E-01  0.11781811724E+00  0.10367223313E-01  0.12969305549E+00  0.15897777278E-01 0.  0.
         14    1    1    2    0    0  0.14915788854E-01 -0.21871975431E-01 -0.19770331409E-02  0.26547555941E-01  0.00000000000E+00 0.  1.
     999901    1    3    3    0    0 -0.65699263042E-01 -0.95946141806E-01 -0.83901901724E-02  0.88768938857E+00  0.88000000000E+00 0. -1.
        -11    1    4    4    0    0  0.29209125789E-01  0.74308928343E-01  0.13698984606E-01  0.81011808776E-01  0.51100000000E-03 0.  1.
         11    1    4    4    0    0  0.21574348399E-01  0.43509188894E-01 -0.33317612925E-02  0.48681246712E-01  0.51100000000E-03 0. -1.
</event>
<event>
 8    1  0.1066842E+005  0.1043930E+01  0.7957747E-01            NaN
         13   -1    0    0    0    0  0.00000000000E+00  0.00000000000E+00  0.74505805969E-08  0.10566000000E+00  0.10566000000E+00 0.  1.
     999900   -1    0    0    0    0 -0.00000000000E+00 -0.00000000000E+00 -0.74505805969E-08  0.93827000000E+00  0.93827000000E+00 0. -1.
     999902    2    1    2    0    0  0.22788962887E-01  0.76785126400E-02 -0.59679621801E-02  0.10191527330E+01  0.10188515006E+01 0.  0.
     999903    2    3    3    0    0  0.79205265193E-01 -0.98451111276E-01  0.24698795222E-01  0.13045326401E+00  0.21022089776E-01 0.  0.
         14    1    1    2    0    0 -0.22788962887E-01 -0.76785126400E-02  0.59679621801E-02  0.24777266968E-01  0.00000000000E+00 0.  1.
     999901    1    3    3    0    0 -0.56416302306E-01  0.10612962392E+00 -0.30666757402E-01  0.88869946903E+00  0.88000000000E+00 0. -1.
        -11    1    4    4    0    0  0.30613810615E-01 -0.52699596347E-01  0.66302614380E-02  0.61308028375E-01  0.51100000000E-03 0. -1.
         11    1    4    4    0    0  0.48591454578E-01 -0.45751514929E-01  0.18068533784E-01  0.69145235630E-01  0.51100000000E-03 0.  1.
</event>
<event>
 8    1  0.1066842E+005  0.1043930E+01  0.7957747E-01            NaN
         13   -1    0    0    0    0  0.00000000000E+00  0.00000000000E+00  0.74505805969E-08  0.10566000000E+00  0.10566000000E+00 0.  1.
     999900   -1    0    0    0    0 -0.00000000000E+00 -0.00000000000E+00 -0.74505805969E-08  0.93827000000E+00  0.93827000000E+00 0. -1.
     999902    2    1    2    0    0  0.43115997408E-02 -0.94752174761E-02 -0.22138070918E-01  0.10194664798E+01  0.10191729193E+01 0.  0.
     999903    2    3    3    0    0 -0.25572999041E-01  0.10136179897E+00 -0.75339957419E-01  0.13041733928E+00  0.20109217587E-01 0.  0.
         14    1    1    2    0    0 -0.43115997408E-02  0.94752174761E-02  0.22138070918E-01  0.24463520239E-01  0.00000000000E+00 0.  1.
     999901    1    3    3    0    0  0.29884598781E-01 -0.11083701644E+00  0.53201886502E-01  0.88904914048E+00  0.88000000000E+00 0. -1.
        -11    1    4    4    0    0 -0.77083626354E-02  0.62698717042E-01 -0.52166038770E-01  0.81927435546E-01  0.51100000000E-03 0. -1.
         11    1    4    4    0    0 -0.17864636405E-01  0.38663081925E-01 -0.23173918649E-01  0.48489903736E-01  0.51100000000E-03 0.  1.
</event>
<event>
 8    1  0.1066842E+005  0.1043930E+01  0.7957747E-01            NaN
         13   -1    0    0    0    0  0.00000000000E+00  0.00000000000E+00  0.74505805969E-08  0.10566000000E+00  0.10566000000E+00 0. -1.
     999900   -1    0    0    0    0 -0.00000000000E+00 -0.00000000000E+00 -0.74505805969E-08  0.93827000000E+00  0.93827000000E+00 0.  1.
     999902    2    1    2    0    0  0.88839244407E-02  0.20463545411E-01 -0.30149062708E-02  0.10214184371E+01  0.10211703351E+01 0.  0.
     999903    2    3    3    0    0  0.64519228268E-01 -0.10691270838E+00 -0.30641211590E-01  0.13008056076E+00  0.19723346823E-01 0.  0.
         14    1    1    2    0    0 -0.88839244407E-02 -0.20463545411E-01  0.30149062708E-02  0.22511562897E-01  0.00000000000E+00 0.  1.
     999901    1    3    3    0    0 -0.55635303827E-01  0.12737625379E+00  0.27626305320E-01  0.89133787635E+00  0.88000000000E+00 0. -1.
        -11    1    4    4    0    0  0.52793506822E-01 -0.90313353039E-01 -0.18025799920E-01  0.10615482412E+00  0.51100000000E-03 0. -1.
         11    1    4    4    0    0  0.11725721446E-01 -0.16599355342E-01 -0.12615411670E-01  0.23925736641E-01  0.51100000000E-03 0.  1.
</event>
<event>
 8    1  0.1066842E+005  0.1043930E+01  0.7957747E-01            NaN
         13   -1    0    0    0    0  0.00000000000E+00  0.00000000000E+00  0.74505805969E-08  0.10566000000E+00  0.10566000000E+00 0.  1.
     999900   -1    0    0    0    0 -0.00000000000E+00 -0.00000000000E+00 -0.74505805969E-08  0.93827000000E+00  0.93827000000E+00 0.  1.
     999902    2    1    2    0    0 -0.23093705829E-01 -0.21245893750E-02  0.45586498214E-02  0.10202949748E+01  0.10200211866E+01 0.  0.
     999903    2    3    3    0    0  0.28242613264E-01 -0.10582903624E+00 -0.66656073228E-01  0.12986723109E+00  0.20616389018E-01 0.  0.
         14    1    1    2    0    0  0.23093705829E-01  0.21245893750E-02 -0.45586498214E-02  0.23635025220E-01  0.00000000000E+00 0.  1.
     999901    1    3    3    0    0 -0.51336319093E-01  0.10370444687E+00  0.71214723049E-01  0.89042774369E+00  0.88000000000E+00 0. -1.
        -11    1    4    4    0    0  0.24869382776E-01 -0.86635191435E-01 -0.45051089678E-01  0.10076707993E+00  0.51100000000E-03 0. -1.
         11    1    4    4    0    0  0.33732304879E-02 -0.19193844808E-01 -0.21604983550E-01  0.29100151161E-01  0.51100000000E-03 0.  1.
</event>
<event>
 8    1  0.1066842E+005  0.1043930E+01  0.7957747E-01            NaN
         13   -1    0    0    0    0  0.00000000000E+00  0.00000000000E+00  0.74505805969E-08  0.10566000000E+00  0.10566000000E+00 0. -1.
     999900   -1    0    0    0    0 -0.00000000000E+00 -0.00000000000E+00 -0.74505805969E-08  0.93827000000E+00  0.93827000000E+00 0.  1.
     999902    2    1    2    0    0  0.62140407513E-02 -0.20844133211E-01  0.20995853582E-01  0.10136989223E+01  0.10132480382E+01 0.  0.
     999903    2    3    3    0    0  0.63029212260E-02 -0.88297153216E-01  0.90931613782E-01  0.12835100855E+00  0.19217412140E-01 0.  0.
         14    1    1    2    0    0 -0.62140407513E-02  0.20844133211E-01 -0.20995853582E-01  0.30231077708E-01  0.00000000000E+00 0.  1.
     999901    1    3    3    0    0 -0.88880474689E-04  0.67453020006E-01 -0.69935760199E-01  0.88534791374E+00  0.88000000000E+00 0.  1.
        -11    1    4    4    0    0 -0.68404836457E-02 -0.36765282891E-01  0.37572028277E-01  0.53013174517E-01  0.51100000000E-03 0. -1.
         11    1    4    4    0    0  0.13143404872E-01 -0.51531870326E-01  0.53359585505E-01  0.75337834035E-01  0.51100000000E-03 0.  1.
</event>
<event>
 8    1  0.1066842E+005  0.1043930E+01  0.7957747E-01            NaN
         13   -1    0    0    0    0  0.00000000000E+00  0.00000000000E+00  0.74505805969E-08  0.10566000000E+00  0.10566000000E+00 0. -1.
     999900   -1    0    0    0    0 -0.00000000000E+00 -0.00000000000E+00 -0.74505805969E-08  0.93827000000E+00  0.93827000000E+00 0. -1.
     999902    2    1    2    0    0  0.63789400177E-02  0.19941668807E-01  0.10545098654E-01  0.10204873010E+01  0.10202180019E+01 0.  0.
     999903    2    3    3    0    0 -0.47045849312E-01 -0.11750178017E+00  0.36764304131E-02  0.12819133644E+00  0.19988054351E-01 0.  0.
         14    1    1    2    0    0 -0.63789400177E-02 -0.19941668807E-01 -0.10545098654E-01  0.23442698996E-01  0.00000000000E+00 0.  1.
     999901    1    3    3    0    0  0.53424789329E-01  0.13744344897E+00  0.68686682412E-02  0.89229596457E+00  0.88000000000E+00 0. -1.
        -11    1    4    4    0    0 -0.77142868849E-02 -0.43138404394E-01 -0.20260325312E-02  0.43872520838E-01  0.51100000000E-03 0.  1.
         11    1    4    4    0    0 -0.39331562427E-01 -0.74363375773E-01  0.57024629444E-02  0.84318815599E-01  0.51100000000E-03 0. -1.
</event>
<event>
 8    1  0.1066842E+005  0.1043930E+01  0.7957747E-01            NaN
         13   -1    0    0    0    0  0.00000000000E+00  0.00000000000E+00  0.74505805969E-08  0.10566000000E+00  0.10566000000E+00 0. -1.
     999900   -1    0    0    0    0 -0.00000000000E+00 -0.00000000000E+00 -0.74505805969E-08  0.93827000000E+00  0.93827000000E+00 0.  1.
     999902    2    1    2    0    0 -0.39251614538E-02  0.53521147358E-02 -0.20244718169E-01  0.10226250560E+01  0.10224031028E+01 0.  0.
     999903    2    3    3    0    0 -0.50249421275E-01 -0.93693796353E-01  0.73638313154E-01  0.13090197505E+00  0.20228546515E-01 0.  0.
         14    1    1    2    0    0  0.39251614538E-02 -0.53521147358E-02  0.20244718169E-01  0.21304943988E-01  0.00000000000E+00 0. -1.
     999901    1    3    3    0    0  0.46324259822E-01  0.99045911089E-01 -0.93883031323E-01  0.89172308096E+00  0.88000000000E+00 0.  1.
        -11    1    4    4    0    0 -0.44575535770E-02 -0.26443395669E-01  0.16695885342E-01  0.31593300979E-01  0.51100000000E-03 0.  1.
         11    1    4    4    0    0 -0.45791867698E-01 -0.67250400684E-01  0.56942427812E-01  0.99308674070E-01  0.51100000000E-03 0. -1.
</event>
<event>
 8    1  0.1066842E+005  0.1043930E+01  0.7957747E-01            NaN
         13   -1    0    0    0    0  0.00000000000E+00  0.00000000000E+00  0.74505805969E-08  0.10566000000E+00  0.10566000000E+00 0. -1.
     999900   -1    0    0    0    0 -0.00000000000E+00 -0.00000000000E+00 -0.74505805969E-08  0.93827000000E+00  0.93827000000E+00 0. -1.
     999902    2    1    2    0    0 -0.97819612611E-02  0.21379788465E-01 -0.15852380908E-02  0.10203652997E+01  0.10200931574E+01 0.  0.
     999903    2    3    3    0    0 -0.36336264173E-01 -0.84647138290E-01  0.88197701992E-01  0.12906971655E+00  0.19866931767E-01 0.  0.
         14    1    1    2    0    0  0.97819612611E-02 -0.21379788465E-01  0.15852380908E-02  0.23564700311E-01  0.00000000000E+00 0. -1.
     999901    1    3    3    0    0  0.26554302912E-01  0.10602692676E+00 -0.89782940083E-01  0.89129558314E+00  0.88000000000E+00 0.  1.
        -11    1    4    4    0    0 -0.22149401225E-02 -0.20143148967E-01  0.27424459817E-01  0.34102998802E-01  0.51100000000E-03 0. -1.
         11    1    4    4    0    0 -0.34121324051E-01 -0.64503989324E-01  0.60773242175E-01  0.94966717744E-01  0.51100000000E-03 0.  1.
</event>
<event>
 8    1  0.1066842E+005  0.1043930E+01  0.7957747E-01            NaN
         13   -1    0    0    0    0  0.00000000000E+00  0.00000000000E+00  0.74505805969E-08  0.10566000000E+00  0.10566000000E+00 0.  1.
     999900   -1    0    0    0    0 -0.00000000000E+00 -0.00000000000E+00 -0.74505805969E-08  0.93827000000E+00  0.93827000000E+00 0. -1.
     999902    2    1    2    0    0  0.17590141900E-01  0.15357291292E-01  0.48650404919E-03  0.10205741405E+01  0.10203068558E+01 0.  0.
     999903    2    3    3    0    0 -0.10906746506E+00  0.66351886823E-01 -0.12131677653E-01  0.12995535745E+00  0.21045961762E-01 0.  0.
         14    1    1    2    0    0 -0.17590141900E-01 -0.15357291292E-01 -0.48650404919E-03  0.23355859524E-01  0.00000000000E+00 0. -1.
     999901    1    3    3    0    0  0.12665760696E+00 -0.50994595531E-01  0.12618181702E-01  0.89061878303E+00  0.88000000000E+00 0. -1.
        -11    1    4    4    0    0 -0.17664355230E-01  0.20106493166E-01  0.26940635329E-03  0.26770024541E-01  0.51100000000E-03 0.  1.
         11    1    4    4    0    0 -0.91403109833E-01  0.46245393657E-01 -0.12401084006E-01  0.10318533291E+00  0.51100000000E-03 0. -1.
</event>
<event>
 8    1  0.1066842E+005  0.1043930E+01  0.7957747E-01            NaN
         13   -1    0    0    0    0  0.00000000000E+00  0.00000000000E+00  0.74505805969E-08  0.10566000000E+00  0.10566000000E+00 0. -1.
     999900   -1    0    0    0    0 -0.00000000000E+00 -0.00000000000E+00 -0.74505805969E-08  0.93827000000E+00  0.93827000000E+00 0. -1.
     999902    2    1    2    0    0  0.78765140167E-02  0.21967948658E-01 -0.33035390490E-02  0.10203600273E+01  0.10200877618E+01 0.  0.
     999903    2    3    3    0    0 -0.11240172248E+00  0.98036132652E-02  0.60742746393E-01  0.12978900158E+00  0.20621484956E-01 0.  0.
         14    1    1    2    0    0 -0.78765140167E-02 -0.21967948658E-01  0.33035390490E-02  0.23569972667E-01  0.00000000000E+00 0.  1.
     999901    1    3    3    0    0  0.12027823650E+00  0.12164335393E-01 -0.64046285442E-01  0.89057102575E+00  0.88000000000E+00 0. -1.
        -11    1    4    4    0    0 -0.16515766677E-01 -0.15194471568E-03  0.17696990662E-01  0.24212357085E-01  0.51100000000E-03 0.  1.
         11    1    4    4    0    0 -0.95885955806E-01  0.99555579808E-02  0.43045755731E-01  0.10557664450E+00  0.51100000000E-03 0. -1.
</event>
<event>
 8    1  0.1066842E+005  0.1043930E+01  0.7957747E-01            NaN
         13   -1    0    0    0    0  0.00000000000E+00  0.00000000000E+00  0.74505805969E-08  0.10566000000E+00  0.10566000000E+00 0.  1.
     999900   -1    0    0    0    0 -0.00000000000E+00 -0.00000000000E+00 -0.74505805969E-08  0.93827000000E+00  0.93827000000E+00 0.  1.
     999902    2    1    2    0    0  0.12830655551E-01 -0.12675446602E-02 -0.35648568741E-02  0.10305531321E+01  0.10304663107E+01 0.  0.
     999903    2    3    3    0    0 -0.10141225150E+00  0.58873070542E-01  0.70204006047E-01  0.13807894165E+00  0.19664904639E-01 0.  0.
         14    1    1    2    0    0 -0.12830655551E-01  0.12675446602E-02  0.35648568741E-02  0.13376867940E-01  0.00000000000E+00 0.  1.
     999901    1    3    3    0    0  0.11424290705E+00 -0.60140615202E-01 -0.73768862921E-01  0.89247419041E+00  0.88000000000E+00 0.  1.
        -11    1    4    4    0    0 -0.35197748268E-01  0.19522380535E-01  0.35196974747E-01  0.53470486974E-01  0.51100000000E-03 0.  1.
         11    1    4    4    0    0 -0.66214503227E-01  0.39350690007E-01  0.35007031300E-01  0.84608454679E-01  0.51100000000E-03 0. -1.
</event>
<event>
 8    1  0.1066842E+005  0.1043930E+01  0.7957747E-01            NaN
         13   -1    0    0    0    0  0.00000000000E+00  0.00000000000E+00  0.74505805969E-08  0.10566000000E+00  0.10566000000E+00 0. -1.
     999900   -1    0    0    0    0 -0.00000000000E+00 -0.00000000000E+00 -0.74505805969E-08  0.93827000000E+00  0.93827000000E+00 0. -1.
     999902    2    1    2    0    0 -0.15899174253E-01 -0.93296826787E-02  0.14892867029E-01  0.10202313880E+01  0.10199561073E+01 0.  0.
     999903    2    3    3    0    0 -0.34794695407E-01  0.12311380014E+00  0.12947462006E-01  0.13011785513E+00  0.19883179755E-01 0.  0.
         14    1    1    2    0    0  0.15899174253E-01  0.93296826787E-02 -0.14892867029E-01  0.23698611967E-01  0.00000000000E+00 0.  1.
     999901    1    3    3    0    0  0.18895521154E-01 -0.13244348282E+00  0.19454050225E-02  0.89011353291E+00  0.88000000000E+00 0.  1.
        -11    1    4    4    0    0 -0.16058869176E-01  0.42774306105E-01  0.13410766965E-01  0.47619726307E-01  0.51100000000E-03 0. -1.
         11    1    4    4    0    0 -0.18735826231E-01  0.80339494035E-01 -0.46330495872E-03  0.82498128820E-01  0.51100000000E-03 0.  1.
</event>
<event>
 8    1  0.1066842E+005  0.1043930E+01  0.7957747E-01            NaN
         13   -1    0    0    0    0  0.00000000000E+00  0.00000000000E+00  0.74505805969E-08  0.10566000000E+00  0.10566000000E+00 0.  1.
     999900   -1    0    0    0    0 -0.00000000000E+00 -0.00000000000E+00 -0.74505805969E-08  0.93827000000E+00  0.93827000000E+00 0. -1.
     999902    2    1    2    0    0  0.11233340757E-01 -0.46815851288E-02 -0.20473302421E-01  0.10201127521E+01  0.10198346757E+01 0.  0.
     999903    2    3    3    0    0 -0.39766105873E-02 -0.11173261458E+00  0.63734459737E-01  0.12950497498E+00  0.14472960792E-01 0.  0.
         14    1    1    2    0    0 -0.11233340757E-01  0.46815851288E-02  0.20473302421E-01  0.23817247866E-01  0.00000000000E+00 0.  1.
     999901    1    3    3    0    0  0.15209951344E-01  0.10705102945E+00 -0.84207762157E-01  0.89060777716E+00  0.88000000000E+00 0. -1.
        -11    1    4    4    0    0 -0.25192541307E-02 -0.89759541730E-01  0.57439474104E-01  0.10659585489E+00  0.51100000000E-03 0. -1.
         11    1    4    4    0    0 -0.14573564566E-02 -0.21973072846E-01  0.62949856330E-02  0.22909120089E-01  0.51100000000E-03 0.  1.
</event>
<event>
 8    1  0.1066842E+005  0.1043930E+01  0.7957747E-01            NaN
         13   -1    0    0    0    0  0.00000000000E+00  0.00000000000E+00  0.74505805969E-08  0.10566000000E+00  0.10566000000E+00 0. -1.
     999900   -1    0    0    0    0 -0.00000000000E+00 -0.00000000000E+00 -0.74505805969E-08  0.93827000000E+00  0.93827000000E+00 0.  1.
     999902    2    1    2    0    0  0.72639722836E-02 -0.15157352181E-01  0.16568525321E-01  0.10203285880E+01  0.10200555871E+01 0.  0.
     999903    2    3    3    0    0  0.12636848803E+00 -0.32286716072E-01  0.64243660440E-02  0.13208188533E+00  0.19822339740E-01 0.  0.
         14    1    1    2    0    0 -0.72639722836E-02  0.15157352181E-01 -0.16568525321E-01  0.23601412030E-01  0.00000000000E+00 0.  1.
     999901    1    3    3    0    0 -0.11910451575E+00  0.17129363890E-01  0.10144159277E-01  0.88824670264E+00  0.88000000000E+00 0. -1.
        -11    1    4    4    0    0  0.83985711772E-01 -0.30937631367E-01  0.52592639656E-02  0.89658562307E-01  0.51100000000E-03 0. -1.
         11    1    4    4    0    0  0.42382776257E-01 -0.13490847050E-02  0.11651020784E-02  0.42423323027E-01  0.51100000000E-03 0.  1.
</event>
<event>
 7    1  0.1066842E+005  0.1043930E+01  0.7957747E-01            NaN
         13   -1    0    0    0    0  0.00000000000E+00  0.00000000000E+00  0.74505805969E-08  0.10566000000E+00  0.10566000000E+00 0. -1.
     999900   -1    0    0    0    0 -0.00000000000E+00 -0.00000000000E+00 -0.74505805969E-08  0.93827000000E+00  0.93827000000E+00 0. -1.
     999902    2    1    2    0    0 -0.22400527883E-01  0.34992447515E-02  0.87602307872E-02  0.10196242392E+01  0.10193344982E+01 0.  0.
         14    1    1    2    0    0  0.22400527883E-01 -0.34992447515E-02 -0.87602307872E-02  0.24305760772E-01  0.00000000000E+00 0.  1.
     999901    1    3    3    0    0 -0.14032322784E+00  0.36193295679E-02  0.22384703728E-01  0.89140607064E+00  0.88000000000E+00 0. -1.
        -11    1    3    3    0    0  0.63273044559E-01 -0.67851825449E-02  0.16109457288E-01  0.65645202452E-01  0.51100000000E-03 0.  1.
         11    1    3    3    0    0  0.54649655398E-01  0.66650977285E-02 -0.29733930229E-01  0.62572966133E-01  0.51100000000E-03 0. -1.
</event>
<event>
 8    1  0.1066842E+005  0.1043930E+01  0.7957747E-01            NaN
         13   -1    0    0    0    0  0.00000000000E+00  0.00000000000E+00  0.74505805969E-08  0.10566000000E+00  0.10566000000E+00 0. -1.
     999900   -1    0    0    0    0 -0.00000000000E+00 -0.00000000000E+00 -0.74505805969E-08  0.93827000000E+00  0.93827000000E+00 0. -1.
     999902    2    1    2    0    0 -0.19684060315E-01 -0.31174188878E-02  0.13509029291E-01  0.10198535716E+01  0.10195693371E+01 0.  0.
     999903    2    3    3    0    0  0.11096376840E+00 -0.41138544941E-01 -0.43333797513E-01  0.12758367516E+00  0.19860472874E-01 0.  0.
         14    1    1    2    0    0  0.19684060315E-01  0.31174188878E-02 -0.13509029291E-01  0.24076428377E-01  0.00000000000E+00 0.  1.
     999901    1    3    3    0    0 -0.13064782872E+00  0.38021126053E-01  0.56842826804E-01  0.89226989646E+00  0.88000000000E+00 0.  1.
        -11    1    4    4    0    0  0.34367401236E-01 -0.32761976323E-02 -0.13705881843E-01  0.37147867459E-01  0.51100000000E-03 0.  1.
         11    1    4    4    0    0  0.76596367165E-01 -0.37862347309E-01 -0.29627915670E-01  0.90435807702E-01  0.51100000000E-03 0. -1.
</event>
<event>
 8    1  0.1066842E+005  0.1043930E+01  0.7957747E-01            NaN
         13   -1    0    0    0    0  0.00000000000E+00  0.00000000000E+00  0.74505805969E-08  0.10566000000E+00  0.10566000000E+00 0. -1.
     999900   -1    0    0    0    0 -0.00000000000E+00 -0.00000000000E+00 -0.74505805969E-08  0.93827000000E+00  0.93827000000E+00 0.  1.
     999902    2    1    2    0    0  0.21244636329E-01  0.50694878266E-02  0.85020399664E-02  0.10204924455E+01  0.10202232659E+01 0.  0.
     999903    2    3    3    0    0  0.59524345085E-01  0.33782473008E-01  0.11261451556E+00  0.13306403753E+00  0.18428397330E-01 0.  0.
         14    1    1    2    0    0 -0.21244636329E-01 -0.50694878266E-02 -0.85020399664E-02  0.23437554547E-01  0.00000000000E+00 0.  1.
     999901    1    3    3    0    0 -0.38279708756E-01 -0.28712985181E-01 -0.10411247559E+00  0.88742840793E+00  0.88000000000E+00 0.  1.
        -11    1    4    4    0    0  0.27776994485E-01  0.20003207882E-01  0.71838964376E-01  0.79578814214E-01  0.51100000000E-03 0.  1.
         11    1    4    4    0    0  0.31747350600E-01  0.13779265126E-01  0.40775551182E-01  0.53485223312E-01  0.51100000000E-03 0. -1.
</event>
<event>
 8    1  0.1066842E+005  0.1043930E+01  0.7957747E-01            NaN
         13   -1    0    0    0    0  0.00000000000E+00  0.00000000000E+00  0.74505805969E-08  0.10566000000E+00  0.10566000000E+00 0. -1.
     999900   -1    0    0    0    0 -0.00000000000E+00 -0.00000000000E+00 -0.74505805969E-08  0.93827000000E+00  0.93827000000E+00 0. -1.
     999902    2    1    2    0    0 -0.18719174677E-01 -0.14478823677E-01  0.93919368809E-03  0.10202461253E+01  0.10199711909E+01 0.  0.
     999903    2    3    3    0    0  0.18257609189E-01  0.31302518799E-01  0.12307872058E+00  0.12986346718E+00  0.20073880374E-01 0.  0.
         14    1    1    2    0    0  0.18719174677E-01  0.14478823677E-01 -0.93919368809E-03  0.23683874692E-01  0.00000000000E+00 0.  1.
     999901    1    3    3    0    0 -0.36976783866E-01 -0.45781342476E-01 -0.12213952689E+00  0.89038265813E+00  0.88000000000E+00 0. -1.
        -11    1    4    4    0    0  0.16677239968E-01  0.31654995738E-01  0.91632869287E-01  0.98371809697E-01  0.51100000000E-03 0.  1.
         11    1    4    4    0    0  0.15803692206E-02 -0.35247693933E-03  0.31445851289E-01  0.31491657485E-01  0.51100000000E-03 0. -1.
</event>
<event>
 8    1  0.1066842E+005  0.1043930E+01  0.7957747E-01            NaN
         13   -1    0    0    0    0  0.00000000000E+00  0.00000000000E+00  0.74505805969E-08  0.10566000000E+00  0.10566000000E+00 0. -1.
     999900   -1    0    0    0    0 -0.00000000000E+00 -0.00000000000E+00 -0.74505805969E-08  0.93827000000E+00  0.93827000000E+00 0.  1.
     999902    2    1    2    0    0  0.11430627564E-01 -0.85835786373E-02  0.19623364102E-01  0.10196521606E+01  0.10193630929E+01 0.  0.
     999903    2    3    3    0    0 -0.19582520376E-01 -0.29657785972E-01 -0.12115604628E+00  0.12767414518E+00  0.18943083797E-01 0.  0.
         14    1    1    2    0    0 -0.11430627564E-01  0.85835786373E-02 -0.19623364102E-01  0.24277839430E-01  0.00000000000E+00 0.  1.
     999901    1    3    3    0    0  0.31013147940E-01  0.21074207335E-01  0.14077941038E+00  0.89197801539E+00  0.88000000000E+00 0. -1.
        -11    1    4    4    0    0 -0.78351520447E-02  0.51641797698E-03 -0.25305229733E-01  0.26500416373E-01  0.51100000000E-03 0.  1.
         11    1    4    4    0    0 -0.11747368331E-01 -0.30174203949E-01 -0.95850816544E-01  0.10117372880E+00  0.51100000000E-03 0. -1.
</event>
<event>
 8    1  0.1066842E+005  0.1043930E+01  0.7957747E-01            NaN
         13   -1    0    0    0    0  0.00000000000E+00  0.00000000000E+00  0.74505805969E-08  0.10566000000E+00  0.10566000000E+00 0.  1.
     999900   -1    0    0    0    0 -0.00000000000E+00 -0.00000000000E+00 -0.74505805969E-08  0.93827000000E+00  0.93827000000E+00 0. -1.
     999902    2    1    2    0    0  0.49144224682E-02 -0.20599342402E-01 -0.10642258837E-01  0.10202289003E+01  0.10199535611E+01 0.  0.
     999903    2    3    3    0    0 -0.11717092347E+00  0.23755586712E-01 -0.46932051002E-01  0.12995414467E+00  0.19801744872E-01 0.  0.
         14    1    1    2    0    0 -0.49144224682E-02  0.20599342402E-01  0.10642258837E-01  0.23701099737E-01  0.00000000000E+00 0.  1.
     999901    1    3    3    0    0  0.12208534594E+00 -0.44354929114E-01  0.36289792165E-01  0.89027475559E+00  0.88000000000E+00 0. -1.
        -11    1    4    4    0    0 -0.51209752087E-01  0.82396897714E-02 -0.30695213367E-01  0.60272617672E-01  0.51100000000E-03 0.  1.
         11    1    4    4    0    0 -0.65961171380E-01  0.15515896940E-01 -0.16236837635E-01  0.69681527000E-01  0.51100000000E-03 0. -1.
</event>
<event>
 8    1  0.1066842E+005  0.1043930E+01  0.7957747E-01            NaN
         13   -1    0    0    0    0  0.00000000000E+00  0.00000000000E+00  0.74505805969E-08  0.10566000000E+00  0.10566000000E+00 0. -1.
     999900   -1    0    0    0    0 -0.00000000000E+00 -0.00000000000E+00 -0.74505805969E-08  0.93827000000E+00  0.93827000000E+00 0.  1.
     999902    2    1    2    0    0  0.71152182804E-02  0.13963070648E-01  0.15317655057E-01  0.10220159810E+01  0.10217810143E+01 0.  0.
     999903    2    3    3    0    0 -0.10953868664E+00 -0.11783588986E-02 -0.67865670057E-01  0.13030029647E+00  0.19295224464E-01 0.  0.
         14    1    1    2    0    0 -0.71152182804E-02 -0.13963070648E-01 -0.15317655057E-01  0.21914019018E-01  0.00000000000E+00 0.  1.
     999901    1    3    3    0    0  0.11665390492E+00  0.15141429546E-01  0.83183325114E-01  0.89171568451E+00  0.88000000000E+00 0. -1.
        -11    1    4    4    0    0 -0.84791381999E-01 -0.35064173088E-02 -0.60981403730E-01  0.10450294802E+00  0.51100000000E-03 0.  1.
         11    1    4    4    0    0 -0.24747304645E-01  0.23280584102E-02 -0.68842663273E-02  0.25797348450E-01  0.51100000000E-03 0. -1.
</event>
<event>
 7    1  0.1066842E+005  0.1043930E+01  0.7957747E-01            NaN
         13   -1    0    0    0    0  0.00000000000E+00  0.00000000000E+00  0.74505805969E-08  0.10566000000E+00  0.10566000000E+00 0.  1.
     999900   -1    0    0    0    0 -0.00000000000E+00 -0.00000000000E+00 -0.74505805969E-08  0.93827000000E+00  0.93827000000E+00 0.  1.
     999903    2    1    2    0    0 -0.90008612558E-01 -0.39273492644E-01 -0.40568645104E-01  0.10807740090E+00  0.19772507714E-01 0.  0.
         14    1    1    2    0    0  0.44082193067E-01 -0.20999909843E-01 -0.14340561462E-01  0.50890938899E-01  0.00000000000E+00 0. -1.
     999901    1    1    2    0    0  0.45926419491E-01  0.60273402486E-01  0.54909206566E-01  0.88496166020E+00  0.88000000000E+00 0. -1.
        -11    1    3    3    0    0 -0.67213053775E-01 -0.28616916873E-01 -0.20465970891E-01  0.75865931844E-01  0.51100000000E-03 0.  1.
         11    1    3    3    0    0 -0.22795558783E-01 -0.10656575770E-01 -0.20102674214E-01  0.32211469059E-01  0.51100000000E-03 0. -1.
</event>
<event>
 8    1  0.1066842E+005  0.1043930E+01  0.7957747E-01            NaN
         13   -1    0    0    0    0  0.00000000000E+00  0.00000000000E+00  0.74505805969E-08  0.10566000000E+00  0.10566000000E+00 0.  1.
     999900   -1    0    0    0    0 -0.00000000000E+00 -0.00000000000E+00 -0.74505805969E-08  0.93827000000E+00  0.93827000000E+00 0.  1.
     999902    2    1    2    0    0 -0.89238030881E-03 -0.16190058973E-01 -0.16934765394E-01  0.10204843046E+01  0.10202149359E+01 0.  0.
     999903    2    3    3    0    0  0.66652954638E-01 -0.16121963626E-02 -0.11269136328E+00  0.13259680479E+00  0.20913004131E-01 0.  0.
         14    1    1    2    0    0  0.89238030881E-03  0.16190058973E-01  0.16934765394E-01  0.23445695364E-01  0.00000000000E+00 0. -1.
     999901    1    3    3    0    0 -0.67545334947E-01 -0.14577862610E-01  0.95756597888E-01  0.88788749985E+00  0.88000000000E+00 0.  1.
        -11    1    4    4    0    0  0.20973836813E-01  0.52502947090E-02 -0.52054486848E-01  0.56368414446E-01  0.51100000000E-03 0. -1.
         11    1    4    4    0    0  0.45679117825E-01 -0.68624910716E-02 -0.60636876435E-01  0.76228390339E-01  0.51100000000E-03 0.  1.
</event>
<event>
 8    1  0.1066842E+005  0.1043930E+01  0.7957747E-01            NaN
         13   -1    0    0    0    0  0.00000000000E+00  0.00000000000E+00  0.74505805969E-08  0.10566000000E+00  0.10566000000E+00 0.  1.
     999900   -1    0    0    0    0 -0.00000000000E+00 -0.00000000000E+00 -0.74505805969E-08  0.93827000000E+00  0.93827000000E+00 0.  1.
     999902    2    1    2    0    0  0.23474983570E-01 -0.32171322392E-02  0.19141527249E-02  0.10201584040E+01  0.10198814052E+01 0.  0.
     999903    2    3    3    0    0 -0.72519617467E-01 -0.10471876767E+00 -0.27585184057E-02  0.12912564411E+00  0.20993030345E-01 0.  0.
         14    1    1    2    0    0 -0.23474983570E-01  0.32171322392E-02 -0.19141527249E-02  0.23771595952E-01  0.00000000000E+00 0.  1.
     999901    1    3    3    0    0  0.95994601036E-01  0.10150163543E+00  0.46726711307E-02  0.89103275994E+00  0.88000000000E+00 0.  1.
        -11    1    4    4    0    0 -0.47071437875E-01 -0.50159813945E-01 -0.40373275070E-02  0.68907824904E-01  0.51100000000E-03 0.  1.
         11    1    4    4    0    0 -0.25448179592E-01 -0.54558953729E-01  0.12788091013E-02  0.60217819208E-01  0.51100000000E-03 0. -1.
</event>
<event>
 8    1  0.1066842E+005  0.1043930E+01  0.7957747E-01            NaN
         13   -1    0    0    0    0  0.00000000000E+00  0.00000000000E+00  0.74505805969E-08  0.10566000000E+00  0.10566000000E+00 0. -1.
     999900   -1    0    0    0    0 -0.00000000000E+00 -0.00000000000E+00 -0.74505805969E-08  0.93827000000E+00  0.93827000000E+00 0. -1.
     999902    2    1    2    0    0 -0.47462860452E-02 -0.13792521036E-01  0.18590659020E-01  0.10203000726E+01  0.10200264039E+01 0.  0.
     999903    2    3    3    0    0  0.66089801951E-01 -0.95141696254E-01 -0.56842708939E-01  0.13051041614E+00  0.19546633338E-01 0.  0.
         14    1    1    2    0    0  0.47462860452E-02  0.13792521036E-01 -0.18590659020E-01  0.23629927435E-01  0.00000000000E+00 0.  1.
     999901    1    3    3    0    0 -0.70836087996E-01  0.81349175218E-01  0.75433367959E-01  0.88978965642E+00  0.88000000000E+00 0.  1.
        -11    1    4    4    0    0  0.26515026324E-01 -0.48225376736E-01 -0.18148296301E-01  0.57951318897E-01  0.51100000000E-03 0.  1.
         11    1    4    4    0    0  0.39574775626E-01 -0.46916319518E-01 -0.38694412638E-01  0.72559097248E-01  0.51100000000E-03 0. -1.
</event>
<event>
 8    1  0.1066842E+005  0.1043930E+01  0.7957747E-01            NaN
         13   -1    0    0    0    0  0.00000000000E+00  0.00000000000E+00  0.74505805969E-08  0.10566000000E+00  0.10566000000E+00 0. -1.
     999900   -1    0    0    0    0 -0.00000000000E+00 -0.00000000000E+00 -0.74505805969E-08  0.93827000000E+00  0.93827000000E+00 0. -1.
     999902    2    1    2    0    0 -0.96270981133E-02 -0.13937470252E-01 -0.67895504047E-02  0.10256808332E+01  0.10255184735E+01 0.  0.
     999903    2    3    3    0    0 -0.77786110113E-01 -0.96297601255E-01  0.55260650967E-01  0.13704194725E+00  0.20071094280E-01 0.  0.
         14    1    1    2    0    0  0.96270981133E-02  0.13937470252E-01  0.67895504047E-02  0.18249166825E-01  0.00000000000E+00 0. -1.
     999901    1    3    3    0    0  0.68159011999E-01  0.82360131003E-01 -0.62050201372E-01  0.88863888593E+00  0.88000000000E+00 0.  1.
        -11    1    4    4    0    0 -0.33573600479E-01 -0.46073067873E-01  0.35943744475E-01  0.67395312302E-01  0.51100000000E-03 0.  1.
         11    1    4    4    0    0 -0.44212509634E-01 -0.50224533383E-01  0.19316906492E-01  0.69646634944E-01  0.51100000000E-03 0. -1.
</event>
<event>
 8    1  0.1066842E+005  0.1043930E+01  0.7957747E-01            NaN
         13   -1    0    0    0    0  0.00000000000E+00  0.00000000000E+00  0.74505805969E-08  0.10566000000E+00  0.10566000000E+00 0. -1.
     999900   -1    0    0    0    0 -0.00000000000E+00 -0.00000000000E+00 -0.74505805969E-08  0.93827000000E+00  0.93827000000E+00 0. -1.
     999902    2    1    2    0    0  0.22267270260E-01 -0.50802491834E-02 -0.52995331019E-02  0.10204837784E+01  0.10202143974E+01 0.  0.
     999903    2    3    3    0    0  0.50872159781E-03  0.67475037273E-01  0.10909555938E+00  0.12985257457E+00  0.20167067069E-01 0.  0.
         14    1    1    2    0    0 -0.22267270260E-01  0.50802491834E-02  0.52995331019E-02  0.23446221608E-01  0.00000000000E+00 0. -1.
     999901    1    3    3    0    0  0.21758548662E-01 -0.72555286457E-01 -0.11439509248E+00  0.89063120382E+00  0.88000000000E+00 0. -1.
        -11    1    4    4    0    0 -0.90267255164E-02  0.22460297888E-01  0.42333173129E-01  0.48767872856E-01  0.51100000000E-03 0.  1.
         11    1    4    4    0    0  0.95354471142E-02  0.45014739385E-01  0.66762386251E-01  0.81084701716E-01  0.51100000000E-03 0. -1.
</event>
<event>
 8    1  0.1066842E+005  0.1043930E+01  0.7957747E-01            NaN
         13   -1    0    0    0    0  0.00000000000E+00  0.00000000000E+00  0.74505805969E-08  0.10566000000E+00  0.10566000000E+00 0.  1.
     999900   -1    0    0    0    0 -0.00000000000E+00 -0.00000000000E+00 -0.74505805969E-08  0.93827000000E+00  0.93827000000E+00 0.  1.
     999902    2    1    2    0    0 -0.14685548918E-01  0.15784089550E-01 -0.92515102769E-02  0.10204695381E+01  0.10201998260E+01 0.  0.
     999903    2    3    3    0    0  0.81481112800E-01  0.71818328401E-01 -0.69570414290E-01  0.13141035395E+00  0.25131544783E-01 0.  0.
         14    1    1    2    0    0  0.14685548918E-01 -0.15784089550E-01  0.92515102769E-02  0.23460461896E-01  0.00000000000E+00 0.  1.
     999901    1    3    3    0    0 -0.96166661718E-01 -0.56034238851E-01  0.60318904013E-01  0.88905918416E+00  0.88000000000E+00 0.  1.
        -11    1    4    4    0    0  0.73137804839E-01  0.72633749332E-01 -0.63929625028E-01  0.12129327317E+00  0.51100000000E-03 0. -1.
         11    1    4    4    0    0  0.83433079616E-02 -0.81542093097E-03 -0.56407892617E-02  0.10117080781E-01  0.51100000000E-03 0.  1.
</event>
<event>
 8    1  0.1066842E+005  0.1043930E+01  0.7957747E-01            NaN
         13   -1    0    0    0    0  0.00000000000E+00  0.00000000000E+00  0.74505805969E-08  0.10566000000E+00  0.10566000000E+00 0.  1.
     999900   -1    0    0    0    0 -0.00000000000E+00 -0.00000000000E+00 -0.74505805969E-08  0.93827000000E+00  0.93827000000E+00 0.  1.
     999902    2    1    2    0    0 -0.23620116894E-02  0.18108926384E-01  0.15746933257E-01  0.10198161405E+01  0.10195310109E+01 0.  0.
     999903    2    3    3    0    0  0.37902820310E-01  0.11828237394E+00  0.42781937341E-01  0.13280606853E+00  0.19488814838E-01 0.  0.
         14    1    1    2    0    0  0.23620116894E-02 -0.18108926384E-01 -0.15746933257E-01  0.24113859521E-01  0.00000000000E+00 0. -1.
     999901    1    3    3    0    0 -0.40264832000E-01 -0.10017344756E+00 -0.27035004083E-01  0.88701007195E+00  0.88000000000E+00 0. -1.
        -11    1    4    4    0    0  0.20982037448E-01  0.57044467535E-01  0.30838427839E-01  0.68158542564E-01  0.51100000000E-03 0. -1.
         11    1    4    4    0    0  0.16920782862E-01  0.61237906404E-01  0.11943509502E-01  0.64647525967E-01  0.51100000000E-03 0.  1.
</event>
<event>
 7    1  0.1066842E+005  0.1043930E+01  0.7957747E-01            NaN
         13   -1    0    0    0    0  0.00000000000E+00  0.00000000000E+00  0.74505805969E-08  0.10566000000E+00  0.10566000000E+00 0.  1.
     999900   -1    0    0    0    0 -0.00000000000E+00 -0.00000000000E+00 -0.74505805969E-08  0.93827000000E+00  0.93827000000E+00 0. -1.
     999903    2    1    2    0    0 -0.42544745795E-02 -0.92469880805E-01  0.69199518939E-01  0.11744574268E+00  0.20884195991E-01 0.  0.
         14    1    1    2    0    0  0.16134317272E-01  0.33411085961E-02 -0.37925189423E-01  0.41349718177E-01  0.00000000000E+00 0. -1.
     999901    1    1    2    0    0 -0.11879842692E-01  0.89128772209E-01 -0.31274329515E-01  0.88513453914E+00  0.88000000000E+00 0. -1.
        -11    1    3    3    0    0 -0.86919391159E-02 -0.21906549640E-01  0.23326004487E-01  0.33163388383E-01  0.51100000000E-03 0.  1.
         11    1    3    3    0    0  0.44374645364E-02 -0.70563331166E-01  0.45873514452E-01  0.84282354297E-01  0.51100000000E-03 0. -1.
</event>
<event>
 8    1  0.1066842E+005  0.1043930E+01  0.7957747E-01            NaN
         13   -1    0    0    0    0  0.00000000000E+00  0.00000000000E+00  0.74505805969E-08  0.10566000000E+00  0.10566000000E+00 0.  1.
     999900   -1    0    0    0    0 -0.00000000000E+00 -0.00000000000E+00 -0.74505805969E-08  0.93827000000E+00  0.93827000000E+00 0. -1.
     999902    2    1    2    0    0 -0.18961357607E-01 -0.98325528143E-02  0.10278366399E-01  0.10202264772E+01  0.10199510811E+01 0.  0.
     999903    2    3    3    0    0  0.61459178086E-01 -0.32075709420E-01  0.10906157910E+00  0.13077701619E+00  0.20052885661E-01 0.  0.
         14    1    1    2    0    0  0.18961357607E-01  0.98325528143E-02 -0.10278366399E-01  0.23703522797E-01  0.00000000000E+00 0.  1.
     999901    1    3    3    0    0 -0.80420535692E-01  0.22243156605E-01 -0.98783212701E-01  0.88944946101E+00  0.88000000000E+00 0. -1.
        -11    1    4    4    0    0  0.53957387391E-01 -0.21425929464E-01  0.96823831831E-01  0.11289634909E+00  0.51100000000E-03 0.  1.
         11    1    4    4    0    0  0.75017906947E-02 -0.10649779956E-01  0.12237747269E-01  0.17880667100E-01  0.51100000000E-03 0. -1.
</event>
<event>
 8    1  0.1066842E+005  0.1043930E+01  0.7957747E-01            NaN
         13   -1    0    0    0    0  0.00000000000E+00  0.00000000000E+00  0.74505805969E-08  0.10566000000E+00  0.10566000000E+00 0.  1.
     999900   -1    0    0    0    0 -0.00000000000E+00 -0.00000000000E+00 -0.74505805969E-08  0.93827000000E+00  0.93827000000E+00 0.  1.
     999902    2    1    2    0    0 -0.21336473167E-01 -0.59493502512E-02  0.35908807221E-02  0.10214904305E+01  0.10212439304E+01 0.  0.
     999903    2    3    3    0    0  0.26435825532E-01  0.58487703913E-01  0.11267857914E+00  0.13113406789E+00  0.19494029436E-01 0.  0.
         14    1    1    2    0    0  0.21336473167E-01  0.59493502512E-02 -0.35908807221E-02  0.22439569514E-01  0.00000000000E+00 0.  1.
     999901    1    3    3    0    0 -0.47772298699E-01 -0.64437054165E-01 -0.10908769842E+00  0.89035636260E+00  0.88000000000E+00 0.  1.
        -11    1    4    4    0    0  0.21008961676E-01  0.56146671071E-01  0.10820916592E+00  0.12370654733E+00  0.51100000000E-03 0.  1.
         11    1    4    4    0    0  0.54268638560E-02  0.23410328420E-02  0.44694132198E-02  0.74275205559E-02  0.51100000000E-03 0. -1.
</event>
<event>
 8    1  0.1066842E+005  0.1043930E+01  0.7957747E-01            NaN
         13   -1    0    0    0    0  0.00000000000E+00  0.00000000000E+00  0.74505805969E-08  0.10566000000E+00  0.10566000000E+00 0. -1.
     999900   -1    0    0    0    0 -0.00000000000E+00 -0.00000000000E+00 -0.74505805969E-08  0.93827000000E+00  0.93827000000E+00 0. -1.
     999902    2    1    2    0    0 -0.47628316022E-02 -0.21464785681E-01 -0.10721270733E-01  0.10194684539E+01  0.10191749415E+01 0.  0.
     999903    2    3    3    0    0  0.13561225247E-01  0.38553565592E-01  0.11945926038E+00  0.12768095447E+00  0.19016492673E-01 0.  0.
         14    1    1    2    0    0  0.47628316022E-02  0.21464785681E-01  0.10721270733E-01  0.24461546053E-01  0.00000000000E+00 0. -1.
     999901    1    3    3    0    0 -0.18324056849E-01 -0.60018351273E-01 -0.13018053111E+00  0.89178749948E+00  0.88000000000E+00 0. -1.
        -11    1    4    4    0    0  0.16211231208E-01  0.19469808479E-01  0.58646146385E-01  0.63886689273E-01  0.51100000000E-03 0. -1.
         11    1    4    4    0    0 -0.26500059610E-02  0.19083757113E-01  0.60813113992E-01  0.63794265193E-01  0.51100000000E-03 0.  1.
</event>
<event>
 8    1  0.1066842E+005  0.1043930E+01  0.7957747E-01            NaN
         13   -1    0    0    0    0  0.00000000000E+00  0.00000000000E+00  0.74505805969E-08  0.10566000000E+00  0.10566000000E+00 0. -1.
     999900   -1    0    0    0    0 -0.00000000000E+00 -0.00000000000E+00 -0.74505805969E-08  0.93827000000E+00  0.93827000000E+00 0.  1.
     999902    2    1    2    0    0  0.14784798398E-01 -0.17044429232E-01  0.34427004370E-02  0.10211055610E+01  0.10208504355E+01 0.  0.
     999903    2    3    3    0    0 -0.96256777323E-01 -0.85618623768E-01 -0.15742407888E-01  0.13127371163E+00  0.19724300784E-01 0.  0.
         14    1    1    2    0    0 -0.14784798398E-01  0.17044429232E-01 -0.34427004370E-02  0.22824439047E-01  0.00000000000E+00 0. -1.
     999901    1    3    3    0    0  0.11104157572E+00  0.68574194536E-01  0.19185108325E-01  0.88983184933E+00  0.88000000000E+00 0.  1.
        -11    1    4    4    0    0 -0.52266432908E-01 -0.59124686954E-01 -0.76695783844E-02  0.79288032955E-01  0.51100000000E-03 0.  1.
         11    1    4    4    0    0 -0.43990344415E-01 -0.26493936814E-01 -0.80728295035E-02  0.51985678671E-01  0.51100000000E-03 0. -1.
</event>
<event>
 8    1  0.1066842E+005  0.1043930E+01  0.7957747E-01            NaN
         13   -1    0    0    0    0  0.00000000000E+00  0.00000000000E+00  0.74505805969E-08  0.10566000000E+00  0.10566000000E+00 0. -1.
     999900   -1    0    0    0    0 -0.00000000000E+00 -0.00000000000E+00 -0.74505805969E-08  0.93827000000E+00  0.93827000000E+00 0.  1.
     999902    2    1    2    0    0  0.82437114377E-02  0.68971757542E-02 -0.24274435805E-01  0.10173823439E+01  0.10170359166E+01 0.  0.
     999903    2    3    3    0    0 -0.75634066903E-01  0.10130720906E+00 -0.53469178696E-02  0.12816527982E+00  0.20349121259E-01 0.  0.
         14    1    1    2    0    0 -0.82437114377E-02 -0.68971757542E-02  0.24274435805E-01  0.26547656116E-01  0.00000000000E+00 0. -1.
     999901    1    3    3    0    0  0.83877778340E-01 -0.94410033309E-01 -0.18927517935E-01  0.88921706406E+00  0.88000000000E+00 0. -1.
        -11    1    4    4    0    0 -0.42238207913E-01  0.67598820270E-01  0.39527579904E-02  0.79809473913E-01  0.51100000000E-03 0.  1.
         11    1    4    4    0    0 -0.33395858990E-01  0.33708388793E-01 -0.92996758599E-02  0.48355805906E-01  0.51100000000E-03 0. -1.
</event>
<event>
 8    1  0.1066842E+005  0.1043930E+01  0.7957747E-01            NaN
         13   -1    0    0    0    0  0.00000000000E+00  0.00000000000E+00  0.74505805969E-08  0.10566000000E+00  0.10566000000E+00 0.  1.
     999900   -1    0    0    0    0 -0.00000000000E+00 -0.00000000000E+00 -0.74505805969E-08  0.93827000000E+00  0.93827000000E+00 0.  1.
     999902    2    1    2    0    0 -0.65601525899E-02  0.18083542704E-01  0.13572588632E-01  0.10203871607E+01  0.10201155290E+01 0.  0.
     999903    2    3    3    0    0  0.68301018610E-01 -0.95171441118E-01 -0.47245460692E-01  0.12790202279E+00  0.20103769078E-01 0.  0.
         14    1    1    2    0    0  0.65601525899E-02 -0.18083542704E-01 -0.13572588632E-01  0.23542839270E-01  0.00000000000E+00 0.  1.
     999901    1    3    3    0    0 -0.74861171200E-01  0.11325498382E+00  0.60818049324E-01  0.89248513794E+00  0.88000000000E+00 0.  1.
        -11    1    4    4    0    0  0.55220753821E-01 -0.81225061060E-01 -0.46725660752E-01  0.10876759945E+00  0.51100000000E-03 0.  1.
         11    1    4    4    0    0  0.13080264789E-01 -0.13946380058E-01 -0.51979994041E-03  0.19134423342E-01  0.51100000000E-03 0. -1.
</event>
<event>
 8    1  0.1066842E+005  0.1043930E+01  0.7957747E-01            NaN
         13   -1    0    0    0    0  0.00000000000E+00  0.00000000000E+00  0.74505805969E-08  0.10566000000E+00  0.10566000000E+00 0. -1.
     999900   -1    0    0    0    0 -0.00000000000E+00 -0.00000000000E+00 -0.74505805969E-08  0.93827000000E+00  0.93827000000E+00 0.  1.
     999902    2    1    2    0    0 -0.15203938795E-01 -0.13711154643E-01 -0.78455311107E-02  0.10220049487E+01  0.10217697428E+01 0.  0.
     999903    2    3    3    0    0  0.65848747449E-01 -0.54881327124E-01 -0.99246102529E-01  0.13261269242E+00  0.19705829529E-01 0.  0.
         14    1    1    2    0    0  0.15203938795E-01  0.13711154643E-01  0.78455311107E-02  0.21925051310E-01  0.00000000000E+00 0. -1.
     999901    1    3    3    0    0 -0.81052686244E-01  0.41170172481E-01  0.91400571418E-01  0.88939225627E+00  0.88000000000E+00 0. -1.
        -11    1    4    4    0    0  0.39052810618E-01 -0.42078955457E-01 -0.56409779347E-01  0.80486550656E-01  0.51100000000E-03 0.  1.
         11    1    4    4    0    0  0.26795936831E-01 -0.12802371668E-01 -0.42836323182E-01  0.52126141769E-01  0.51100000000E-03 0. -1.
</event>
<event>
 8    1  0.1066842E+005  0.1043930E+01  0.7957747E-01            NaN
         13   -1    0    0    0    0  0.00000000000E+00  0.00000000000E+00  0.74505805969E-08  0.10566000000E+00  0.10566000000E+00 0.  1.
     999900   -1    0    0    0    0 -0.00000000000E+00 -0.00000000000E+00 -0.74505805969E-08  0.93827000000E+00  0.93827000000E+00 0.  1.
     999902    2    1    2    0    0  0.14155840963E-01  0.15883891152E-01 -0.95341158971E-02  0.10206150864E+01  0.10203487489E+01 0.  0.
     999903    2    3    3    0    0 -0.43237672953E-01  0.70996032675E-01 -0.10108750666E+00  0.13229454347E+00  0.19319141054E-01 0.  0.
         14    1    1    2    0    0 -0.14155840963E-01 -0.15883891152E-01  0.95341158971E-02  0.23314913627E-01  0.00000000000E+00 0.  1.
     999901    1    3    3    0    0  0.57393513916E-01 -0.55112141523E-01  0.91553390763E-01  0.88832054290E+00  0.88000000000E+00 0. -1.
        -11    1    4    4    0    0 -0.21313208156E-01  0.21400511557E-01 -0.45693263827E-01  0.54775635250E-01  0.51100000000E-03 0. -1.
         11    1    4    4    0    0 -0.21924464796E-01  0.49595521118E-01 -0.55394242833E-01  0.77518908220E-01  0.51100000000E-03 0.  1.
</event>
<event>
 8    1  0.1066842E+005  0.1043930E+01  0.7957747E-01            NaN
         13   -1    0    0    0    0  0.00000000000E+00  0.00000000000E+00  0.74505805969E-08  0.10566000000E+00  0.10566000000E+00 0. -1.
     999900   -1    0    0    0    0 -0.00000000000E+00 -0.00000000000E+00 -0.74505805969E-08  0.93827000000E+00  0.93827000000E+00 0. -1.
     999902    2    1    2    0    0  0.70154095226E-02 -0.21383913921E-01  0.79969083343E-02  0.10200461501E+01  0.10197664978E+01 0.  0.
     999903    2    3    3    0    0 -0.99240859336E-01 -0.47253053108E-01 -0.66976433083E-01  0.13011322620E+00  0.19026556545E-01 0.  0.
         14    1    1    2    0    0 -0.70154095226E-02  0.21383913921E-01 -0.79969083343E-02  0.23883849946E-01  0.00000000000E+00 0.  1.
     999901    1    3    3    0    0  0.10625626886E+00  0.25869139187E-01  0.74973341418E-01  0.88993292385E+00  0.88000000000E+00 0.  1.
        -11    1    4    4    0    0 -0.67556967427E-01 -0.23277658269E-01 -0.47975105492E-01  0.86067793572E-01  0.51100000000E-03 0. -1.
         11    1    4    4    0    0 -0.31683891910E-01 -0.23975394839E-01 -0.19001327591E-01  0.44045432629E-01  0.51100000000E-03 0.  1.
</event>
<event>
 8    1  0.1066842E+005  0.1043930E+01  0.7957747E-01            NaN
         13   -1    0    0    0    0  0.00000000000E+00  0.00000000000E+00  0.74505805969E-08  0.10566000000E+00  0.10566000000E+00 0. -1.
     999900   -1    0    0    0    0 -0.00000000000E+00 -0.00000000000E+00 -0.74505805969E-08  0.93827000000E+00  0.93827000000E+00 0. -1.
     999902    2    1    2    0    0 -0.22886372370E-01  0.38009492452E-02 -0.26062530285E-02  0.10205842122E+01  0.10203171606E+01 0.  0.
     999903    2    3    3    0    0  0.21198688447E-02 -0.11945339035E+00 -0.48381887626E-01  0.13046492068E+00  0.20166362268E-01 0.  0.
         14    1    1    2    0    0  0.22886372370E-01 -0.38009492452E-02  0.26062530285E-02  0.23345787848E-01  0.00000000000E+00 0. -1.
     999901    1    3    3    0    0 -0.25006241215E-01  0.12325433960E+00  0.45775634597E-01  0.89011929147E+00  0.88000000000E+00 0.  1.
        -11    1    4    4    0    0 -0.74792194909E-02 -0.70000344615E-01 -0.33287067034E-01  0.77873467389E-01  0.51100000000E-03 0.  1.
         11    1    4    4    0    0  0.95990883356E-02 -0.49453045736E-01 -0.15094820592E-01  0.52591453290E-01  0.51100000000E-03 0. -1.
</event>
<event>
 8    1  0.1066842E+005  0.1043930E+01  0.7957747E-01            NaN
         13   -1    0    0    0    0  0.00000000000E+00  0.00000000000E+00  0.74505805969E-08  0.10566000000E+00  0.10566000000E+00 0.  1.
     999900   -1    0    0    0    0 -0.00000000000E+00 -0.00000000000E+00 -0.74505805969E-08  0.93827000000E+00  0.93827000000E+00 0. -1.
     999902    2    1    2    0    0 -0.12618793784E-01  0.16736755468E-01  0.97010589111E-02  0.10208331716E+01  0.10205718498E+01 0.  0.
     999903    2    3    3    0    0 -0.41612331874E-01  0.11304477664E+00  0.53838572671E-01  0.13400512717E+00  0.23410991244E-01 0.  0.
         14    1    1    2    0    0  0.12618793784E-01 -0.16736755468E-01 -0.97010589111E-02  0.23096828444E-01  0.00000000000E+00 0. -1.
     999901    1    3    3    0    0  0.28993538090E-01 -0.96308021169E-01 -0.44137513760E-01  0.88682804439E+00  0.88000000000E+00 0. -1.
        -11    1    4    4    0    0 -0.17947241313E-01  0.54575115418E-01  0.38273501413E-01  0.69033823051E-01  0.51100000000E-03 0.  1.
         11    1    4    4    0    0 -0.23665090560E-01  0.58469661219E-01  0.15565071258E-01  0.64971304116E-01  0.51100000000E-03 0. -1.
</event>
<event>
 8    1  0.1066842E+005  0.1043930E+01  0.7957747E-01            NaN
         13   -1    0    0    0    0  0.00000000000E+00  0.00000000000E+00  0.74505805969E-08  0.10566000000E+00  0.10566000000E+00 0. -1.
     999900   -1    0    0    0    0 -0.00000000000E+00 -0.00000000000E+00 -0.74505805969E-08  0.93827000000E+00  0.93827000000E+00 0.  1.
     999902    2    1    2    0    0  0.22215690526E-01  0.28701207339E-02  0.14912045891E-02  0.10214800960E+01  0.10212333662E+01 0.  0.
     999903    2    3    3    0    0 -0.69103140279E-01  0.10869546287E+00 -0.21160164514E-02  0.13044073439E+00  0.20502683171E-01 0.  0.
         14    1    1    2    0    0 -0.22215690526E-01 -0.28701207339E-02 -0.14912045891E-02  0.22449904002E-01  0.00000000000E+00 0. -1.
     999901    1    3    3    0    0  0.91318830804E-01 -0.10582534213E+00  0.36072210405E-02  0.89103936161E+00  0.88000000000E+00 0.  1.
        -11    1    4    4    0    0 -0.55580888235E-01  0.85683608566E-01 -0.99571081446E-02  0.10261735252E+00  0.51100000000E-03 0.  1.
         11    1    4    4    0    0 -0.13522252043E-01  0.23011854302E-01  0.78410916931E-02  0.27823381870E-01  0.51100000000E-03 0. -1.
</event>
<event>
 8    1  0.1066842E+005  0.1043930E+01  0.7957747E-01            NaN
         13   -1    0    0    0    0  0.00000000000E+00  0.00000000000E+00  0.74505805969E-08  0.10566000000E+00  0.10566000000E+00 0. -1.
     999900   -1    0    0    0    0 -0.00000000000E+00 -0.00000000000E+00 -0.74505805969E-08  0.93827000000E+00  0.93827000000E+00 0.  1.
     999902    2    1    2    0    0  0.36009791979E-02 -0.19402259458E-01 -0.10515920695E-01  0.10215693356E+01  0.10213245851E+01 0.  0.
     999903    2    3    3    0    0  0.94541111090E-01  0.54036060793E-01 -0.71430887097E-01  0.13175254122E+00  0.19961035411E-01 0.  0.
         14    1    1    2    0    0 -0.36009791979E-02  0.19402259458E-01  0.10515920695E-01  0.22360664376E-01  0.00000000000E+00 0.  1.
     999901    1    3    3    0    0 -0.90940131892E-01 -0.73438320251E-01  0.60914966402E-01  0.88981679440E+00  0.88000000000E+00 0.  1.
        -11    1    4    4    0    0  0.71307407314E-01  0.31560043481E-01 -0.55469620066E-01  0.95697035240E-01  0.51100000000E-03 0. -1.
         11    1    4    4    0    0  0.23233703775E-01  0.22476017312E-01 -0.15961267030E-01  0.36055505981E-01  0.51100000000E-03 0.  1.
</event>
<event>
 8    1  0.1066842E+005  0.1043930E+01  0.7957747E-01            NaN
         13   -1    0    0    0    0  0.00000000000E+00  0.00000000000E+00  0.74505805969E-08  0.10566000000E+00  0.10566000000E+00 0. -1.
     999900   -1    0    0    0    0 -0.00000000000E+00 -0.00000000000E+00 -0.74505805969E-08  0.93827000000E+00  0.93827000000E+00 0. -1.
     999902    2    1    2    0    0  0.40386681970E-03 -0.19253799358E-01 -0.12826573951E-01  0.10207914413E+01  0.10205291636E+01 0.  0.
     999903    2    3    3    0    0 -0.12145415895E+00  0.42732125545E-01 -0.17334092801E-02  0.13016543024E+00  0.19049599484E-01 0.  0.
         14    1    1    2    0    0 -0.40386681970E-03  0.19253799358E-01  0.12826573951E-01  0.23138558673E-01  0.00000000000E+00 0. -1.
     999901    1    3    3    0    0  0.12185802577E+00 -0.61985924903E-01 -0.11093164671E-01  0.89062601109E+00  0.88000000000E+00 0.  1.
        -11    1    4    4    0    0 -0.62055892375E-01  0.21825727844E-01  0.86244671837E-02  0.66347107922E-01  0.51100000000E-03 0.  1.
         11    1    4    4    0    0 -0.59398266576E-01  0.20906397701E-01 -0.10357876464E-01  0.63818322313E-01  0.51100000000E-03 0. -1.
</event>
<event>
 8    1  0.1066842E+005  0.1043930E+01  0.7957747E-01            NaN
         13   -1    0    0    0    0  0.00000000000E+00  0.00000000000E+00  0.74505805969E-08  0.10566000000E+00  0.10566000000E+00 0.  1.
     999900   -1    0    0    0    0 -0.00000000000E+00 -0.00000000000E+00 -0.74505805969E-08  0.93827000000E+00  0.93827000000E+00 0.  1.
     999902    2    1    2    0    0  0.16986389695E-01  0.11402995605E-01  0.19982004261E-01  0.10153319889E+01  0.10149291608E+01 0.  0.
     999903    2    3    3    0    0  0.46114947340E-01 -0.10507241423E+00 -0.44858476547E-01  0.12481568816E+00  0.19996812058E-01 0.  0.
         14    1    1    2    0    0 -0.16986389695E-01 -0.11402995605E-01 -0.19982004261E-01  0.28598011084E-01  0.00000000000E+00 0. -1.
     999901    1    3    3    0    0 -0.29128557645E-01  0.11647540983E+00  0.64840480808E-01  0.89051630076E+00  0.88000000000E+00 0. -1.
        -11    1    4    4    0    0  0.31128315963E-01 -0.63478555811E-01 -0.37373950337E-01  0.79972322633E-01  0.51100000000E-03 0.  1.
         11    1    4    4    0    0  0.14986631377E-01 -0.41593858416E-01 -0.74845262093E-02  0.44843365524E-01  0.51100000000E-03 0. -1.
</event>
<event>
 8    1  0.1066842E+005  0.1043930E+01  0.7957747E-01            NaN
         13   -1    0    0    0    0  0.00000000000E+00  0.00000000000E+00  0.74505805969E-08  0.10566000000E+00  0.10566000000E+00 0. -1.
     999900   -1    0    0    0    0 -0.00000000000E+00 -0.00000000000E+00 -0.74505805969E-08  0.93827000000E+00  0.93827000000E+00 0.  1.
     999902    2    1    2    0    0  0.52272067915E-03 -0.24066282482E-01  0.37192876128E-02  0.10195724080E+01  0.10192814149E+01 0.  0.
     999903    2    3    3    0    0 -0.12199543479E+00  0.31883254016E-01  0.19199709550E-01  0.12919007856E+00  0.20543114538E-01 0.  0.
         14    1    1    2    0    0 -0.52272067915E-03  0.24066282482E-01 -0.37192876128E-02  0.24357592035E-01  0.00000000000E+00 0.  1.
     999901    1    3    3    0    0  0.12251815547E+00 -0.55949536498E-01 -0.15480421937E-01  0.89038232941E+00  0.88000000000E+00 0. -1.
        -11    1    4    4    0    0 -0.23061730615E-01  0.89186626966E-02 -0.38838608914E-02  0.25034605243E-01  0.51100000000E-03 0. -1.
         11    1    4    4    0    0 -0.98933704177E-01  0.22964591319E-01  0.23083570441E-01  0.10415547332E+00  0.51100000000E-03 0.  1.
</event>
<event>
 8    1  0.1066842E+005  0.1043930E+01  0.7957747E-01            NaN
         13   -1    0    0    0    0  0.00000000000E+00  0.00000000000E+00  0.74505805969E-08  0.10566000000E+00  0.10566000000E+00 0.  1.
     999900   -1    0    0    0    0 -0.00000000000E+00 -0.00000000000E+00 -0.74505805969E-08  0.93827000000E+00  0.93827000000E+00 0.  1.
     999902    2    1    2    0    0  0.51119463751E-02  0.11417136405E-01 -0.20178392487E-01  0.10201886748E+01  0.10199123892E+01 0.  0.
     999903    2    3    3    0    0 -0.99568367728E-01  0.54368522614E-01 -0.64249468793E-01  0.13185031048E+00  0.19665045894E-01 0.  0.
         14    1    1    2    0    0 -0.51119463751E-02 -0.11417136405E-01  0.20178392487E-01  0.23741325211E-01  0.00000000000E+00 0.  1.
     999901    1    3    3    0    0  0.10468031410E+00 -0.42951386209E-01  0.44071076306E-01  0.88833836431E+00  0.88000000000E+00 0.  1.
        -11    1    4    4    0    0 -0.36140387992E-01  0.97293500119E-02 -0.24022951079E-01  0.44476411674E-01  0.51100000000E-03 0.  1.
         11    1    4    4    0    0 -0.63427979736E-01  0.44639172602E-01 -0.40226517714E-01  0.87373898805E-01  0.51100000000E-03 0. -1.
</event>
<event>
 8    1  0.1066842E+005  0.1043930E+01  0.7957747E-01            NaN
         13   -1    0    0    0    0  0.00000000000E+00  0.00000000000E+00  0.74505805969E-08  0.10566000000E+00  0.10566000000E+00 0. -1.
     999900   -1    0    0    0    0 -0.00000000000E+00 -0.00000000000E+00 -0.74505805969E-08  0.93827000000E+00  0.93827000000E+00 0.  1.
     999902    2    1    2    0    0 -0.54085935886E-02 -0.26950408246E-04  0.22469063578E-01  0.10208191275E+01  0.10205574842E+01 0.  0.
     999903    2    3    3    0    0 -0.38798068835E-01  0.12355129809E+00 -0.52170756036E-02  0.13112650479E+00  0.19918056512E-01 0.  0.
         14    1    1    2    0    0  0.54085935886E-02  0.26950408246E-04 -0.22469063578E-01  0.23110872528E-01  0.00000000000E+00 0.  1.
     999901    1    3    3    0    0  0.33389475247E-01 -0.12357824850E+00  0.27686139182E-01  0.88969262269E+00  0.88000000000E+00 0.  1.
        -11    1    4    4    0    0 -0.47734116403E-03  0.28853251168E-01 -0.85167009781E-03  0.28874286494E-01  0.51100000000E-03 0. -1.
         11    1    4    4    0    0 -0.38320727671E-01  0.94698046919E-01 -0.43654055058E-02  0.10225221829E+00  0.51100000000E-03 0.  1.
</event>
<event>
 8    1  0.1066842E+005  0.1043930E+01  0.7957747E-01            NaN
         13   -1    0    0    0    0  0.00000000000E+00  0.00000000000E+00  0.74505805969E-08  0.10566000000E+00  0.10566000000E+00 0.  1.
     999900   -1    0    0    0    0 -0.00000000000E+00 -0.00000000000E+00 -0.74505805969E-08  0.93827000000E+00  0.93827000000E+00 0. -1.
     999902    2    1    2    0    0 -0.32609166766E-02 -0.23770707772E-01 -0.19563117920E-02  0.10198570425E+01  0.10195728909E+01 0.  0.
     999903    2    3    3    0    0 -0.42191172812E-01 -0.78045858729E-01 -0.96044324897E-01  0.13232455802E+00  0.20347608745E-01 0.  0.
         14    1    1    2    0    0  0.32609166766E-02  0.23770707772E-01  0.19563117920E-02  0.24072957471E-01  0.00000000000E+00 0.  1.
     999901    1    3    3    0    0  0.38930256135E-01  0.54275150957E-01  0.94088013105E-01  0.88753248451E+00  0.88000000000E+00 0.  1.
        -11    1    4    4    0    0 -0.33911936000E-01 -0.52900098612E-01 -0.55156605593E-01  0.83611913612E-01  0.51100000000E-03 0.  1.
         11    1    4    4    0    0 -0.82792368123E-02 -0.25145760117E-01 -0.40887719304E-01  0.48712644405E-01  0.51100000000E-03 0. -1.
</event>
<event>
 8    1  0.1066842E+005  0.1043930E+01  0.7957747E-01            NaN
         13   -1    0    0    0    0  0.00000000000E+00  0.00000000000E+00  0.74505805969E-08  0.10566000000E+00  0.10566000000E+00 0.  1.
     999900   -1    0    0    0    0 -0.00000000000E+00 -0.00000000000E+00 -0.74505805969E-08  0.93827000000E+00  0.93827000000E+00 0.  1.
     999902    2    1    2    0    0 -0.15958332777E-01  0.17911061798E-01  0.68959140425E-02  0.10189694681E+01  0.10186637074E+01 0.  0.
     999903    2    3    3    0    0 -0.81080727357E-01 -0.50087353461E-01  0.86706977335E-01  0.13035565069E+00  0.19790614525E-01 0.  0.
         14    1    1    2    0    0  0.15958332777E-01 -0.17911061798E-01 -0.68959140425E-02  0.24960531850E-01  0.00000000000E+00 0. -1.
     999901    1    3    3    0    0  0.65122394579E-01  0.67998415259E-01 -0.79811063293E-01  0.88861381746E+00  0.88000000000E+00 0.  1.
        -11    1    4    4    0    0 -0.37147707981E-01 -0.24067660505E-01  0.27248575861E-01  0.51980289513E-01  0.51100000000E-03 0. -1.
         11    1    4    4    0    0 -0.43933019376E-01 -0.26019692955E-01  0.59458401474E-01  0.78375361178E-01  0.51100000000E-03 0.  1.
</event>
<event>
 8    1  0.1066842E+005  0.1043930E+01  0.7957747E-01            NaN
         13   -1    0    0    0    0  0.00000000000E+00  0.00000000000E+00  0.74505805969E-08  0.10566000000E+00  0.10566000000E+00 0.  1.
     999900   -1    0    0    0    0 -0.00000000000E+00 -0.00000000000E+00 -0.74505805969E-08  0.93827000000E+00  0.93827000000E+00 0.  1.
     999902    2    1    2    0    0 -0.35907530587E-02  0.18183660570E-01 -0.13766162513E-01  0.10208422056E+01  0.10205810906E+01 0.  0.
     999903    2    3    3    0    0  0.24249521914E-01  0.23160529410E-01 -0.12613469802E+00  0.13324627395E+00  0.26835760479E-01 0.  0.
         14    1    1    2    0    0  0.35907530587E-02 -0.18183660570E-01  0.13766162513E-01  0.23087794386E-01  0.00000000000E+00 0.  1.
     999901    1    3    3    0    0 -0.27840274973E-01 -0.49768688400E-02  0.11236853551E+00  0.88759593166E+00  0.88000000000E+00 0. -1.
        -11    1    4    4    0    0  0.90978188293E-02  0.84290167182E-03 -0.73812244210E-01  0.74377344044E-01  0.51100000000E-03 0.  1.
         11    1    4    4    0    0  0.15151703085E-01  0.22317627739E-01 -0.52322453813E-01  0.58868929906E-01  0.51100000000E-03 0. -1.
</event>
<event>
 8    1  0.1066842E+005  0.1043930E+01  0.7957747E-01            NaN
         13   -1    0    0    0    0  0.00000000000E+00  0.00000000000E+00  0.74505805969E-08  0.10566000000E+00  0.10566000000E+00 0.  1.
     999900   -1    0    0    0    0 -0.00000000000E+00 -0.00000000000E+00 -0.74505805969E-08  0.93827000000E+00  0.93827000000E+00 0.  1.
     999902    2    1    2    0    0 -0.69469499238E-02  0.71805322256E-03  0.25857337752E-01  0.10171460938E+01  0.10167933903E+01 0.  0.
     999903    2    3    3    0    0  0.38250896861E-01 -0.77121727987E-01 -0.88635455936E-01  0.12517609619E+00  0.20047916867E-01 0.  0.
         14    1    1    2    0    0  0.69469499238E-02 -0.71805322256E-03 -0.25857337752E-01  0.26783906162E-01  0.00000000000E+00 0. -1.
     999901    1    3    3    0    0 -0.45197846784E-01  0.77839781210E-01  0.11449279369E+00  0.89196999765E+00  0.88000000000E+00 0. -1.
        -11    1    4    4    0    0  0.88623495081E-02 -0.36267610352E-01 -0.29955972905E-01  0.47869637904E-01  0.51100000000E-03 0.  1.
         11    1    4    4    0    0  0.29388547352E-01 -0.40854117635E-01 -0.58679483031E-01  0.77306458288E-01  0.51100000000E-03 0. -1.
</event>
<event>
 8    1  0.1066842E+005  0.1043930E+01  0.7957747E-01            NaN
         13   -1    0    0    0    0  0.00000000000E+00  0.00000000000E+00  0.74505805969E-08  0.10566000000E+00  0.10566000000E+00 0. -1.
     999900   -1    0    0    0    0 -0.00000000000E+00 -0.00000000000E+00 -0.74505805969E-08  0.93827000000E+00  0.93827000000E+00 0.  1.
     999902    2    1    2    0    0 -0.85877027529E-02  0.49797488778E-03  0.22790311785E-01  0.10195703011E+01  0.10192792571E+01 0.  0.
     999903    2    3    3    0    0 -0.69977747098E-01 -0.64448409115E-02  0.11101904736E+00  0.13300318579E+00  0.20644551072E-01 0.  0.
         14    1    1    2    0    0  0.85877027529E-02 -0.49797488778E-03 -0.22790311785E-01  0.24359698866E-01  0.00000000000E+00 0.  1.
     999901    1    3    3    0    0  0.61390044345E-01  0.69428157993E-02 -0.88228735576E-01  0.88656711535E+00  0.88000000000E+00 0.  1.
        -11    1    4    4    0    0 -0.10670132811E-01  0.55453244710E-02  0.25988702728E-01  0.28640463477E-01  0.51100000000E-03 0.  1.
         11    1    4    4    0    0 -0.59307614287E-01 -0.11990165383E-01  0.85030344633E-01  0.10436272231E+00  0.51100000000E-03 0. -1.
</event>
<event>
 8    1  0.1066842E+005  0.1043930E+01  0.7957747E-01            NaN
         13   -1    0    0    0    0  0.00000000000E+00  0.00000000000E+00  0.74505805969E-08  0.10566000000E+00  0.10566000000E+00 0.  1.
     999900   -1    0    0    0    0 -0.00000000000E+00 -0.00000000000E+00 -0.74505805969E-08  0.93827000000E+00  0.93827000000E+00 0.  1.
     999902    2    1    2    0    0 -0.21327225674E-01 -0.11843421310E-01 -0.19993131192E-01  0.10123888764E+01  0.10118974230E+01 0.  0.
     999903    2    3    3    0    0  0.87017399355E-01  0.32005619681E-01 -0.78148050176E-01  0.12275789067E+00  0.19130982546E-01 0.  0.
         14    1    1    2    0    0  0.21327225674E-01  0.11843421310E-01  0.19993131192E-01  0.31541123603E-01  0.00000000000E+00 0. -1.
     999901    1    3    3    0    0 -0.10834462503E+00 -0.43849040990E-01  0.58154918984E-01  0.88963098573E+00  0.88000000000E+00 0.  1.
        -11    1    4    4    0    0  0.47110680691E-01  0.79793548003E-02 -0.44462011033E-01  0.65270344601E-01  0.51100000000E-03 0. -1.
         11    1    4    4    0    0  0.39906718664E-01  0.24026264881E-01 -0.33686039143E-01  0.57487546067E-01  0.51100000000E-03 0.  1.
</event>
<event>
 8    1  0.1066842E+005  0.1043930E+01  0.7957747E-01            NaN
         13   -1    0    0    0    0  0.00000000000E+00  0.00000000000E+00  0.74505805969E-08  0.10566000000E+00  0.10566000000E+00 0.  1.
     999900   -1    0    0    0    0 -0.00000000000E+00 -0.00000000000E+00 -0.74505805969E-08  0.93827000000E+00  0.93827000000E+00 0.  1.
     999902    2    1    2    0    0  0.72256320065E-02  0.22276716398E-01  0.43141340603E-02  0.10201166927E+01  0.10198387094E+01 0.  0.
     999903    2    3    3    0    0 -0.80673452772E-01 -0.37677051116E-01 -0.90966969455E-01  0.12860158233E+00  0.18319696610E-01 0.  0.
         14    1    1    2    0    0 -0.72256320065E-02 -0.22276716398E-01 -0.43141340603E-02  0.23813307290E-01  0.00000000000E+00 0. -1.
     999901    1    3    3    0    0  0.87899084779E-01  0.59953767514E-01  0.95281103515E-01  0.89151511038E+00  0.88000000000E+00 0. -1.
        -11    1    4    4    0    0 -0.60241824257E-01 -0.33283630642E-01 -0.77895643674E-01  0.10394647605E+00  0.51100000000E-03 0. -1.
         11    1    4    4    0    0 -0.20431628515E-01 -0.43934204739E-02 -0.13071325780E-01  0.24655106284E-01  0.51100000000E-03 0.  1.
</event>
<event>
 8    1  0.1066842E+005  0.1043930E+01  0.7957747E-01            NaN
         13   -1    0    0    0    0  0.00000000000E+00  0.00000000000E+00  0.74505805969E-08  0.10566000000E+00  0.10566000000E+00 0. -1.
     999900   -1    0    0    0    0 -0.00000000000E+00 -0.00000000000E+00 -0.74505805969E-08  0.93827000000E+00  0.93827000000E+00 0. -1.
     999902    2    1    2    0    0  0.72844182915E-02 -0.68618034691E-02 -0.21155784815E-01  0.10205267026E+01  0.10202583185E+01 0.  0.
     999903    2    3    3    0    0  0.12867368421E+00 -0.23352507344E-02 -0.22609492930E-01  0.13218107348E+00  0.19956868778E-01 0.  0.
         14    1    1    2    0    0 -0.72844182915E-02  0.68618034691E-02  0.21155784815E-01  0.23403297371E-01  0.00000000000E+00 0. -1.
     999901    1    3    3    0    0 -0.12138926592E+00 -0.45265527347E-02  0.14537081144E-02  0.88834562915E+00  0.88000000000E+00 0.  1.
        -11    1    4    4    0    0  0.80233377321E-01  0.63214286780E-02 -0.19839222524E-01  0.82892769095E-01  0.51100000000E-03 0. -1.
         11    1    4    4    0    0  0.48440306890E-01 -0.86566794124E-02 -0.27702704054E-02  0.49288304385E-01  0.51100000000E-03 0.  1.
</event>
<event>
 8    1  0.1066842E+005  0.1043930E+01  0.7957747E-01            NaN
         13   -1    0    0    0    0  0.00000000000E+00  0.00000000000E+00  0.74505805969E-08  0.10566000000E+00  0.10566000000E+00 0.  1.
     999900   -1    0    0    0    0 -0.00000000000E+00 -0.00000000000E+00 -0.74505805969E-08  0.93827000000E+00  0.93827000000E+00 0. -1.
     999902    2    1    2    0    0  0.73428762287E-03  0.22755026613E-01 -0.56461561288E-02  0.10204734552E+01  0.10202038342E+01 0.  0.
     999903    2    3    3    0    0 -0.24308629896E-01 -0.12403888457E+00  0.24776651019E-02  0.12792564330E+00  0.19551905661E-01 0.  0.
         14    1    1    2    0    0 -0.73428762287E-03 -0.22755026613E-01  0.56461561288E-02  0.23456544791E-01  0.00000000000E+00 0.  1.
     999901    1    3    3    0    0  0.25042917518E-01  0.14679391119E+00 -0.81238212307E-02  0.89254781191E+00  0.88000000000E+00 0.  1.
        -11    1    4    4    0    0 -0.22741455129E-01 -0.98982754663E-01 -0.51177517291E-02  0.10169174994E+00  0.51100000000E-03 0. -1.
         11    1    4    4    0    0 -0.15671747664E-02 -0.25056129910E-01  0.75954168311E-02  0.26233893356E-01  0.51100000000E-03 0.  1.
</event>
<event>
 8    1  0.1066842E+005  0.1043930E+01  0.7957747E-01            NaN
         13   -1    0    0    0    0  0.00000000000E+00  0.00000000000E+00  0.74505805969E-08  0.10566000000E+00  0.10566000000E+00 0.  1.
     999900   -1    0    0    0    0 -0.00000000000E+00 -0.00000000000E+00 -0.74505805969E-08  0.93827000000E+00  0.93827000000E+00 0. -1.
     999902    2    1    2    0    0  0.13883640679E-01 -0.59136042211E-02 -0.21989228679E-01  0.10172606848E+01  0.10169110328E+01 0.  0.
     999903    2    3    3    0    0  0.12827731439E-01 -0.96701550014E-01  0.78469088641E-01  0.12690376788E+00  0.20770844040E-01 0.  0.
         14    1    1    2    0    0 -0.13883640679E-01  0.59136042211E-02  0.21989228679E-01  0.26669315164E-01  0.00000000000E+00 0.  1.
     999901    1    3    3    0    0  0.10559092401E-02  0.90787945793E-01 -0.10045831732E+00  0.89035691695E+00  0.88000000000E+00 0. -1.
        -11    1    4    4    0    0  0.11651114017E-01 -0.34267761153E-01  0.38049454657E-01  0.52517140373E-01  0.51100000000E-03 0.  1.
         11    1    4    4    0    0  0.11766174219E-02 -0.62433788861E-01  0.40419633984E-01  0.74386627511E-01  0.51100000000E-03 0. -1.
</event>
<event>
 8    1  0.1066842E+005  0.1043930E+01  0.7957747E-01            NaN
         13   -1    0    0    0    0  0.00000000000E+00  0.00000000000E+00  0.74505805969E-08  0.10566000000E+00  0.10566000000E+00 0. -1.
     999900   -1    0    0    0    0 -0.00000000000E+00 -0.00000000000E+00 -0.74505805969E-08  0.93827000000E+00  0.93827000000E+00 0.  1.
     999902    2    1    2    0    0 -0.17613074859E-01 -0.56715779954E-02  0.13934490715E-01  0.10207662949E+01  0.10205034402E+01 0.  0.
     999903    2    3    3    0    0  0.12349138021E-01  0.12643270933E+00 -0.11392980882E-01  0.13004144526E+00  0.25362300252E-01 0.  0.
         14    1    1    2    0    0  0.17613074859E-01  0.56715779954E-02 -0.13934490715E-01  0.23163705111E-01  0.00000000000E+00 0.  1.
     999901    1    3    3    0    0 -0.29962212881E-01 -0.13210428732E+00  0.25327471597E-01  0.89072484963E+00  0.88000000000E+00 0.  1.
        -11    1    4    4    0    0  0.12071992517E-01  0.46350627725E-01 -0.14035634346E-01  0.49913663925E-01  0.51100000000E-03 0.  1.
         11    1    4    4    0    0  0.27714550472E-03  0.80082081602E-01  0.26426534647E-02  0.80127781336E-01  0.51100000000E-03 0. -1.
</event>
<event>
 8    1  0.1066842E+005  0.1043930E+01  0.7957747E-01            NaN
         13   -1    0    0    0    0  0.00000000000E+00  0.00000000000E+00  0.74505805969E-08  0.10566000000E+00  0.10566000000E+00 0.  1.
     999900   -1    0    0    0    0 -0.00000000000E+00 -0.00000000000E+00 -0.74505805969E-08  0.93827000000E+00  0.93827000000E+00 0. -1.
     999902    2    1    2    0    0  0.23529932153E-02 -0.84877742430E-02 -0.22185747416E-01  0.10200598036E+01  0.10197804747E+01 0.  0.
     999903    2    3    3    0    0  0.12751531771E+00  0.18320670554E-01  0.77358224408E-02  0.13029601441E+00  0.17927777393E-01 0.  0.
         14    1    1    2    0    0 -0.23529932153E-02  0.84877742430E-02  0.22185747416E-01  0.23870196419E-01  0.00000000000E+00 0.  1.
     999901    1    3    3    0    0 -0.12516232449E+00 -0.26808444797E-01 -0.29921569857E-01  0.88976378917E+00  0.88000000000E+00 0.  1.
        -11    1    4    4    0    0  0.81470773414E-01  0.18500948828E-01 -0.32977721136E-03  0.83547243534E-01  0.51100000000E-03 0.  1.
         11    1    4    4    0    0  0.46044544292E-01 -0.18027827430E-03  0.80655996522E-02  0.46748770872E-01  0.51100000000E-03 0. -1.
</event>
<event>
 8    1  0.1066842E+005  0.1043930E+01  0.7957747E-01            NaN
         13   -1    0    0    0    0  0.00000000000E+00  0.00000000000E+00  0.74505805969E-08  0.10566000000E+00  0.10566000000E+00 0. -1.
     999900   -1    0    0    0    0 -0.00000000000E+00 -0.00000000000E+00 -0.74505805969E-08  0.93827000000E+00  0.93827000000E+00 0.  1.
     999902    2    1    2    0    0 -0.13482972595E-01 -0.49270759934E-02  0.14543433381E-01  0.10234952726E+01  0.10232912562E+01 0.  0.
     999903    2    3    3    0    0 -0.75408122760E-01 -0.81827789368E-01 -0.71006100102E-01  0.13385086805E+00  0.22181445724E-01 0.  0.
         14    1    1    2    0    0  0.13482972595E-01  0.49270759934E-02 -0.14543433381E-01  0.20434727362E-01  0.00000000000E+00 0.  1.
     999901    1    3    3    0    0  0.61925150165E-01  0.76900713374E-01  0.85549533483E-01  0.88964440459E+00  0.88000000000E+00 0. -1.
        -11    1    4    4    0    0 -0.22309026549E-01 -0.25905353876E-01 -0.10307627649E-01  0.35711179395E-01  0.51100000000E-03 0. -1.
         11    1    4    4    0    0 -0.53099096211E-01 -0.55922435492E-01 -0.60698472454E-01  0.98139688653E-01  0.51100000000E-03 0.  1.
</event>
<event>
 8    1  0.1066842E+005  0.1043930E+01  0.7957747E-01            NaN
         13   -1    0    0    0    0  0.00000000000E+00  0.00000000000E+00  0.74505805969E-08  0.10566000000E+00  0.10566000000E+00 0.  1.
     999900   -1    0    0    0    0 -0.00000000000E+00 -0.00000000000E+00 -0.74505805969E-08  0.93827000000E+00  0.93827000000E+00 0.  1.
     999902    2    1    2    0    0 -0.15688579718E-01 -0.83090909941E-02 -0.17863543399E-01  0.10187451095E+01  0.10184337580E+01 0.  0.
     999903    2    3    3    0    0 -0.26208472694E-01  0.10149923307E+00  0.69459962662E-01  0.12756952024E+00  0.21455016338E-01 0.  0.
         14    1    1    2    0    0  0.15688579718E-01  0.83090909941E-02  0.17863543399E-01  0.25184890500E-01  0.00000000000E+00 0.  1.
     999901    1    3    3    0    0  0.10519892976E-01 -0.10980832407E+00 -0.87323506061E-01  0.89117558926E+00  0.88000000000E+00 0.  1.
        -11    1    4    4    0    0 -0.14132331585E-01  0.36667617642E-01  0.37357030956E-01  0.54222189761E-01  0.51100000000E-03 0. -1.
         11    1    4    4    0    0 -0.12076141109E-01  0.64831615430E-01  0.32102931706E-01  0.73347330479E-01  0.51100000000E-03 0.  1.
</event>
<event>
 8    1  0.1066842E+005  0.1043930E+01  0.7957747E-01            NaN
         13   -1    0    0    0    0  0.00000000000E+00  0.00000000000E+00  0.74505805969E-08  0.10566000000E+00  0.10566000000E+00 0.  1.
     999900   -1    0    0    0    0 -0.00000000000E+00 -0.00000000000E+00 -0.74505805969E-08  0.93827000000E+00  0.93827000000E+00 0.  1.
     999902    2    1    2    0    0 -0.13518383814E-01 -0.17929003480E-01  0.87317422541E-02  0.10198376944E+01  0.10195530804E+01 0.  0.
     999903    2    3    3    0    0 -0.10803496429E+00 -0.10364425891E-01  0.73066016111E-01  0.13240910255E+00  0.20360572070E-01 0.  0.
         14    1    1    2    0    0  0.13518383814E-01  0.17929003480E-01 -0.87317422541E-02  0.24092305608E-01  0.00000000000E+00 0.  1.
     999901    1    3    3    0    0  0.94516580478E-01 -0.75645775893E-02 -0.64334273857E-01  0.88742859184E+00  0.88000000000E+00 0.  1.
        -11    1    4    4    0    0 -0.89702182366E-01 -0.16057326293E-01  0.58262902054E-01  0.10816259116E+00  0.51100000000E-03 0. -1.
         11    1    4    4    0    0 -0.18332781926E-01  0.56929004021E-02  0.14803114057E-01  0.24246511396E-01  0.51100000000E-03 0.  1.
</event>
<event>
 8    1  0.1066842E+005  0.1043930E+01  0.7957747E-01            NaN
         13   -1    0    0    0    0  0.00000000000E+00  0.00000000000E+00  0.74505805969E-08  0.10566000000E+00  0.10566000000E+00 0.  1.
     999900   -1    0    0    0    0 -0.00000000000E+00 -0.00000000000E+00 -0.74505805969E-08  0.93827000000E+00  0.93827000000E+00 0.  1.
     999902    2    1    2    0    0 -0.64474483580E-02  0.17893060007E-01 -0.14127527560E-01  0.10202378447E+01  0.10199627158E+01 0.  0.
     999903    2    3    3    0    0  0.75183196503E-01  0.66752418010E-01  0.79647194564E-01  0.13015667002E+00  0.22106216383E-01 0.  0.
         14    1    1    2    0    0  0.64474483580E-02 -0.17893060007E-01  0.14127527560E-01  0.23692155278E-01  0.00000000000E+00 0.  1.
     999901    1    3    3    0    0 -0.81630644861E-01 -0.48859358003E-01 -0.93774722124E-01  0.89008117470E+00  0.88000000000E+00 0.  1.
        -11    1    4    4    0    0  0.21391173715E-01  0.21130741446E-01  0.11853230572E-01  0.32324151078E-01  0.51100000000E-03 0. -1.
         11    1    4    4    0    0  0.53792022788E-01  0.45621676565E-01  0.67793963992E-01  0.97832518944E-01  0.51100000000E-03 0.  1.
</event>
<event>
 8    1  0.1066842E+005  0.1043930E+01  0.7957747E-01            NaN
         13   -1    0    0    0    0  0.00000000000E+00  0.00000000000E+00  0.74505805969E-08  0.10566000000E+00  0.10566000000E+00 0.  1.
     999900   -1    0    0    0    0 -0.00000000000E+00 -0.00000000000E+00 -0.74505805969E-08  0.93827000000E+00  0.93827000000E+00 0.  1.
     999902    2    1    2    0    0  0.37167864892E-02  0.17868193282E-01 -0.14041966134E-01  0.10209025458E+01  0.10206428094E+01 0.  0.
     999903    2    3    3    0    0  0.30341126129E-01  0.79543377134E-01  0.97813699835E-01  0.13128219209E+00  0.20488077117E-01 0.  0.
         14    1    1    2    0    0 -0.37167864892E-02 -0.17868193282E-01  0.14041966134E-01  0.23027454178E-01  0.00000000000E+00 0. -1.
     999901    1    3    3    0    0 -0.26624339640E-01 -0.61675183852E-01 -0.11185566597E+00  0.88962035373E+00  0.88000000000E+00 0.  1.
        -11    1    4    4    0    0  0.18012292079E-01  0.52012363334E-01  0.47947673704E-01  0.72999788631E-01  0.51100000000E-03 0. -1.
         11    1    4    4    0    0  0.12328834050E-01  0.27531013800E-01  0.49866026132E-01  0.58282403460E-01  0.51100000000E-03 0.  1.
</event>
<event>
 8    1  0.1066842E+005  0.1043930E+01  0.7957747E-01            NaN
         13   -1    0    0    0    0  0.00000000000E+00  0.00000000000E+00  0.74505805969E-08  0.10566000000E+00  0.10566000000E+00 0.  1.
     999900   -1    0    0    0    0 -0.00000000000E+00 -0.00000000000E+00 -0.74505805969E-08  0.93827000000E+00  0.93827000000E+00 0.  1.
     999902    2    1    2    0    0 -0.21998855661E-01 -0.53483303613E-02  0.83898636392E-03  0.10212747978E+01  0.10210234838E+01 0.  0.
     999903    2    3    3    0    0 -0.37709864556E-01 -0.12197469972E+00  0.31108075837E-01  0.13292533752E+00  0.20039254375E-01 0.  0.
         14    1    1    2    0    0  0.21998855661E-01  0.53483303613E-02 -0.83898636392E-03  0.22655202188E-01  0.00000000000E+00 0.  1.
     999901    1    3    3    0    0  0.15711008894E-01  0.11662636936E+00 -0.30269089473E-01  0.88834946030E+00  0.88000000000E+00 0.  1.
        -11    1    4    4    0    0 -0.28992617185E-01 -0.94670439247E-01  0.15293718775E-01  0.10018594150E+00  0.51100000000E-03 0.  1.
         11    1    4    4    0    0 -0.87172473711E-02 -0.27304260469E-01  0.15814357062E-01  0.32739396021E-01  0.51100000000E-03 0. -1.
</event>
<event>
 7    1  0.1066842E+005  0.1043930E+01  0.7957747E-01            NaN
         13   -1    0    0    0    0  0.00000000000E+00  0.00000000000E+00  0.74505805969E-08  0.10566000000E+00  0.10566000000E+00 0.  1.
     999900   -1    0    0    0    0 -0.00000000000E+00 -0.00000000000E+00 -0.74505805969E-08  0.93827000000E+00  0.93827000000E+00 0. -1.
     999902    2    1    2    0    0 -0.19130279649E-01  0.10351757232E-01  0.74702323287E-02  0.10209315033E+01  0.10206724272E+01 0.  0.
         14    1    1    2    0    0  0.19130279649E-01 -0.10351757232E-01 -0.74702323287E-02  0.22998496652E-01  0.00000000000E+00 0.  1.
     999901    1    3    3    0    0 -0.53155642679E-02 -0.74487349428E-01  0.96324372825E-01  0.88840025059E+00  0.88000000000E+00 0.  1.
        -11    1    3    3    0    0 -0.30783213201E-01  0.59353202284E-01 -0.68732800200E-01  0.95889873192E-01  0.51100000000E-03 0. -1.
         11    1    3    3    0    0  0.16968497821E-01  0.25485904377E-01 -0.20121340296E-01  0.36641379566E-01  0.51100000000E-03 0.  1.
</event>
<event>
 8    1  0.1066842E+005  0.1043930E+01  0.7957747E-01            NaN
         13   -1    0    0    0    0  0.00000000000E+00  0.00000000000E+00  0.74505805969E-08  0.10566000000E+00  0.10566000000E+00 0.  1.
     999900   -1    0    0    0    0 -0.00000000000E+00 -0.00000000000E+00 -0.74505805969E-08  0.93827000000E+00  0.93827000000E+00 0.  1.
     999902    2    1    2    0    0 -0.12177148628E-01  0.15086970405E-02 -0.19406204860E-01  0.10209700370E+01  0.10207118381E+01 0.  0.
     999903    2    3    3    0    0 -0.53870495777E-01  0.10022038330E+00 -0.66069098853E-01  0.13324273769E+00  0.21032017985E-01 0.  0.
         14    1    1    2    0    0  0.12177148628E-01 -0.15086970405E-02  0.19406204860E-01  0.22959963034E-01  0.00000000000E+00 0.  1.
     999901    1    3    3    0    0  0.41693347149E-01 -0.98711686258E-01  0.46662893993E-01  0.88772729927E+00  0.88000000000E+00 0. -1.
        -11    1    4    4    0    0 -0.49198852696E-01  0.78016565280E-01 -0.58917247952E-01  0.10944685830E+00  0.51100000000E-03 0.  1.
         11    1    4    4    0    0 -0.46716430815E-02  0.22203818018E-01 -0.71518509014E-02  0.23795879391E-01  0.51100000000E-03 0. -1.
</event>
<event>
 8    1  0.1066842E+005  0.1043930E+01  0.7957747E-01            NaN
         13   -1    0    0    0    0  0.00000000000E+00  0.00000000000E+00  0.74505805969E-08  0.10566000000E+00  0.10566000000E+00 0. -1.
     999900   -1    0    0    0    0 -0.00000000000E+00 -0.00000000000E+00 -0.74505805969E-08  0.93827000000E+00  0.93827000000E+00 0. -1.
     999902    2    1    2    0    0 -0.69102627835E-02  0.82571221636E-02 -0.21044476228E-01  0.10202910115E+01  0.10200171304E+01 0.  0.
     999903    2    3    3    0    0  0.91175575711E-01  0.81815362348E-01 -0.43626821974E-01  0.13150441801E+00  0.19579919242E-01 0.  0.
         14    1    1    2    0    0  0.69102627835E-02 -0.82571221636E-02  0.21044476228E-01  0.23638988512E-01  0.00000000000E+00 0. -1.
     999901    1    3    3    0    0 -0.98085838494E-01 -0.73558240185E-01  0.22582345747E-01  0.88878659348E+00  0.88000000000E+00 0. -1.
        -11    1    4    4    0    0  0.39841206530E-01  0.23408989983E-01 -0.13934679708E-01  0.48267369612E-01  0.51100000000E-03 0. -1.
         11    1    4    4    0    0  0.51334369181E-01  0.58406372365E-01 -0.29692142267E-01  0.83237048395E-01  0.51100000000E-03 0.  1.
</event>
<event>
 8    1  0.1066842E+005  0.1043930E+01  0.7957747E-01            NaN
         13   -1    0    0    0    0  0.00000000000E+00  0.00000000000E+00  0.74505805969E-08  0.10566000000E+00  0.10566000000E+00 0. -1.
     999900   -1    0    0    0    0 -0.00000000000E+00 -0.00000000000E+00 -0.74505805969E-08  0.93827000000E+00  0.93827000000E+00 0.  1.
     999902    2    1    2    0    0 -0.23451478804E-01  0.15086796320E-02 -0.13205581843E-02  0.10203929686E+01  0.10201214725E+01 0.  0.
     999903    2    3    3    0    0  0.78487469983E-01  0.97871917299E-01  0.22435966027E-01  0.12896613747E+00  0.19740742179E-01 0.  0.
         14    1    1    2    0    0  0.23451478804E-01 -0.15086796320E-02  0.13205581843E-02  0.23537031381E-01  0.00000000000E+00 0.  1.
     999901    1    3    3    0    0 -0.10193894879E+00 -0.96363237667E-01 -0.23756524211E-01  0.89142683115E+00  0.88000000000E+00 0. -1.
        -11    1    4    4    0    0  0.30207254588E-01  0.51602332209E-01  0.59569201784E-02  0.60091804252E-01  0.51100000000E-03 0. -1.
         11    1    4    4    0    0  0.48280215395E-01  0.46269585090E-01  0.16479045849E-01  0.68874333217E-01  0.51100000000E-03 0.  1.
</event>
<event>
 8    1  0.1066842E+005  0.1043930E+01  0.7957747E-01            NaN
         13   -1    0    0    0    0  0.00000000000E+00  0.00000000000E+00  0.74505805969E-08  0.10566000000E+00  0.10566000000E+00 0. -1.
     999900   -1    0    0    0    0 -0.00000000000E+00 -0.00000000000E+00 -0.74505805969E-08  0.93827000000E+00  0.93827000000E+00 0.  1.
     999902    2    1    2    0    0 -0.53519473080E-02  0.95285227996E-02  0.20701877323E-01  0.10205205188E+01  0.10202519911E+01 0.  0.
     999903    2    3    3    0    0  0.35720937870E-01  0.34269944748E-01  0.12144877298E+00  0.13347539205E+00  0.24808492685E-01 0.  0.
         14    1    1    2    0    0  0.53519473080E-02 -0.95285227996E-02 -0.20701877323E-01  0.23409481229E-01  0.00000000000E+00 0.  1.
     999901    1    3    3    0    0 -0.41072885178E-01 -0.24741421948E-01 -0.10074689566E+00  0.88704512672E+00  0.88000000000E+00 0.  1.
        -11    1    4    4    0    0  0.12723788254E-01  0.91253491243E-02  0.70223171241E-01  0.71949438387E-01  0.51100000000E-03 0.  1.
         11    1    4    4    0    0  0.22997149617E-01  0.25144595624E-01  0.51225601738E-01  0.61525953662E-01  0.51100000000E-03 0. -1.
</event>
<event>
 8    1  0.1066842E+005  0.1043930E+01  0.7957747E-01            NaN
         13   -1    0    0    0    0  0.00000000000E+00  0.00000000000E+00  0.74505805969E-08  0.10566000000E+00  0.10566000000E+00 0. -1.
     999900   -1    0    0    0    0 -0.00000000000E+00 -0.00000000000E+00 -0.74505805969E-08  0.93827000000E+00  0.93827000000E+00 0.  1.
     999902    2    1    2    0    0 -0.71860874540E-04  0.11608448354E-01 -0.17766403426E-01  0.10227072215E+01  0.10224869948E+01 0.  0.
     999903    2    3    3    0    0  0.68581858263E-01 -0.10365701717E+00 -0.40345353785E-01  0.13225269166E+00  0.20366108785E-01 0.  0.
         14    1    1    2    0    0  0.71860874540E-04 -0.11608448354E-01  0.17766403426E-01  0.21222778515E-01  0.00000000000E+00 0. -1.
     999901    1    3    3    0    0 -0.68653719138E-01  0.11526546552E+00  0.22578950359E-01  0.89045452983E+00  0.88000000000E+00 0. -1.
        -11    1    4    4    0    0  0.27979580278E-02 -0.15787978560E-01 -0.30987559067E-02  0.16338673303E-01  0.51100000000E-03 0. -1.
         11    1    4    4    0    0  0.65783900235E-01 -0.87869038609E-01 -0.37246597878E-01  0.11591401835E+00  0.51100000000E-03 0.  1.
</event>
<event>
 8    1  0.1066842E+005  0.1043930E+01  0.7957747E-01            NaN
         13   -1    0    0    0    0  0.00000000000E+00  0.00000000000E+00  0.74505805969E-08  0.10566000000E+00  0.10566000000E+00 0.  1.
     999900   -1    0    0    0    0 -0.00000000000E+00 -0.00000000000E+00 -0.74505805969E-08  0.93827000000E+00  0.93827000000E+00 0. -1.
     999902    2    1    2    0    0 -0.23452565087E-01 -0.26816961136E-02 -0.66126195499E-02  0.10194159012E+01  0.10191211108E+01 0.  0.
     999903    2    3    3    0    0 -0.10632153940E+00 -0.42112129988E-01 -0.64546764738E-01  0.13274888861E+00  0.19449456452E-01 0.  0.
         14    1    1    2    0    0  0.23452565087E-01  0.26816961136E-02  0.66126195499E-02  0.24514098811E-01  0.00000000000E+00 0. -1.
     999901    1    3    3    0    0  0.82868974313E-01  0.39430433875E-01  0.57934145188E-01  0.88666701258E+00  0.88000000000E+00 0. -1.
        -11    1    4    4    0    0 -0.59659039727E-01 -0.32606515489E-01 -0.43249009733E-01  0.80579922049E-01  0.51100000000E-03 0.  1.
         11    1    4    4    0    0 -0.46662499672E-01 -0.95056144990E-02 -0.21297755005E-01  0.52168966560E-01  0.51100000000E-03 0. -1.
</event>
<event>
 8    1  0.1066842E+005  0.1043930E+01  0.7957747E-01            NaN
         13   -1    0    0    0    0  0.00000000000E+00  0.00000000000E+00  0.74505805969E-08  0.10566000000E+00  0.10566000000E+00 0. -1.
     999900   -1    0    0    0    0 -0.00000000000E+00 -0.00000000000E+00 -0.74505805969E-08  0.93827000000E+00  0.93827000000E+00 0. -1.
     999902    2    1    2    0    0 -0.79831394855E-03 -0.23002735548E-01  0.96542390759E-03  0.10208931775E+01  0.10206332273E+01 0.  0.
     999903    2    3    3    0    0 -0.82316686096E-01  0.74259147813E-01 -0.63783890949E-01  0.12943505020E+00  0.19864280274E-01 0.  0.
         14    1    1    2    0    0  0.79831394855E-03  0.23002735548E-01 -0.96542390759E-03  0.23036822506E-01  0.00000000000E+00 0. -1.
     999901    1    3    3    0    0  0.81518372148E-01 -0.97261883361E-01  0.64749314856E-01  0.89145812730E+00  0.88000000000E+00 0.  1.
        -11    1    4    4    0    0 -0.48941495056E-01  0.33628915492E-01 -0.40795057821E-01  0.72046316763E-01  0.51100000000E-03 0.  1.
         11    1    4    4    0    0 -0.33375191040E-01  0.40630232321E-01 -0.22988833128E-01  0.57388733433E-01  0.51100000000E-03 0. -1.
</event>
<event>
 8    1  0.1066842E+005  0.1043930E+01  0.7957747E-01            NaN
         13   -1    0    0    0    0  0.00000000000E+00  0.00000000000E+00  0.74505805969E-08  0.10566000000E+00  0.10566000000E+00 0. -1.
     999900   -1    0    0    0    0 -0.00000000000E+00 -0.00000000000E+00 -0.74505805969E-08  0.93827000000E+00  0.93827000000E+00 0. -1.
     999902    2    1    2    0    0  0.21789178338E-01 -0.10828224440E-01  0.77558629333E-03  0.10195862067E+01  0.10192955473E+01 0.  0.
     999903    2    3    3    0    0  0.22975708175E-01  0.29934896127E-01  0.12287459839E+00  0.13022058528E+00  0.20862711408E-01 0.  0.
         14    1    1    2    0    0 -0.21789178338E-01  0.10828224440E-01 -0.77558629333E-03  0.24343793281E-01  0.00000000000E+00 0. -1.
     999901    1    3    3    0    0 -0.11865298367E-02 -0.40763120567E-01 -0.12209901210E+00  0.88936562144E+00  0.88000000000E+00 0. -1.
        -11    1    4    4    0    0  0.23606800521E-01  0.22426758350E-01  0.75155043934E-01  0.81907156407E-01  0.51100000000E-03 0.  1.
         11    1    4    4    0    0 -0.63109234575E-03  0.75081377775E-02  0.47719554457E-01  0.48313428868E-01  0.51100000000E-03 0. -1.
</event>
<event>
 8    1  0.1066842E+005  0.1043930E+01  0.7957747E-01            NaN
         13   -1    0    0    0    0  0.00000000000E+00  0.00000000000E+00  0.74505805969E-08  0.10566000000E+00  0.10566000000E+00 0. -1.
     999900   -1    0    0    0    0 -0.00000000000E+00 -0.00000000000E+00 -0.74505805969E-08  0.93827000000E+00  0.93827000000E+00 0.  1.
     999902    2    1    2    0    0 -0.12975944985E-02  0.22497651117E-01  0.65260695179E-02  0.10204690188E+01  0.10201992946E+01 0.  0.
     999903    2    3    3    0    0 -0.10176727476E+00  0.79084389242E-01  0.23885547788E-01  0.13277674828E+00  0.21171364119E-01 0.  0.
         14    1    1    2    0    0  0.12975944985E-02 -0.22497651117E-01 -0.65260695179E-02  0.23460981237E-01  0.00000000000E+00 0.  1.
     999901    1    3    3    0    0  0.10046968026E+00 -0.56586738125E-01 -0.17359478270E-01  0.88769227048E+00  0.88000000000E+00 0.  1.
        -11    1    4    4    0    0 -0.47612559012E-01  0.23924503370E-01  0.85848410966E-02  0.53974978043E-01  0.51100000000E-03 0. -1.
         11    1    4    4    0    0 -0.54154715744E-01  0.55159885872E-01  0.15300706691E-01  0.78801770240E-01  0.51100000000E-03 0.  1.
</event>
<event>
 8    1  0.1066842E+005  0.1043930E+01  0.7957747E-01            NaN
         13   -1    0    0    0    0  0.00000000000E+00  0.00000000000E+00  0.74505805969E-08  0.10566000000E+00  0.10566000000E+00 0. -1.
     999900   -1    0    0    0    0 -0.00000000000E+00 -0.00000000000E+00 -0.74505805969E-08  0.93827000000E+00  0.93827000000E+00 0. -1.
     999902    2    1    2    0    0 -0.12432588483E-01 -0.20970499481E-01 -0.12718064679E-02  0.10195179416E+01  0.10192256299E+01 0.  0.
     999903    2    3    3    0    0  0.36835626959E-01  0.11958035006E+00  0.95121319111E-02  0.12693842596E+00  0.19145751472E-01 0.  0.
         14    1    1    2    0    0  0.12432588483E-01  0.20970499481E-01  0.12718064679E-02  0.24412058425E-01  0.00000000000E+00 0. -1.
     999901    1    3    3    0    0 -0.49268215442E-01 -0.14055084954E+00 -0.10783938379E-01  0.89257951561E+00  0.88000000000E+00 0. -1.
        -11    1    4    4    0    0  0.17474541837E-01  0.28788782249E-01  0.43475006934E-02  0.33960498804E-01  0.51100000000E-03 0.  1.
         11    1    4    4    0    0  0.19361085122E-01  0.90791567810E-01  0.51646312178E-02  0.92977927161E-01  0.51100000000E-03 0. -1.
</event>
<event>
 8    1  0.1066842E+005  0.1043930E+01  0.7957747E-01            NaN
         13   -1    0    0    0    0  0.00000000000E+00  0.00000000000E+00  0.74505805969E-08  0.10566000000E+00  0.10566000000E+00 0. -1.
     999900   -1    0    0    0    0 -0.00000000000E+00 -0.00000000000E+00 -0.74505805969E-08  0.93827000000E+00  0.93827000000E+00 0. -1.
     999902    2    1    2    0    0  0.10429837728E-02 -0.11892212612E-01  0.20141623440E-01  0.10205163815E+01  0.10202477579E+01 0.  0.
     999903    2    3    3    0    0  0.18739020470E-01  0.79415436459E-01  0.10172407078E+00  0.13186238123E+00  0.19543248764E-01 0.  0.
         14    1    1    2    0    0 -0.10429837728E-02  0.11892212612E-01 -0.20141623440E-01  0.23413618490E-01  0.00000000000E+00 0.  1.
     999901    1    3    3    0    0 -0.17696036697E-01 -0.91307649072E-01 -0.81582447340E-01  0.88865400028E+00  0.88000000000E+00 0. -1.
        -11    1    4    4    0    0  0.43345099866E-02  0.36062143216E-01  0.31478834058E-01  0.48067080885E-01  0.51100000000E-03 0.  1.
         11    1    4    4    0    0  0.14404510483E-01  0.43353293243E-01  0.70245236722E-01  0.83795300348E-01  0.51100000000E-03 0. -1.
</event>
<event>
 8    1  0.1066842E+005  0.1043930E+01  0.7957747E-01            NaN
         13   -1    0    0    0    0  0.00000000000E+00  0.00000000000E+00  0.74505805969E-08  0.10566000000E+00  0.10566000000E+00 0.  1.
     999900   -1    0    0    0    0 -0.00000000000E+00 -0.00000000000E+00 -0.74505805969E-08  0.93827000000E+00  0.93827000000E+00 0. -1.
     999902    2    1    2    0    0  0.22493332258E-01  0.41623305104E-03  0.72313574194E-02  0.10202991774E+01  0.10200254877E+01 0.  0.
     999903    2    3    3    0    0 -0.76722930378E-01  0.98679866085E-01  0.25231488274E-01  0.12910693493E+00  0.20195262577E-01 0.  0.
         14    1    1    2    0    0 -0.22493332258E-01 -0.41623305104E-03 -0.72313574194E-02  0.23630822587E-01  0.00000000000E+00 0. -1.
     999901    1    3    3    0    0  0.99216262636E-01 -0.98263633033E-01 -0.18000130855E-01  0.89119224248E+00  0.88000000000E+00 0.  1.
        -11    1    4    4    0    0 -0.51481446572E-01  0.77051320336E-01  0.24507447819E-01  0.95854689120E-01  0.51100000000E-03 0.  1.
         11    1    4    4    0    0 -0.25241483806E-01  0.21628545749E-01  0.72404045547E-03  0.33252245811E-01  0.51100000000E-03 0. -1.
</event>
<event>
 8    1  0.1066842E+005  0.1043930E+01  0.7957747E-01            NaN
         13   -1    0    0    0    0  0.00000000000E+00  0.00000000000E+00  0.74505805969E-08  0.10566000000E+00  0.10566000000E+00 0.  1.
     999900   -1    0    0    0    0 -0.00000000000E+00 -0.00000000000E+00 -0.74505805969E-08  0.93827000000E+00  0.93827000000E+00 0.  1.
     999902    2    1    2    0    0  0.21671652105E-01 -0.47590922006E-02  0.64692124109E-02  0.10208180946E+01  0.10205564277E+01 0.  0.
     999903    2    3    3    0    0  0.72383725761E-01  0.28799823500E-01  0.10744810526E+00  0.13295850430E+00  0.80021842452E-02 0.  0.
         14    1    1    2    0    0 -0.21671652105E-01  0.47590922006E-02 -0.64692124109E-02  0.23111905433E-01  0.00000000000E+00 0. -1.
     999901    1    3    3    0    0 -0.50712073657E-01 -0.33558915701E-01 -0.10097889284E+00  0.88785959027E+00  0.88000000000E+00 0.  1.
        -11    1    4    4    0    0  0.34617941472E-01  0.13199903985E-01  0.44454448404E-01  0.57871395705E-01  0.51100000000E-03 0.  1.
         11    1    4    4    0    0  0.37765784289E-01  0.15599919515E-01  0.62993656852E-01  0.75087108590E-01  0.51100000000E-03 0. -1.
</event>
<event>
 8    1  0.1066842E+005  0.1043930E+01  0.7957747E-01            NaN
         13   -1    0    0    0    0  0.00000000000E+00  0.00000000000E+00  0.74505805969E-08  0.10566000000E+00  0.10566000000E+00 0.  1.
     999900   -1    0    0    0    0 -0.00000000000E+00 -0.00000000000E+00 -0.74505805969E-08  0.93827000000E+00  0.93827000000E+00 0.  1.
     999902    2    1    2    0    0 -0.21302868925E-01 -0.16847508642E-02  0.13295928094E-01  0.10187619187E+01  0.10184509879E+01 0.  0.
     999903    2    3    3    0    0 -0.73231866233E-01 -0.96191355519E-01  0.47932561810E-01  0.13150332314E+00  0.19491290550E-01 0.  0.
         14    1    1    2    0    0  0.21302868925E-01  0.16847508642E-02 -0.13295928094E-01  0.25168081250E-01  0.00000000000E+00 0. -1.
     999901    1    3    3    0    0  0.51928997307E-01  0.94506604655E-01 -0.34636633715E-01  0.88725859561E+00  0.88000000000E+00 0.  1.
        -11    1    4    4    0    0 -0.24753192686E-01 -0.44819090888E-01  0.26689906773E-01  0.57741524925E-01  0.51100000000E-03 0. -1.
         11    1    4    4    0    0 -0.48478673546E-01 -0.51372264631E-01  0.21242655037E-01  0.73761798217E-01  0.51100000000E-03 0.  1.
</event>
<event>
 7    1  0.1066842E+005  0.1043930E+01  0.7957747E-01            NaN
         13   -1    0    0    0    0  0.00000000000E+00  0.00000000000E+00  0.74505805969E-08  0.10566000000E+00  0.10566000000E+00 0. -1.
     999900   -1    0    0    0    0 -0.00000000000E+00 -0.00000000000E+00 -0.74505805969E-08  0.93827000000E+00  0.93827000000E+00 0. -1.
     999903    2    1    2    0    0  0.76334719608E-01 -0.43678384437E-01  0.64387470036E-01  0.11091003577E+00  0.20506073520E-01 0.  0.
         14    1    1    2    0    0  0.35614370736E-01 -0.13726297025E-01  0.13926602983E-01  0.40629360118E-01  0.00000000000E+00 0. -1.
     999901    1    1    2    0    0 -0.11194909034E+00  0.57404681462E-01 -0.78314073019E-01  0.89239060412E+00  0.88000000000E+00 0. -1.
        -11    1    3    3    0    0  0.57811319664E-01 -0.40617172466E-01  0.56793277523E-01  0.90651204478E-01  0.51100000000E-03 0. -1.
         11    1    3    3    0    0  0.18523399944E-01 -0.30612119702E-02  0.75941925125E-02  0.20258831287E-01  0.51100000000E-03 0.  1.
</event>
<event>
 8    1  0.1066842E+005  0.1043930E+01  0.7957747E-01            NaN
         13   -1    0    0    0    0  0.00000000000E+00  0.00000000000E+00  0.74505805969E-08  0.10566000000E+00  0.10566000000E+00 0. -1.
     999900   -1    0    0    0    0 -0.00000000000E+00 -0.00000000000E+00 -0.74505805969E-08  0.93827000000E+00  0.93827000000E+00 0.  1.
     999902    2    1    2    0    0  0.21898286261E-01  0.84150944039E-02 -0.23650347233E-02  0.10203515746E+01  0.10200791115E+01 0.  0.
     999903    2    3    3    0    0  0.11405487781E+00  0.28026355409E-01  0.59436575389E-01  0.13316676976E+00  0.20166564562E-01 0.  0.
         14    1    1    2    0    0 -0.21898286261E-01 -0.84150944039E-02  0.23650347233E-02  0.23578425398E-01  0.00000000000E+00 0.  1.
     999901    1    3    3    0    0 -0.92156591546E-01 -0.19611261005E-01 -0.61801610113E-01  0.88718480484E+00  0.88000000000E+00 0. -1.
        -11    1    4    4    0    0  0.51700590245E-01  0.82933330358E-02  0.16395110466E-01  0.54870676802E-01  0.51100000000E-03 0.  1.
         11    1    4    4    0    0  0.62354287562E-01  0.19733022373E-01  0.43041464923E-01  0.78296092961E-01  0.51100000000E-03 0. -1.
</event>
<event>
 8    1  0.1066842E+005  0.1043930E+01  0.7957747E-01            NaN
         13   -1    0    0    0    0  0.00000000000E+00  0.00000000000E+00  0.74505805969E-08  0.10566000000E+00  0.10566000000E+00 0.  1.
     999900   -1    0    0    0    0 -0.00000000000E+00 -0.00000000000E+00 -0.74505805969E-08  0.93827000000E+00  0.93827000000E+00 0. -1.
     999902    2    1    2    0    0 -0.81420352144E-02  0.22606947290E-01 -0.74584008486E-02  0.10187706171E+01  0.10184599039E+01 0.  0.
     999903    2    3    3    0    0 -0.66576308145E-01 -0.47139481357E-01  0.96193737750E-01  0.12802772808E+00  0.21984732554E-01 0.  0.
         14    1    1    2    0    0  0.81420352144E-02 -0.22606947290E-01  0.74584008486E-02  0.25159382870E-01  0.00000000000E+00 0. -1.
     999901    1    3    3    0    0  0.58434272931E-01  0.69746428647E-01 -0.10365213860E+00  0.89074288905E+00  0.88000000000E+00 0. -1.
        -11    1    4    4    0    0 -0.57331202509E-01 -0.36970370643E-01  0.90028645942E-01  0.11295615653E+00  0.51100000000E-03 0.  1.
         11    1    4    4    0    0 -0.92451056363E-02 -0.10169110714E-01  0.61650918078E-02  0.15071571548E-01  0.51100000000E-03 0. -1.
</event>
<event>
 8    1  0.1066842E+005  0.1043930E+01  0.7957747E-01            NaN
         13   -1    0    0    0    0  0.00000000000E+00  0.00000000000E+00  0.74505805969E-08  0.10566000000E+00  0.10566000000E+00 0.  1.
     999900   -1    0    0    0    0 -0.00000000000E+00 -0.00000000000E+00 -0.74505805969E-08  0.93827000000E+00  0.93827000000E+00 0.  1.
     999902    2    1    2    0    0 -0.33489607155E-02 -0.22553657682E-01 -0.57539162379E-02  0.10204142486E+01  0.10201432488E+01 0.  0.
     999903    2    3    3    0    0 -0.11578237576E+00 -0.16672680717E-01 -0.57401647672E-01  0.13173919724E+00  0.19409536698E-01 0.  0.
         14    1    1    2    0    0  0.33489607155E-02  0.22553657682E-01  0.57539162379E-02  0.23515751418E-01  0.00000000000E+00 0.  1.
     999901    1    3    3    0    0  0.11243341505E+00 -0.58809769651E-02  0.51647731434E-01  0.88867505134E+00  0.88000000000E+00 0.  1.
        -11    1    4    4    0    0 -0.43803316830E-01 -0.12491721398E-01 -0.14337642178E-01  0.47755656974E-01  0.51100000000E-03 0. -1.
         11    1    4    4    0    0 -0.71979058934E-01 -0.41809593185E-02 -0.43064005494E-01  0.83983540269E-01  0.51100000000E-03 0.  1.
</event>
<event>
 8    1  0.1066842E+005  0.1043930E+01  0.7957747E-01            NaN
         13   -1    0    0    0    0  0.00000000000E+00  0.00000000000E+00  0.74505805969E-08  0.10566000000E+00  0.10566000000E+00 0. -1.
     999900   -1    0    0    0    0 -0.00000000000E+00 -0.00000000000E+00 -0.74505805969E-08  0.93827000000E+00  0.93827000000E+00 0.  1.
     999902    2    1    2    0    0 -0.14178757248E-01 -0.11743585310E-02 -0.18562790662E-01  0.10205421084E+01  0.10202740816E+01 0.  0.
     999903    2    3    3    0    0  0.52372069713E-01 -0.51303191722E-01 -0.10788716632E+00  0.13210485314E+00  0.20909337643E-01 0.  0.
         14    1    1    2    0    0  0.14178757248E-01  0.11743585310E-02  0.18562790662E-01  0.23387891573E-01  0.00000000000E+00 0. -1.
     999901    1    3    3    0    0 -0.66550826961E-01  0.50128833191E-01  0.89324375659E-01  0.88843725528E+00  0.88000000000E+00 0. -1.
        -11    1    4    4    0    0  0.18712739027E-01 -0.58951331108E-02 -0.30601301360E-01  0.36354091409E-01  0.51100000000E-03 0. -1.
         11    1    4    4    0    0  0.33659330686E-01 -0.45408058611E-01 -0.77285864961E-01  0.95750761736E-01  0.51100000000E-03 0.  1.
</event>
<event>
 8    1  0.1066842E+005  0.1043930E+01  0.7957747E-01            NaN
         13   -1    0    0    0    0  0.00000000000E+00  0.00000000000E+00  0.74505805969E-08  0.10566000000E+00  0.10566000000E+00 0.  1.
     999900   -1    0    0    0    0 -0.00000000000E+00 -0.00000000000E+00 -0.74505805969E-08  0.93827000000E+00  0.93827000000E+00 0. -1.
     999902    2    1    2    0    0 -0.27811988494E-02 -0.22813448171E-01 -0.61880042002E-02  0.10201291622E+01  0.10198514733E+01 0.  0.
     999903    2    3    3    0    0  0.10081642912E+00  0.62002081538E-01 -0.47451902603E-01  0.12904619640E+00  0.19824914896E-01 0.  0.
         14    1    1    2    0    0  0.27811988494E-02  0.22813448171E-01  0.61880042002E-02  0.23800837810E-01  0.00000000000E+00 0.  1.
     999901    1    3    3    0    0 -0.10359762797E+00 -0.84815529709E-01  0.41263898403E-01  0.89108296578E+00  0.88000000000E+00 0.  1.
        -11    1    4    4    0    0  0.56291108126E-01  0.45644554295E-01 -0.31171588591E-01  0.78892605783E-01  0.51100000000E-03 0.  1.
         11    1    4    4    0    0  0.44525320992E-01  0.16357527243E-01 -0.16280314012E-01  0.50153590622E-01  0.51100000000E-03 0. -1.
</event>
<event>
 8    1  0.1066842E+005  0.1043930E+01  0.7957747E-01            NaN
         13   -1    0    0    0    0  0.00000000000E+00  0.00000000000E+00  0.74505805969E-08  0.10566000000E+00  0.10566000000E+00 0. -1.
     999900   -1    0    0    0    0 -0.00000000000E+00 -0.00000000000E+00 -0.74505805969E-08  0.93827000000E+00  0.93827000000E+00 0. -1.
     999902    2    1    2    0    0  0.22438398406E-01 -0.88151339015E-02 -0.31923737574E-02  0.10196117032E+01  0.10193216596E+01 0.  0.
     999903    2    3    3    0    0 -0.97894558338E-01 -0.54708725358E-01 -0.59314754097E-01  0.12846863737E+00  0.20237627121E-01 0.  0.
         14    1    1    2    0    0 -0.22438398406E-01  0.88151339015E-02  0.31923737574E-02  0.24318296793E-01  0.00000000000E+00 0. -1.
     999901    1    3    3    0    0  0.12033295674E+00  0.45893591457E-01  0.56122380339E-01  0.89114306584E+00  0.88000000000E+00 0.  1.
        -11    1    4    4    0    0 -0.19015977773E-01 -0.20115242048E-01 -0.11753118785E-01  0.30077022716E-01  0.51100000000E-03 0.  1.
         11    1    4    4    0    0 -0.78878580565E-01 -0.34593483310E-01 -0.47561635312E-01  0.98391614653E-01  0.51100000000E-03 0. -1.
</event>
<event>
 8    1  0.1066842E+005  0.1043930E+01  0.7957747E-01            NaN
         13   -1    0    0    0    0  0.00000000000E+00  0.00000000000E+00  0.74505805969E-08  0.10566000000E+00  0.10566000000E+00 0.  1.
     999900   -1    0    0    0    0 -0.00000000000E+00 -0.00000000000E+00 -0.74505805969E-08  0.93827000000E+00  0.93827000000E+00 0.  1.
     999902    2    1    2    0    0 -0.22293248151E-01  0.50202509176E-02  0.66047141718E-02  0.10201431532E+01  0.10198657946E+01 0.  0.
     999903    2    3    3    0    0  0.82240960966E-01 -0.35659211546E-01  0.90592017536E-01  0.12905612787E+00  0.20332620874E-01 0.  0.
         14    1    1    2    0    0  0.22293248151E-01 -0.50202509176E-02 -0.66047141718E-02  0.23786846821E-01  0.00000000000E+00 0. -1.
     999901    1    3    3    0    0 -0.10453420912E+00  0.40679462463E-01 -0.83987303364E-01  0.89108702531E+00  0.88000000000E+00 0.  1.
        -11    1    4    4    0    0  0.42377532814E-01 -0.10060237401E-01  0.52823142573E-01  0.68466116995E-01  0.51100000000E-03 0.  1.
         11    1    4    4    0    0  0.39863428152E-01 -0.25598974145E-01  0.37768874963E-01  0.60590010878E-01  0.51100000000E-03 0. -1.
</event>
<event>
 8    1  0.1066842E+005  0.1043930E+01  0.7957747E-01            NaN
         13   -1    0    0    0    0  0.00000000000E+00  0.00000000000E+00  0.74505805969E-08  0.10566000000E+00  0.10566000000E+00 0. -1.
     999900   -1    0    0    0    0 -0.00000000000E+00 -0.00000000000E+00 -0.74505805969E-08  0.93827000000E+00  0.93827000000E+00 0.  1.
     999902    2    1    2    0    0  0.10139715176E-01 -0.18496633203E-01  0.10738751038E-01  0.10202601872E+01  0.10199855830E+01 0.  0.
     999903    2    3    3    0    0 -0.76884443786E-01 -0.55450933621E-01  0.89270197974E-01  0.13171867849E+00  0.19865001400E-01 0.  0.
         14    1    1    2    0    0 -0.10139715176E-01  0.18496633203E-01 -0.10738751038E-01  0.23669812791E-01  0.00000000000E+00 0.  1.
     999901    1    3    3    0    0  0.87024158962E-01  0.36954300418E-01 -0.78531446935E-01  0.88854150872E+00  0.88000000000E+00 0.  1.
        -11    1    4    4    0    0 -0.39583359900E-01 -0.35524976643E-01  0.38612105862E-01  0.65726875679E-01  0.51100000000E-03 0. -1.
         11    1    4    4    0    0 -0.37301083886E-01 -0.19925956978E-01  0.50658092111E-01  0.65991802809E-01  0.51100000000E-03 0.  1.
</event>
<event>
 8    1  0.1066842E+005  0.1043930E+01  0.7957747E-01            NaN
         13   -1    0    0    0    0  0.00000000000E+00  0.00000000000E+00  0.74505805969E-08  0.10566000000E+00  0.10566000000E+00 0. -1.
     999900   -1    0    0    0    0 -0.00000000000E+00 -0.00000000000E+00 -0.74505805969E-08  0.93827000000E+00  0.93827000000E+00 0.  1.
     999902    2    1    2    0    0  0.11757647078E-01 -0.27326474284E-02  0.15861688613E-01  0.10239975442E+01  0.10238035299E+01 0.  0.
     999903    2    3    3    0    0  0.87401886813E-02  0.11895162434E+00  0.59558431762E-01  0.13454514394E+00  0.18146876676E-01 0.  0.
         14    1    1    2    0    0 -0.11757647078E-01  0.27326474284E-02 -0.15861688613E-01  0.19932455756E-01  0.00000000000E+00 0.  1.
     999901    1    3    3    0    0  0.30174583968E-02 -0.12168427176E+00 -0.43696743148E-01  0.88945240031E+00  0.88000000000E+00 0. -1.
        -11    1    4    4    0    0  0.94419698882E-02  0.10128766509E+00  0.57190632273E-01  0.11670206269E+00  0.51100000000E-03 0. -1.
         11    1    4    4    0    0 -0.70178120683E-03  0.17663959245E-01  0.23677994889E-02  0.17843081250E-01  0.51100000000E-03 0.  1.
</event>
<event>
 8    1  0.1066842E+005  0.1043930E+01  0.7957747E-01            NaN
         13   -1    0    0    0    0  0.00000000000E+00  0.00000000000E+00  0.74505805969E-08  0.10566000000E+00  0.10566000000E+00 0. -1.
     999900   -1    0    0    0    0 -0.00000000000E+00 -0.00000000000E+00 -0.74505805969E-08  0.93827000000E+00  0.93827000000E+00 0.  1.
     999902    2    1    2    0    0  0.18323506643E-02  0.25324020557E-01 -0.76198705422E-02  0.10174210213E+01  0.10170756160E+01 0.  0.
     999903    2    3    3    0    0 -0.90517155241E-01  0.26619873830E-01  0.83493362030E-01  0.12790894624E+00  0.22081303171E-01 0.  0.
         14    1    1    2    0    0 -0.18323506643E-02 -0.25324020557E-01  0.76198705422E-02  0.26508978728E-01  0.00000000000E+00 0. -1.
     999901    1    3    3    0    0  0.92349505905E-01 -0.12958532735E-02 -0.91113232572E-01  0.88951207503E+00  0.88000000000E+00 0.  1.
        -11    1    4    4    0    0 -0.72628818864E-01  0.30091572274E-01  0.66095602143E-01  0.10270996931E+00  0.51100000000E-03 0.  1.
         11    1    4    4    0    0 -0.17888336376E-01 -0.34716984432E-02  0.17397759887E-01  0.25198976933E-01  0.51100000000E-03 0. -1.
</event>
<event>
 8    1  0.1066842E+005  0.1043930E+01  0.7957747E-01            NaN
         13   -1    0    0    0    0  0.00000000000E+00  0.00000000000E+00  0.74505805969E-08  0.10566000000E+00  0.10566000000E+00 0.  1.
     999900   -1    0    0    0    0 -0.00000000000E+00 -0.00000000000E+00 -0.74505805969E-08  0.93827000000E+00  0.93827000000E+00 0.  1.
     999902    2    1    2    0    0  0.34468358766E-02 -0.20384762252E-01  0.10765482008E-01  0.10206208856E+01  0.10203546821E+01 0.  0.
     999903    2    3    3    0    0  0.12217633880E+00  0.41158704022E-01  0.25811185859E-02  0.13047973003E+00  0.19929904541E-01 0.  0.
         14    1    1    2    0    0 -0.34468358766E-02  0.20384762252E-01 -0.10765482008E-01  0.23309114365E-01  0.00000000000E+00 0. -1.
     999901    1    3    3    0    0 -0.11872950292E+00 -0.61543466274E-01  0.81843634223E-02  0.89014115561E+00  0.88000000000E+00 0. -1.
        -11    1    4    4    0    0  0.28634026715E-01  0.18117545750E-01  0.40463735112E-02  0.34128979028E-01  0.51100000000E-03 0. -1.
         11    1    4    4    0    0  0.93542312085E-01  0.23041158272E-01 -0.14652549253E-02  0.96350750997E-01  0.51100000000E-03 0.  1.
</event>
<event>
 8    1  0.1066842E+005  0.1043930E+01  0.7957747E-01            NaN
         13   -1    0    0    0    0  0.00000000000E+00  0.00000000000E+00  0.74505805969E-08  0.10566000000E+00  0.10566000000E+00 0.  1.
     999900   -1    0    0    0    0 -0.00000000000E+00 -0.00000000000E+00 -0.74505805969E-08  0.93827000000E+00  0.93827000000E+00 0. -1.
     999902    2    1    2    0    0  0.70041088491E-02 -0.16785683031E-01 -0.13942006770E-01  0.10210128394E+01  0.10207556133E+01 0.  0.
     999903    2    3    3    0    0  0.11081576917E+00 -0.61100797051E-01  0.33866439412E-01  0.13251616658E+00  0.20003914341E-01 0.  0.
         14    1    1    2    0    0 -0.70041088491E-02  0.16785683031E-01  0.13942006770E-01  0.22917160565E-01  0.00000000000E+00 0.  1.
     999901    1    3    3    0    0 -0.10381166032E+00  0.44315114020E-01 -0.47808446182E-01  0.88849667286E+00  0.88000000000E+00 0.  1.
        -11    1    4    4    0    0  0.76759513830E-01 -0.41046238678E-01  0.32661080263E-01  0.92972167652E-01  0.51100000000E-03 0.  1.
         11    1    4    4    0    0  0.34056255341E-01 -0.20054558373E-01  0.12053591490E-02  0.39543998926E-01  0.51100000000E-03 0. -1.
</event>
<event>
 8    1  0.1066842E+005  0.1043930E+01  0.7957747E-01            NaN
         13   -1    0    0    0    0  0.00000000000E+00  0.00000000000E+00  0.74505805969E-08  0.10566000000E+00  0.10566000000E+00 0. -1.
     999900   -1    0    0    0    0 -0.00000000000E+00 -0.00000000000E+00 -0.74505805969E-08  0.93827000000E+00  0.93827000000E+00 0.  1.
     999902    2    1    2    0    0 -0.18239092126E-01  0.84380243643E-02  0.11504210724E-01  0.10207737568E+01  0.10205110734E+01 0.  0.
     999903    2    3    3    0    0 -0.29102875291E-01  0.10257615433E+00 -0.74676940433E-01  0.13150034542E+00  0.18623926137E-01 0.  0.
         14    1    1    2    0    0  0.18239092126E-01 -0.84380243643E-02 -0.11504210724E-01  0.23156243244E-01  0.00000000000E+00 0.  1.
     999901    1    3    3    0    0  0.10863783165E-01 -0.94138129968E-01  0.86181151157E-01  0.88927341134E+00  0.88000000000E+00 0.  1.
        -11    1    4    4    0    0 -0.16336025583E-01  0.32571910313E-01 -0.18692008908E-01  0.40956652589E-01  0.51100000000E-03 0.  1.
         11    1    4    4    0    0 -0.12766849708E-01  0.70004244020E-01 -0.55984931525E-01  0.90543692829E-01  0.51100000000E-03 0. -1.
</event>
<event>
 8    1  0.1066842E+005  0.1043930E+01  0.7957747E-01            NaN
         13   -1    0    0    0    0  0.00000000000E+00  0.00000000000E+00  0.74505805969E-08  0.10566000000E+00  0.10566000000E+00 0.  1.
     999900   -1    0    0    0    0 -0.00000000000E+00 -0.00000000000E+00 -0.74505805969E-08  0.93827000000E+00  0.93827000000E+00 0. -1.
     999902    2    1    2    0    0  0.10965821987E-01  0.14461647937E-02  0.20439344842E-01  0.10206897878E+01  0.10204251739E+01 0.  0.
     999903    2    3    3    0    0 -0.17970403952E-01 -0.12654580128E+00  0.21333881326E-01  0.13095946422E+00  0.18933344533E-01 0.  0.
         14    1    1    2    0    0 -0.10965821987E-01 -0.14461647937E-02 -0.20439344842E-01  0.23240212177E-01  0.00000000000E+00 0. -1.
     999901    1    3    3    0    0  0.28936225938E-01  0.12799196607E+00 -0.89453648364E-03  0.88973032361E+00  0.88000000000E+00 0. -1.
        -11    1    4    4    0    0 -0.17665646976E-01 -0.68758296723E-01  0.17040004199E-01  0.73009597420E-01  0.51100000000E-03 0. -1.
         11    1    4    4    0    0 -0.30475697521E-03 -0.57787504557E-01  0.42938771271E-02  0.57949866795E-01  0.51100000000E-03 0.  1.
</event>
<event>
 8    1  0.1066842E+005  0.1043930E+01  0.7957747E-01            NaN
         13   -1    0    0    0    0  0.00000000000E+00  0.00000000000E+00  0.74505805969E-08  0.10566000000E+00  0.10566000000E+00 0.  1.
     999900   -1    0    0    0    0 -0.00000000000E+00 -0.00000000000E+00 -0.74505805969E-08  0.93827000000E+00  0.93827000000E+00 0. -1.
     999902    2    1    2    0    0  0.20335096736E-01 -0.69071130331E-02  0.10654793952E-01  0.10199560766E+01  0.10196742858E+01 0.  0.
     999903    2    3    3    0    0 -0.32799673573E-01  0.11378768009E+00  0.48467466445E-01  0.12932689724E+00  0.18785534847E-01 0.  0.
         14    1    1    2    0    0 -0.20335096736E-01  0.69071130331E-02 -0.10654793952E-01  0.23973923414E-01  0.00000000000E+00 0. -1.
     999901    1    3    3    0    0  0.53134770309E-01 -0.12069479312E+00 -0.37812672493E-01  0.89062917935E+00  0.88000000000E+00 0. -1.
        -11    1    4    4    0    0 -0.29660256190E-01  0.75826442591E-01  0.28137821050E-01  0.86147421828E-01  0.51100000000E-03 0.  1.
         11    1    4    4    0    0 -0.31394173825E-02  0.37961237498E-01  0.20329645394E-01  0.43179475411E-01  0.51100000000E-03 0. -1.
</event>
<event>
 8    1  0.1066842E+005  0.1043930E+01  0.7957747E-01            NaN
         13   -1    0    0    0    0  0.00000000000E+00  0.00000000000E+00  0.74505805969E-08  0.10566000000E+00  0.10566000000E+00 0.  1.
     999900   -1    0    0    0    0 -0.00000000000E+00 -0.00000000000E+00 -0.74505805969E-08  0.93827000000E+00  0.93827000000E+00 0. -1.
     999902    2    1    2    0    0 -0.20962403031E-01  0.10268052955E-01  0.19697296280E-02  0.10205049048E+01  0.10202360146E+01 0.  0.
     999903    2    3    3    0    0 -0.25540999595E-01 -0.72475329711E-01 -0.10329542721E+00  0.13036548637E+00  0.20498748171E-01 0.  0.
         14    1    1    2    0    0  0.20962403031E-01 -0.10268052955E-01 -0.19697296280E-02  0.23425095243E-01  0.00000000000E+00 0. -1.
     999901    1    3    3    0    0  0.45785965641E-02  0.82743382666E-01  0.10526515684E+00  0.89013941839E+00  0.88000000000E+00 0.  1.
        -11    1    4    4    0    0 -0.11908486017E-01 -0.48753602107E-01 -0.52265988465E-01  0.72461854992E-01  0.51100000000E-03 0.  1.
         11    1    4    4    0    0 -0.13632513578E-01 -0.23721727604E-01 -0.51029438747E-01  0.57903631378E-01  0.51100000000E-03 0. -1.
</event>
<event>
 8    1  0.1125745E+005  0.1043930E+01  0.7957747E-01            NaN
         13   -1    0    0    0    0  0.00000000000E+00  0.00000000000E+00  0.74505805969E-08  0.10566000000E+00  0.10566000000E+00 0.  1.
     999900   -1    0    0    0    0 -0.00000000000E+00 -0.00000000000E+00 -0.74505805969E-08  0.93827000000E+00  0.93827000000E+00 0. -1.
     999902    2    1    2    0    0 -0.20919667006E-01  0.53291476829E-02  0.11758620756E-01  0.10193475379E+01  0.10190510809E+01 0.  0.
     999903    2    3    3    0    0  0.80117023350E-02  0.12828878524E+00 -0.58138204449E-03  0.13024216038E+00  0.20987675986E-01 0.  0.
         14    1    1    2    0    0  0.20919667006E-01 -0.53291476829E-02 -0.11758620756E-01  0.24582462137E-01  0.00000000000E+00 0. -1.
     999901    1    3    3    0    0 -0.28931369341E-01 -0.12295963755E+00  0.12340002800E-01  0.88910537748E+00  0.88000000000E+00 0.  1.
        -11    1    4    4    0    0  0.21626783941E-02  0.42641319635E-01  0.96797561314E-02  0.43782623468E-01  0.51100000000E-03 0. -1.
         11    1    4    4    0    0  0.58490239410E-02  0.85647465603E-01 -0.10261138176E-01  0.86459536912E-01  0.51100000000E-03 0.  1.
</event>
<event>
 8    1  0.1066842E+005  0.1043930E+01  0.7957747E-01            NaN
         13   -1    0    0    0    0  0.00000000000E+00  0.00000000000E+00  0.74505805969E-08  0.10566000000E+00  0.10566000000E+00 0. -1.
     999900   -1    0    0    0    0 -0.00000000000E+00 -0.00000000000E+00 -0.74505805969E-08  0.93827000000E+00  0.93827000000E+00 0.  1.
     999902    2    1    2    0    0  0.13051109720E-01  0.89851417734E-02 -0.18402878043E-01  0.10196456396E+01  0.10193564147E+01 0.  0.
     999903    2    3    3    0    0  0.11123357518E+00  0.16367017162E-01  0.63594478493E-01  0.13036623750E+00  0.17615637559E-01 0.  0.
         14    1    1    2    0    0 -0.13051109720E-01 -0.89851417734E-02  0.18402878043E-01  0.24284360355E-01  0.00000000000E+00 0. -1.
     999901    1    3    3    0    0 -0.98182465457E-01 -0.73818753883E-02 -0.81997356536E-01  0.88927940215E+00  0.88000000000E+00 0. -1.
        -11    1    4    4    0    0  0.53011006436E-01  0.10269227090E-01  0.20873775248E-01  0.57892999944E-01  0.51100000000E-03 0. -1.
         11    1    4    4    0    0  0.58222568741E-01  0.60977900721E-02  0.42720703245E-01  0.72473237552E-01  0.51100000000E-03 0.  1.
</event>
<event>
 8    1  0.1066842E+005  0.1043930E+01  0.7957747E-01            NaN
         13   -1    0    0    0    0  0.00000000000E+00  0.00000000000E+00  0.74505805969E-08  0.10566000000E+00  0.10566000000E+00 0. -1.
     999900   -1    0    0    0    0 -0.00000000000E+00 -0.00000000000E+00 -0.74505805969E-08  0.93827000000E+00  0.93827000000E+00 0.  1.
     999902    2    1    2    0    0 -0.16730636933E-01  0.16628000443E-01 -0.46952334871E-02  0.10198790161E+01  0.10195953891E+01 0.  0.
     999903    2    3    3    0    0 -0.57723712682E-01  0.10892805509E+00  0.44708507731E-01  0.13272600671E+00  0.20493755250E-01 0.  0.
         14    1    1    2    0    0  0.16730636933E-01 -0.16628000443E-01  0.46952334871E-02  0.24050983939E-01  0.00000000000E+00 0. -1.
     999901    1    3    3    0    0  0.40993075749E-01 -0.92300054642E-01 -0.49403741218E-01  0.88715300935E+00  0.88000000000E+00 0. -1.
        -11    1    4    4    0    0 -0.19394757541E-01  0.22675767547E-01  0.17051054179E-01  0.34370723349E-01  0.51100000000E-03 0.  1.
         11    1    4    4    0    0 -0.38328955141E-01  0.86252287539E-01  0.27657453551E-01  0.98355283365E-01  0.51100000000E-03 0. -1.
</event>
<event>
 8    1  0.1066842E+005  0.1043930E+01  0.7957747E-01            NaN
         13   -1    0    0    0    0  0.00000000000E+00  0.00000000000E+00  0.74505805969E-08  0.10566000000E+00  0.10566000000E+00 0. -1.
     999900   -1    0    0    0    0 -0.00000000000E+00 -0.00000000000E+00 -0.74505805969E-08  0.93827000000E+00  0.93827000000E+00 0.  1.
     999902    2    1    2    0    0 -0.86056810746E-02  0.18745137044E-01  0.12525565057E-01  0.10197985332E+01  0.10195129821E+01 0.  0.
     999903    2    3    3    0    0  0.75273111894E-01 -0.18327008775E-01 -0.99706891616E-01  0.12794309636E+00  0.20641003983E-01 0.  0.
         14    1    1    2    0    0  0.86056810746E-02 -0.18745137044E-01 -0.12525565057E-01  0.24131466792E-01  0.00000000000E+00 0.  1.
     999901    1    3    3    0    0 -0.83878792969E-01  0.37072145819E-01  0.11223245667E+00  0.89185543685E+00  0.88000000000E+00 0. -1.
        -11    1    4    4    0    0  0.35585458801E-01 -0.19255017257E-01 -0.51273166552E-01  0.65316761225E-01  0.51100000000E-03 0.  1.
         11    1    4    4    0    0  0.39687653093E-01  0.92800848225E-03 -0.48433725064E-01  0.62626335134E-01  0.51100000000E-03 0. -1.
</event>
<event>
 8    1  0.1066842E+005  0.1043930E+01  0.7957747E-01            NaN
         13   -1    0    0    0    0  0.00000000000E+00  0.00000000000E+00  0.74505805969E-08  0.10566000000E+00  0.10566000000E+00 0.  1.
     999900   -1    0    0    0    0 -0.00000000000E+00 -0.00000000000E+00 -0.74505805969E-08  0.93827000000E+00  0.93827000000E+00 0. -1.
     999902    2    1    2    0    0  0.12037297675E-01 -0.18918934459E-01 -0.82876640761E-02  0.10200237667E+01  0.10197435837E+01 0.  0.
     999903    2    3    3    0    0  0.41730654084E-01 -0.11846903250E+00  0.37939476225E-01  0.13270822756E+00  0.19892477359E-01 0.  0.
         14    1    1    2    0    0 -0.12037297675E-01  0.18918934459E-01  0.82876640761E-02  0.23906233334E-01  0.00000000000E+00 0.  1.
     999901    1    3    3    0    0 -0.29693356409E-01  0.99550098038E-01 -0.46227140301E-01  0.88731553910E+00  0.88000000000E+00 0.  1.
        -11    1    4    4    0    0  0.17209807014E-01 -0.23947523396E-01  0.77315546291E-02  0.30490972308E-01  0.51100000000E-03 0. -1.
         11    1    4    4    0    0  0.24520847070E-01 -0.94521509101E-01  0.30207921596E-01  0.10221725525E+00  0.51100000000E-03 0.  1.
</event>
<event>
 7    1  0.1066842E+005  0.1043930E+01  0.7957747E-01            NaN
         13   -1    0    0    0    0  0.00000000000E+00  0.00000000000E+00  0.74505805969E-08  0.10566000000E+00  0.10566000000E+00 0.  1.
     999900   -1    0    0    0    0 -0.00000000000E+00 -0.00000000000E+00 -0.74505805969E-08  0.93827000000E+00  0.93827000000E+00 0. -1.
     999902    2    1    2    0    0  0.88506215737E-02 -0.28728154272E-02 -0.20553187009E-01  0.10213685269E+01  0.10211193112E+01 0.  0.
         14    1    1    2    0    0 -0.88506215737E-02  0.28728154272E-02  0.20553187009E-01  0.22561473067E-01  0.00000000000E+00 0.  1.
     999901    1    3    3    0    0 -0.11110471083E+00  0.34691591412E-01  0.65256903619E-02  0.88768820422E+00  0.88000000000E+00 0. -1.
        -11    1    3    3    0    0  0.75315568075E-01 -0.38749277001E-01 -0.27395237350E-01  0.89020792027E-01  0.51100000000E-03 0. -1.
         11    1    3    3    0    0  0.44639764324E-01  0.11848701613E-02  0.31635997963E-03  0.44659530683E-01  0.51100000000E-03 0.  1.
</event>
<event>
 8    1  0.1066842E+005  0.1043930E+01  0.7957747E-01            NaN
         13   -1    0    0    0    0  0.00000000000E+00  0.00000000000E+00  0.74505805969E-08  0.10566000000E+00  0.10566000000E+00 0.  1.
     999900   -1    0    0    0    0 -0.00000000000E+00 -0.00000000000E+00 -0.74505805969E-08  0.93827000000E+00  0.93827000000E+00 0.  1.
     999902    2    1    2    0    0 -0.35158053035E-02  0.29473560783E-02  0.23203957000E-01  0.10202768519E+01  0.10200026388E+01 0.  0.
     999903    2    3    3    0    0  0.48101169948E-01 -0.11612145226E+00  0.30835601297E-01  0.13072644003E+00  0.18456803340E-01 0.  0.
         14    1    1    2    0    0  0.35158053035E-02 -0.29473560783E-02 -0.23203957000E-01  0.23653148105E-01  0.00000000000E+00 0. -1.
     999901    1    3    3    0    0 -0.51616975252E-01  0.11906880834E+00 -0.76316442963E-02  0.88955041186E+00  0.88000000000E+00 0. -1.
        -11    1    4    4    0    0  0.34625975161E-01 -0.97703443440E-01  0.29880216749E-01  0.10787960646E+00  0.51100000000E-03 0. -1.
         11    1    4    4    0    0  0.13475194787E-01 -0.18418008823E-01  0.95538454733E-03  0.22846833571E-01  0.51100000000E-03 0.  1.
</event>
<event>
 8    1  0.1066842E+005  0.1043930E+01  0.7957747E-01            NaN
         13   -1    0    0    0    0  0.00000000000E+00  0.00000000000E+00  0.74505805969E-08  0.10566000000E+00  0.10566000000E+00 0.  1.
     999900   -1    0    0    0    0 -0.00000000000E+00 -0.00000000000E+00 -0.74505805969E-08  0.93827000000E+00  0.93827000000E+00 0.  1.
     999902    2    1    2    0    0  0.15824359944E-01 -0.48170219643E-02 -0.17688748581E-01  0.10197121162E+01  0.10194244916E+01 0.  0.
     999903    2    3    3    0    0 -0.51051671972E-02 -0.67880154722E-01 -0.11194545210E+00  0.13218784615E+00  0.17551760173E-01 0.  0.
         14    1    1    2    0    0 -0.15824359944E-01  0.48170219643E-02  0.17688748581E-01  0.24217883777E-01  0.00000000000E+00 0.  1.
     999901    1    3    3    0    0  0.20929527141E-01  0.63063132758E-01  0.94256703520E-01  0.88752427008E+00  0.88000000000E+00 0. -1.
        -11    1    4    4    0    0  0.18459750000E-02 -0.18329075704E-03 -0.56921750578E-02  0.60085936034E-02  0.51100000000E-03 0. -1.
         11    1    4    4    0    0 -0.69511421972E-02 -0.67696863965E-01 -0.10625327704E+00  0.12617925254E+00  0.51100000000E-03 0.  1.
</event>
<event>
 8    1  0.1066842E+005  0.1043930E+01  0.7957747E-01            NaN
         13   -1    0    0    0    0  0.00000000000E+00  0.00000000000E+00  0.74505805969E-08  0.10566000000E+00  0.10566000000E+00 0.  1.
     999900   -1    0    0    0    0 -0.00000000000E+00 -0.00000000000E+00 -0.74505805969E-08  0.93827000000E+00  0.93827000000E+00 0. -1.
     999902    2    1    2    0    0  0.18502247653E-01  0.14305058866E-01 -0.38375632297E-02  0.10202298994E+01  0.10199545837E+01 0.  0.
     999903    2    3    3    0    0  0.14310428976E-01  0.12979666028E+00  0.96044049185E-02  0.13257198789E+00  0.20763573470E-01 0.  0.
         14    1    1    2    0    0 -0.18502247653E-01 -0.14305058866E-01  0.38375632297E-02  0.23700100610E-01  0.00000000000E+00 0.  1.
     999901    1    3    3    0    0  0.41918186771E-02 -0.11549160141E+00 -0.13441968148E-01  0.88765791150E+00  0.88000000000E+00 0.  1.
        -11    1    4    4    0    0  0.16933877271E-02  0.71557345003E-01 -0.30761348654E-02  0.71645271390E-01  0.51100000000E-03 0.  1.
         11    1    4    4    0    0  0.12617041249E-01  0.58239315273E-01  0.12680539784E-01  0.60926716501E-01  0.51100000000E-03 0. -1.
</event>
<event>
 8    1  0.1066842E+005  0.1043930E+01  0.7957747E-01            NaN
         13   -1    0    0    0    0  0.00000000000E+00  0.00000000000E+00  0.74505805969E-08  0.10566000000E+00  0.10566000000E+00 0. -1.
     999900   -1    0    0    0    0 -0.00000000000E+00 -0.00000000000E+00 -0.74505805969E-08  0.93827000000E+00  0.93827000000E+00 0. -1.
     999902    2    1    2    0    0 -0.10850379476E-02  0.22245998681E-01  0.49715882228E-02  0.10211094291E+01  0.10208543911E+01 0.  0.
     999903    2    3    3    0    0 -0.63535696204E-01  0.77644402992E-01 -0.84408537858E-01  0.13265128446E+00  0.20152518399E-01 0.  0.
         14    1    1    2    0    0  0.10850379476E-02 -0.22245998681E-01 -0.49715882228E-02  0.22820570855E-01  0.00000000000E+00 0.  1.
     999901    1    3    3    0    0  0.62450658256E-01 -0.55398404311E-01  0.89380126081E-01  0.88845814468E+00  0.88000000000E+00 0.  1.
        -11    1    4    4    0    0 -0.25940042664E-01  0.36128586461E-01 -0.25092512197E-01  0.51069128272E-01  0.51100000000E-03 0. -1.
         11    1    4    4    0    0 -0.37595653540E-01  0.41515816531E-01 -0.59316025661E-01  0.81582156190E-01  0.51100000000E-03 0.  1.
</event>
<event>
 8    1  0.1066842E+005  0.1043930E+01  0.7957747E-01            NaN
         13   -1    0    0    0    0  0.00000000000E+00  0.00000000000E+00  0.74505805969E-08  0.10566000000E+00  0.10566000000E+00 0.  1.
     999900   -1    0    0    0    0 -0.00000000000E+00 -0.00000000000E+00 -0.74505805969E-08  0.93827000000E+00  0.93827000000E+00 0.  1.
     999902    2    1    2    0    0 -0.11052459955E-01  0.77828646067E-02  0.21411532113E-01  0.10186083974E+01  0.10182936137E+01 0.  0.
     999903    2    3    3    0    0  0.10502593813E+00 -0.55207254992E-01  0.44837564915E-01  0.12844508163E+00  0.20234700010E-01 0.  0.
         14    1    1    2    0    0  0.11052459955E-01 -0.77828646067E-02 -0.21411532113E-01  0.25321602634E-01  0.00000000000E+00 0. -1.
     999901    1    3    3    0    0 -0.11607839808E+00  0.62990119599E-01 -0.23426032802E-01  0.89016331574E+00  0.88000000000E+00 0.  1.
        -11    1    4    4    0    0  0.46888009946E-01 -0.35712710774E-01  0.24614897042E-01  0.63875170958E-01  0.51100000000E-03 0. -1.
         11    1    4    4    0    0  0.58137928180E-01 -0.19494544218E-01  0.20222667872E-01  0.64569910672E-01  0.51100000000E-03 0.  1.
</event>
<event>
 8    1  0.1066842E+005  0.1043930E+01  0.7957747E-01            NaN
         13   -1    0    0    0    0  0.00000000000E+00  0.00000000000E+00  0.74505805969E-08  0.10566000000E+00  0.10566000000E+00 0. -1.
     999900   -1    0    0    0    0 -0.00000000000E+00 -0.00000000000E+00 -0.74505805969E-08  0.93827000000E+00  0.93827000000E+00 0.  1.
     999902    2    1    2    0    0 -0.63637768154E-02  0.40457440279E-02  0.23528031636E-01  0.10192230380E+01  0.10189235335E+01 0.  0.
     999903    2    3    3    0    0  0.10419159887E-01  0.11943770474E+00 -0.43597972820E-01  0.12899673414E+00  0.19116746018E-01 0.  0.
         14    1    1    2    0    0  0.63637768154E-02 -0.40457440279E-02 -0.23528031636E-01  0.24706962030E-01  0.00000000000E+00 0.  1.
     999901    1    3    3    0    0 -0.16782936702E-01 -0.11539196071E+00  0.67126004456E-01  0.89022630383E+00  0.88000000000E+00 0. -1.
        -11    1    4    4    0    0  0.43534699583E-02  0.41376725138E-01 -0.24926199278E-01  0.48503222731E-01  0.51100000000E-03 0.  1.
         11    1    4    4    0    0  0.60656899288E-02  0.78060979599E-01 -0.18671773543E-01  0.80493511407E-01  0.51100000000E-03 0. -1.
</event>
<event>
 8    1  0.1066842E+005  0.1043930E+01  0.7957747E-01            NaN
         13   -1    0    0    0    0  0.00000000000E+00  0.00000000000E+00  0.74505805969E-08  0.10566000000E+00  0.10566000000E+00 0. -1.
     999900   -1    0    0    0    0 -0.00000000000E+00 -0.00000000000E+00 -0.74505805969E-08  0.93827000000E+00  0.93827000000E+00 0.  1.
     999902    2    1    2    0    0 -0.93273093790E-02 -0.78960411170E-02  0.19730127135E-01  0.10207217238E+01  0.10204578450E+01 0.  0.
     999903    2    3    3    0    0  0.10272175621E+00 -0.35331969550E-01 -0.65877656496E-01  0.12907357805E+00  0.22803851739E-01 0.  0.
         14    1    1    2    0    0  0.93273093790E-02  0.78960411170E-02 -0.19730127135E-01  0.23208276160E-01  0.00000000000E+00 0.  1.
     999901    1    3    3    0    0 -0.11204906559E+00  0.27435928433E-01  0.85607783631E-01  0.89164814579E+00  0.88000000000E+00 0. -1.
        -11    1    4    4    0    0  0.40450428867E-01 -0.22119374962E-01 -0.18325475893E-01  0.49614394403E-01  0.51100000000E-03 0. -1.
         11    1    4    4    0    0  0.62271327346E-01 -0.13212594587E-01 -0.47552180603E-01  0.79459183649E-01  0.51100000000E-03 0.  1.
</event>
<event>
 8    1  0.1066842E+005  0.1043930E+01  0.7957747E-01            NaN
         13   -1    0    0    0    0  0.00000000000E+00  0.00000000000E+00  0.74505805969E-08  0.10566000000E+00  0.10566000000E+00 0.  1.
     999900   -1    0    0    0    0 -0.00000000000E+00 -0.00000000000E+00 -0.74505805969E-08  0.93827000000E+00  0.93827000000E+00 0.  1.
     999902    2    1    2    0    0  0.89904939503E-03  0.21192621121E-01 -0.10233265450E-01  0.10203788811E+01  0.10201070560E+01 0.  0.
     999903    2    3    3    0    0  0.83388897703E-01  0.86633782398E-01 -0.52972606214E-01  0.13307184748E+00  0.21045167355E-01 0.  0.
         14    1    1    2    0    0 -0.89904939503E-03 -0.21192621121E-01  0.10233265450E-01  0.23551118903E-01  0.00000000000E+00 0.  1.
     999901    1    3    3    0    0 -0.82489848308E-01 -0.65441161277E-01  0.42739340764E-01  0.88730703362E+00  0.88000000000E+00 0. -1.
        -11    1    4    4    0    0  0.69847094257E-01  0.81935499921E-01 -0.45341332933E-01  0.11682525547E+00  0.51100000000E-03 0.  1.
         11    1    4    4    0    0  0.13541803446E-01  0.46982824773E-02 -0.76312732816E-02  0.16246592003E-01  0.51100000000E-03 0. -1.
</event>
<event>
 8    1  0.1066842E+005  0.1043930E+01  0.7957747E-01            NaN
         13   -1    0    0    0    0  0.00000000000E+00  0.00000000000E+00  0.74505805969E-08  0.10566000000E+00  0.10566000000E+00 0.  1.
     999900   -1    0    0    0    0 -0.00000000000E+00 -0.00000000000E+00 -0.74505805969E-08  0.93827000000E+00  0.93827000000E+00 0.  1.
     999902    2    1    2    0    0 -0.66074566274E-02 -0.15961252034E-01  0.17093196174E-01  0.10196277901E+01  0.10193381348E+01 0.  0.
     999903    2    3    3    0    0 -0.85813263243E-01 -0.51690494316E-02  0.97958477301E-01  0.13231204861E+00  0.22803063660E-01 0.  0.
         14    1    1    2    0    0  0.66074566274E-02  0.15961252034E-01 -0.17093196174E-01  0.24302209879E-01  0.00000000000E+00 0. -1.
     999901    1    3    3    0    0  0.79205806615E-01 -0.10792202603E-01 -0.80865281127E-01  0.88731574151E+00  0.88000000000E+00 0.  1.
        -11    1    4    4    0    0 -0.45068589522E-01  0.49708153386E-02  0.38285555707E-01  0.59345864754E-01  0.51100000000E-03 0. -1.
         11    1    4    4    0    0 -0.40744673721E-01 -0.10139864770E-01  0.59672921593E-01  0.72966183857E-01  0.51100000000E-03 0.  1.
</event>
<event>
 8    1  0.1066842E+005  0.1043930E+01  0.7957747E-01            NaN
         13   -1    0    0    0    0  0.00000000000E+00  0.00000000000E+00  0.74505805969E-08  0.10566000000E+00  0.10566000000E+00 0.  1.
     999900   -1    0    0    0    0 -0.00000000000E+00 -0.00000000000E+00 -0.74505805969E-08  0.93827000000E+00  0.93827000000E+00 0. -1.
     999902    2    1    2    0    0  0.20310715525E-01 -0.81051780204E-02 -0.50535189353E-02  0.10214854655E+01  0.10212388551E+01 0.  0.
     999903    2    3    3    0    0 -0.10943624562E+00 -0.36679850973E-01  0.55573466999E-01  0.12945047891E+00  0.18636333645E-01 0.  0.
         14    1    1    2    0    0 -0.20310715525E-01  0.81051780204E-02  0.50535189353E-02  0.22444534513E-01  0.00000000000E+00 0.  1.
     999901    1    3    3    0    0  0.12974696115E+00  0.28574672953E-01 -0.60626985935E-01  0.89203498658E+00  0.88000000000E+00 0. -1.
        -11    1    4    4    0    0 -0.51094734710E-01 -0.11827927358E-01  0.33820431464E-01  0.62407166945E-01  0.51100000000E-03 0. -1.
         11    1    4    4    0    0 -0.58341510911E-01 -0.24851923616E-01  0.21753035535E-01  0.67043311961E-01  0.51100000000E-03 0.  1.
</event>
<event>
 8    1  0.1066842E+005  0.1043930E+01  0.7957747E-01            NaN
         13   -1    0    0    0    0  0.00000000000E+00  0.00000000000E+00  0.74505805969E-08  0.10566000000E+00  0.10566000000E+00 0. -1.
     999900   -1    0    0    0    0 -0.00000000000E+00 -0.00000000000E+00 -0.74505805969E-08  0.93827000000E+00  0.93827000000E+00 0.  1.
     999902    2    1    2    0    0  0.50365691841E-02  0.22832465561E-01  0.10340405411E-02  0.10205257749E+01  0.10202573692E+01 0.  0.
     999903    2    3    3    0    0  0.86219274117E-01  0.67083637411E-01  0.72414142000E-01  0.13280739801E+00  0.21448062047E-01 0.  0.
         14    1    1    2    0    0 -0.50365691841E-02 -0.22832465561E-01 -0.10340405411E-02  0.23404225101E-01  0.00000000000E+00 0.  1.
     999901    1    3    3    0    0 -0.81182704933E-01 -0.44251171850E-01 -0.71380101459E-01  0.88771837689E+00  0.88000000000E+00 0.  1.
        -11    1    4    4    0    0  0.87923931801E-02  0.13755136551E-01  0.48713231830E-02  0.17044086069E-01  0.51100000000E-03 0.  1.
         11    1    4    4    0    0  0.77426880937E-01  0.53328500861E-01  0.67542818817E-01  0.11576331194E+00  0.51100000000E-03 0. -1.
</event>
<event>
 8    1  0.1066842E+005  0.1043930E+01  0.7957747E-01            NaN
         13   -1    0    0    0    0  0.00000000000E+00  0.00000000000E+00  0.74505805969E-08  0.10566000000E+00  0.10566000000E+00 0. -1.
     999900   -1    0    0    0    0 -0.00000000000E+00 -0.00000000000E+00 -0.74505805969E-08  0.93827000000E+00  0.93827000000E+00 0. -1.
     999902    2    1    2    0    0  0.41908866162E-02  0.12782799221E-01 -0.18983899808E-01  0.10206630290E+01  0.10203977983E+01 0.  0.
     999903    2    3    3    0    0  0.64492687106E-03  0.21476761656E-01 -0.13035554391E+00  0.13359380854E+00  0.19826008932E-01 0.  0.
         14    1    1    2    0    0 -0.41908866162E-02 -0.12782799221E-01  0.18983899808E-01  0.23266970978E-01  0.00000000000E+00 0. -1.
     999901    1    3    3    0    0  0.35459597452E-02 -0.86939624349E-02  0.11137164410E+00  0.88706922048E+00  0.88000000000E+00 0.  1.
        -11    1    4    4    0    0  0.95565858590E-02  0.15454347427E-01 -0.72448888276E-01  0.74694495923E-01  0.51100000000E-03 0. -1.
         11    1    4    4    0    0 -0.89116589880E-02  0.60224142287E-02 -0.57906655636E-01  0.58899312619E-01  0.51100000000E-03 0.  1.
</event>
<event>
 8    1  0.1066842E+005  0.1043930E+01  0.7957747E-01            NaN
         13   -1    0    0    0    0  0.00000000000E+00  0.00000000000E+00  0.74505805969E-08  0.10566000000E+00  0.10566000000E+00 0.  1.
     999900   -1    0    0    0    0 -0.00000000000E+00 -0.00000000000E+00 -0.74505805969E-08  0.93827000000E+00  0.93827000000E+00 0. -1.
     999902    2    1    2    0    0  0.18699995770E-01  0.96713647097E-02 -0.67189679850E-02  0.10218309125E+01  0.10215919166E+01 0.  0.
     999903    2    3    3    0    0  0.11129916513E+00  0.34182019611E-02 -0.72851996906E-01  0.13448245462E+00  0.19466095725E-01 0.  0.
         14    1    1    2    0    0 -0.18699995770E-01 -0.96713647097E-02  0.67189679850E-02  0.22099087491E-01  0.00000000000E+00 0. -1.
     999901    1    3    3    0    0 -0.92599169362E-01  0.62531627486E-02  0.66133028921E-01  0.88734845789E+00  0.88000000000E+00 0.  1.
        -11    1    4    4    0    0  0.10016260189E+00  0.75451378165E-02 -0.60125607042E-01  0.11706761151E+00  0.51100000000E-03 0. -1.
         11    1    4    4    0    0  0.11136563245E-01 -0.41269358554E-02 -0.12726389864E-01  0.17414843107E-01  0.51100000000E-03 0.  1.
</event>
<event>
 8    1  0.1066842E+005  0.1043930E+01  0.7957747E-01            NaN
         13   -1    0    0    0    0  0.00000000000E+00  0.00000000000E+00  0.74505805969E-08  0.10566000000E+00  0.10566000000E+00 0.  1.
     999900   -1    0    0    0    0 -0.00000000000E+00 -0.00000000000E+00 -0.74505805969E-08  0.93827000000E+00  0.93827000000E+00 0. -1.
     999902    2    1    2    0    0 -0.60242658569E-02 -0.79185131729E-02 -0.20984638203E-01  0.10207060970E+01  0.10204418586E+01 0.  0.
     999903    2    3    3    0    0  0.33590053243E-01 -0.17805938117E-01 -0.12637368835E+00  0.13347788096E+00  0.20017304723E-01 0.  0.
         14    1    1    2    0    0  0.60242658569E-02  0.79185131729E-02  0.20984638203E-01  0.23223902998E-01  0.00000000000E+00 0.  1.
     999901    1    3    3    0    0 -0.39614319099E-01  0.98874249443E-02  0.10538905015E+00  0.88722821604E+00  0.88000000000E+00 0.  1.
        -11    1    4    4    0    0  0.28909864303E-01 -0.14687831697E-01 -0.73923409433E-01  0.80724495893E-01  0.51100000000E-03 0. -1.
         11    1    4    4    0    0  0.46801889395E-02 -0.31181064197E-02 -0.52450278920E-01  0.52753385066E-01  0.51100000000E-03 0.  1.
</event>
<event>
 8    1  0.1066842E+005  0.1043930E+01  0.7957747E-01            NaN
         13   -1    0    0    0    0  0.00000000000E+00  0.00000000000E+00  0.74505805969E-08  0.10566000000E+00  0.10566000000E+00 0. -1.
     999900   -1    0    0    0    0 -0.00000000000E+00 -0.00000000000E+00 -0.74505805969E-08  0.93827000000E+00  0.93827000000E+00 0.  1.
     999902    2    1    2    0    0  0.25687641366E-01  0.17254060972E-02 -0.68777483753E-02  0.10172816348E+01  0.10169325391E+01 0.  0.
     999903    2    3    3    0    0  0.14960640906E-01  0.10860673435E+00 -0.64956659307E-01  0.12884939385E+00  0.19067123095E-01 0.  0.
         14    1    1    2    0    0 -0.25687641366E-01 -0.17254060972E-02  0.68777483753E-02  0.26648365200E-01  0.00000000000E+00 0. -1.
     999901    1    3    3    0    0  0.10727000460E-01 -0.10688132826E+00  0.58078910932E-01  0.88843224095E+00  0.88000000000E+00 0. -1.
        -11    1    4    4    0    0  0.11134016018E-01  0.43480944188E-01 -0.35686223440E-01  0.57343931542E-01  0.51100000000E-03 0. -1.
         11    1    4    4    0    0  0.38266248878E-02  0.65125790165E-01 -0.29270435866E-01  0.71505462306E-01  0.51100000000E-03 0.  1.
</event>
<event>
 8    1  0.1066842E+005  0.1043930E+01  0.7957747E-01            NaN
         13   -1    0    0    0    0  0.00000000000E+00  0.00000000000E+00  0.74505805969E-08  0.10566000000E+00  0.10566000000E+00 0.  1.
     999900   -1    0    0    0    0 -0.00000000000E+00 -0.00000000000E+00 -0.74505805969E-08  0.93827000000E+00  0.93827000000E+00 0. -1.
     999902    2    1    2    0    0 -0.11061982123E-01 -0.20638598950E-01  0.30390572915E-04  0.10205137634E+01  0.10202450789E+01 0.  0.
     999903    2    3    3    0    0 -0.10275808095E+00  0.66881900460E-01 -0.39837333971E-01  0.13053766940E+00  0.20509952328E-01 0.  0.
         14    1    1    2    0    0  0.11061982123E-01  0.20638598950E-01 -0.30390572915E-04  0.23416236647E-01  0.00000000000E+00 0.  1.
     999901    1    3    3    0    0  0.91696098823E-01 -0.87520499410E-01  0.39867724543E-01  0.88997609396E+00  0.88000000000E+00 0. -1.
        -11    1    4    4    0    0 -0.66659661483E-01  0.53274750027E-01 -0.32201657453E-01  0.91208098999E-01  0.51100000000E-03 0. -1.
         11    1    4    4    0    0 -0.36098419463E-01  0.13607150434E-01 -0.76356765177E-02  0.39329570396E-01  0.51100000000E-03 0.  1.
</event>
<event>
 8    1  0.1066842E+005  0.1043930E+01  0.7957747E-01            NaN
         13   -1    0    0    0    0  0.00000000000E+00  0.00000000000E+00  0.74505805969E-08  0.10566000000E+00  0.10566000000E+00 0.  1.
     999900   -1    0    0    0    0 -0.00000000000E+00 -0.00000000000E+00 -0.74505805969E-08  0.93827000000E+00  0.93827000000E+00 0.  1.
     999902    2    1    2    0    0  0.22727799556E-01  0.54443507079E-03 -0.93843019815E-02  0.10193349923E+01  0.10190382289E+01 0.  0.
     999903    2    3    3    0    0  0.77485022844E-01  0.70636241455E-02 -0.10527585499E+00  0.13240994285E+00  0.19888785019E-01 0.  0.
         14    1    1    2    0    0 -0.22727799556E-01 -0.54443507079E-03  0.93843019815E-02  0.24595007743E-01  0.00000000000E+00 0.  1.
     999901    1    3    3    0    0 -0.54757223289E-01 -0.65191890747E-02  0.95891553012E-01  0.88692504941E+00  0.88000000000E+00 0. -1.
        -11    1    4    4    0    0  0.69736446105E-01  0.83450659494E-02 -0.82694539095E-01  0.10849635919E+00  0.51100000000E-03 0.  1.
         11    1    4    4    0    0  0.77485767396E-02 -0.12814418039E-02 -0.22581315898E-01  0.23913583656E-01  0.51100000000E-03 0. -1.
</event>
<event>
 8    1  0.1066842E+005  0.1043930E+01  0.7957747E-01            NaN
         13   -1    0    0    0    0  0.00000000000E+00  0.00000000000E+00  0.74505805969E-08  0.10566000000E+00  0.10566000000E+00 0. -1.
     999900   -1    0    0    0    0 -0.00000000000E+00 -0.00000000000E+00 -0.74505805969E-08  0.93827000000E+00  0.93827000000E+00 0. -1.
     999902    2    1    2    0    0  0.98425969461E-03  0.16714547819E-01  0.14783207076E-01  0.10215941972E+01  0.10213499966E+01 0.  0.
     999903    2    3    3    0    0 -0.10597513907E+00 -0.62481102872E-01  0.41139731432E-01  0.13119713382E+00  0.19636499277E-01 0.  0.
         14    1    1    2    0    0 -0.98425969461E-03 -0.16714547819E-01 -0.14783207076E-01  0.22335802815E-01  0.00000000000E+00 0. -1.
     999901    1    3    3    0    0  0.10695939876E+00  0.79195650691E-01 -0.26356524356E-01  0.89039706336E+00  0.88000000000E+00 0.  1.
        -11    1    4    4    0    0 -0.39739709293E-01 -0.27092445987E-01  0.66458819701E-02  0.48555885249E-01  0.51100000000E-03 0. -1.
         11    1    4    4    0    0 -0.66235429775E-01 -0.35388656885E-01  0.34493849462E-01  0.82641248571E-01  0.51100000000E-03 0.  1.
</event>
<event>
 8    1  0.1066842E+005  0.1043930E+01  0.7957747E-01            NaN
         13   -1    0    0    0    0  0.00000000000E+00  0.00000000000E+00  0.74505805969E-08  0.10566000000E+00  0.10566000000E+00 0. -1.
     999900   -1    0    0    0    0 -0.00000000000E+00 -0.00000000000E+00 -0.74505805969E-08  0.93827000000E+00  0.93827000000E+00 0. -1.
     999902    2    1    2    0    0  0.89126192222E-02  0.20169637374E-01 -0.80359964516E-02  0.10204603112E+01  0.10201903844E+01 0.  0.
     999903    2    3    3    0    0  0.53310344219E-01 -0.48747554986E-01 -0.10697944460E+00  0.13112879635E+00  0.23061716029E-01 0.  0.
         14    1    1    2    0    0 -0.89126192222E-02 -0.20169637374E-01  0.80359964516E-02  0.23469688795E-01  0.00000000000E+00 0. -1.
     999901    1    3    3    0    0 -0.44397724996E-01  0.68917192360E-01  0.98943448150E-01  0.88933151486E+00  0.88000000000E+00 0.  1.
        -11    1    4    4    0    0  0.28495046690E-01 -0.31593540577E-01 -0.43528165479E-01  0.60869383133E-01  0.51100000000E-03 0. -1.
         11    1    4    4    0    0  0.24815297529E-01 -0.17154014409E-01 -0.63451279123E-01  0.70259413214E-01  0.51100000000E-03 0.  1.
</event>
<event>
 8    1  0.1066842E+005  0.1043930E+01  0.7957747E-01            NaN
         13   -1    0    0    0    0  0.00000000000E+00  0.00000000000E+00  0.74505805969E-08  0.10566000000E+00  0.10566000000E+00 0. -1.
     999900   -1    0    0    0    0 -0.00000000000E+00 -0.00000000000E+00 -0.74505805969E-08  0.93827000000E+00  0.93827000000E+00 0.  1.
     999902    2    1    2    0    0  0.26284079168E-02 -0.66425850349E-02  0.22217158599E-01  0.10205925923E+01  0.10203257346E+01 0.  0.
     999903    2    3    3    0    0  0.96592538715E-02  0.12313484949E+00 -0.32935656348E-01  0.12933872926E+00  0.19704240248E-01 0.  0.
         14    1    1    2    0    0 -0.26284079168E-02  0.66425850349E-02 -0.22217158599E-01  0.23337407746E-01  0.00000000000E+00 0.  1.
     999901    1    3    3    0    0 -0.70308459547E-02 -0.12977743452E+00  0.55152814946E-01  0.89125386299E+00  0.88000000000E+00 0. -1.
        -11    1    4    4    0    0  0.13779646224E-01  0.67979929888E-01 -0.23445240818E-01  0.73219464322E-01  0.51100000000E-03 0.  1.
         11    1    4    4    0    0 -0.41203923524E-02  0.55154919599E-01 -0.94904155301E-02  0.56119264937E-01  0.51100000000E-03 0. -1.
</event>
<event>
 8    1  0.1066842E+005  0.1043930E+01  0.7957747E-01            NaN
         13   -1    0    0    0    0  0.00000000000E+00  0.00000000000E+00  0.74505805969E-08  0.10566000000E+00  0.10566000000E+00 0.  1.
     999900   -1    0    0    0    0 -0.00000000000E+00 -0.00000000000E+00 -0.74505805969E-08  0.93827000000E+00  0.93827000000E+00 0.  1.
     999902    2    1    2    0    0 -0.72503444718E-02  0.34737974007E-02  0.22730504471E-01  0.10198196164E+01  0.10195345700E+01 0.  0.
     999903    2    3    3    0    0 -0.24325833667E-01 -0.61640237143E-01 -0.10729758799E+00  0.12772168756E+00  0.20218606964E-01 0.  0.
         14    1    1    2    0    0  0.72503444718E-02 -0.34737974007E-02 -0.22730504471E-01  0.24110383590E-01  0.00000000000E+00 0. -1.
     999901    1    3    3    0    0  0.17075489195E-01  0.65114034544E-01  0.13002809246E+00  0.89209792885E+00  0.88000000000E+00 0.  1.
        -11    1    4    4    0    0 -0.58545400511E-02 -0.30474674730E-02 -0.19262878743E-01  0.20368660134E-01  0.51100000000E-03 0.  1.
         11    1    4    4    0    0 -0.18471293616E-01 -0.58592769670E-01 -0.88034709243E-01  0.10735302743E+00  0.51100000000E-03 0. -1.
</event>
<event>
 8    1  0.1066842E+005  0.1043930E+01  0.7957747E-01            NaN
         13   -1    0    0    0    0  0.00000000000E+00  0.00000000000E+00  0.74505805969E-08  0.10566000000E+00  0.10566000000E+00 0. -1.
     999900   -1    0    0    0    0 -0.00000000000E+00 -0.00000000000E+00 -0.74505805969E-08  0.93827000000E+00  0.93827000000E+00 0. -1.
     999902    2    1    2    0    0  0.20785736032E-01 -0.22460037828E-03  0.41806458359E-02  0.10227268147E+01  0.10225069987E+01 0.  0.
     999903    2    3    3    0    0  0.10237295933E-01 -0.45329803175E-01  0.12344612099E+00  0.13347431822E+00  0.20417040742E-01 0.  0.
         14    1    1    2    0    0 -0.20785736032E-01  0.22460037828E-03 -0.41806458359E-02  0.21203185311E-01  0.00000000000E+00 0. -1.
     999901    1    3    3    0    0  0.10548440098E-01  0.45105202797E-01 -0.11926547516E+00  0.88925249647E+00  0.88000000000E+00 0. -1.
        -11    1    4    4    0    0  0.99862723310E-02 -0.27414306815E-01  0.50184660483E-01  0.58051969149E-01  0.51100000000E-03 0. -1.
         11    1    4    4    0    0  0.25102360227E-03 -0.17915496360E-01  0.73261460511E-01  0.75422349074E-01  0.51100000000E-03 0.  1.
</event>
<event>
 8    1  0.1066842E+005  0.1043930E+01  0.7957747E-01            NaN
         13   -1    0    0    0    0  0.00000000000E+00  0.00000000000E+00  0.74505805969E-08  0.10566000000E+00  0.10566000000E+00 0. -1.
     999900   -1    0    0    0    0 -0.00000000000E+00 -0.00000000000E+00 -0.74505805969E-08  0.93827000000E+00  0.93827000000E+00 0. -1.
     999902    2    1    2    0    0 -0.59735064323E-02 -0.19934063237E-01 -0.95510544249E-02  0.10210330068E+01  0.10207762383E+01 0.  0.
     999903    2    3    3    0    0  0.44642322085E-01 -0.12371225679E+00 -0.11443416713E-01  0.13348838451E+00  0.19762024448E-01 0.  0.
         14    1    1    2    0    0  0.59735064323E-02  0.19934063237E-01  0.95510544249E-02  0.22896993183E-01  0.00000000000E+00 0. -1.
     999901    1    3    3    0    0 -0.50615828517E-01  0.10377819356E+00  0.18923622885E-02  0.88754462231E+00  0.88000000000E+00 0.  1.
        -11    1    4    4    0    0  0.32466095750E-01 -0.75722634490E-01 -0.15400355977E-01  0.83817640342E-01  0.51100000000E-03 0. -1.
         11    1    4    4    0    0  0.12176226335E-01 -0.47989622304E-01  0.39569392635E-02  0.49670744165E-01  0.51100000000E-03 0.  1.
</event>
<event>
 8    1  0.1066842E+005  0.1043930E+01  0.7957747E-01            NaN
         13   -1    0    0    0    0  0.00000000000E+00  0.00000000000E+00  0.74505805969E-08  0.10566000000E+00  0.10566000000E+00 0.  1.
     999900   -1    0    0    0    0 -0.00000000000E+00 -0.00000000000E+00 -0.74505805969E-08  0.93827000000E+00  0.93827000000E+00 0.  1.
     999902    2    1    2    0    0  0.49424437206E-02 -0.17448360483E-01 -0.15542615473E-01  0.10200459901E+01  0.10197663340E+01 0.  0.
     999903    2    3    3    0    0  0.88956441530E-01  0.83840899534E-01  0.34235733691E-01  0.12886938017E+00  0.22196548397E-01 0.  0.
         14    1    1    2    0    0 -0.49424437206E-02  0.17448360483E-01  0.15542615473E-01  0.23884009906E-01  0.00000000000E+00 0.  1.
     999901    1    3    3    0    0 -0.84013997809E-01 -0.10128926002E+00 -0.49778349164E-01  0.89117660992E+00  0.88000000000E+00 0.  1.
        -11    1    4    4    0    0  0.42550594977E-01  0.29102321220E-01  0.66264452888E-02  0.51977582971E-01  0.51100000000E-03 0.  1.
         11    1    4    4    0    0  0.46405846553E-01  0.54738578314E-01  0.27609288402E-01  0.76891797203E-01  0.51100000000E-03 0. -1.
</event>
<event>
 8    1  0.1066842E+005  0.1043930E+01  0.7957747E-01            NaN
         13   -1    0    0    0    0  0.00000000000E+00  0.00000000000E+00  0.74505805969E-08  0.10566000000E+00  0.10566000000E+00 0.  1.
     999900   -1    0    0    0    0 -0.00000000000E+00 -0.00000000000E+00 -0.74505805969E-08  0.93827000000E+00  0.93827000000E+00 0.  1.
     999902    2    1    2    0    0 -0.36899209923E-02 -0.12343856914E-01  0.19618075831E-01  0.10204596949E+01  0.10201897538E+01 0.  0.
     999903    2    3    3    0    0 -0.52836483298E-01  0.11592983273E+00  0.14815025704E-01  0.12978995068E+00  0.19862684260E-01 0.  0.
         14    1    1    2    0    0  0.36899209923E-02  0.12343856914E-01 -0.19618075831E-01  0.23470305063E-01  0.00000000000E+00 0. -1.
     999901    1    3    3    0    0  0.49146562306E-01 -0.12827368965E+00  0.48030501265E-02  0.89066974426E+00  0.88000000000E+00 0. -1.
        -11    1    4    4    0    0 -0.14888947090E-01  0.15996016358E-01 -0.85217948531E-04  0.21859132367E-01  0.51100000000E-03 0. -1.
         11    1    4    4    0    0 -0.37947536208E-01  0.99933816377E-01  0.14900243653E-01  0.10793081831E+00  0.51100000000E-03 0.  1.
</event>
<event>
 8    1  0.1066842E+005  0.1043930E+01  0.7957747E-01            NaN
         13   -1    0    0    0    0  0.00000000000E+00  0.00000000000E+00  0.74505805969E-08  0.10566000000E+00  0.10566000000E+00 0. -1.
     999900   -1    0    0    0    0 -0.00000000000E+00 -0.00000000000E+00 -0.74505805969E-08  0.93827000000E+00  0.93827000000E+00 0. -1.
     999902    2    1    2    0    0  0.16738563908E-01 -0.12278591817E-01  0.91073138592E-02  0.10212609351E+01  0.10210093100E+01 0.  0.
     999903    2    3    3    0    0  0.38949112579E-01 -0.12388701638E+00  0.25578347640E-01  0.13378076975E+00  0.19442640958E-01 0.  0.
         14    1    1    2    0    0 -0.16738563908E-01  0.12278591817E-01 -0.91073138592E-02  0.22669064922E-01  0.00000000000E+00 0.  1.
     999901    1    3    3    0    0 -0.22210548671E-01  0.11160842456E+00 -0.16471033780E-01  0.88748016533E+00  0.88000000000E+00 0. -1.
        -11    1    4    4    0    0  0.40158693681E-02 -0.17590104207E-01 -0.30002891576E-02  0.18297590793E-01  0.51100000000E-03 0.  1.
         11    1    4    4    0    0  0.34933243211E-01 -0.10629691217E+00  0.28578636797E-01  0.11548317895E+00  0.51100000000E-03 0. -1.
</event>
<event>
 8    1  0.1124782E+005  0.1043930E+01  0.7957747E-01            NaN
         13   -1    0    0    0    0  0.00000000000E+00  0.00000000000E+00  0.74505805969E-08  0.10566000000E+00  0.10566000000E+00 0. -1.
     999900   -1    0    0    0    0 -0.00000000000E+00 -0.00000000000E+00 -0.74505805969E-08  0.93827000000E+00  0.93827000000E+00 0.  1.
     999902    2    1    2    0    0 -0.18930644002E-01 -0.10639621728E-01 -0.92634436285E-02  0.10203210563E+01  0.10200478792E+01 0.  0.
     999903    2    3    3    0    0 -0.81441912584E-01  0.61520092513E-01 -0.81553297772E-01  0.13221041792E+00  0.20276768029E-01 0.  0.
         14    1    1    2    0    0  0.18930644002E-01  0.10639621728E-01  0.92634436285E-02  0.23608943659E-01  0.00000000000E+00 0.  1.
     999901    1    3    3    0    0  0.62511268582E-01 -0.72159714241E-01  0.72289854143E-01  0.88811063842E+00  0.88000000000E+00 0.  1.
        -11    1    4    4    0    0 -0.37606403309E-01  0.40483443478E-01 -0.39508841510E-01  0.67929083934E-01  0.51100000000E-03 0.  1.
         11    1    4    4    0    0 -0.43835509275E-01  0.21036649036E-01 -0.42044456262E-01  0.64281333989E-01  0.51100000000E-03 0. -1.
</event>
<event>
 8    1  0.1066842E+005  0.1043930E+01  0.7957747E-01            NaN
         13   -1    0    0    0    0  0.00000000000E+00  0.00000000000E+00  0.74505805969E-08  0.10566000000E+00  0.10566000000E+00 0. -1.
     999900   -1    0    0    0    0 -0.00000000000E+00 -0.00000000000E+00 -0.74505805969E-08  0.93827000000E+00  0.93827000000E+00 0.  1.
     999902    2    1    2    0    0  0.84524390092E-02  0.25816644106E-01  0.18331700854E-02  0.10167031135E+01  0.10163384857E+01 0.  0.
     999903    2    3    3    0    0  0.11515363026E+00 -0.43142385834E-01  0.26061496876E-01  0.12724962741E+00  0.19789947928E-01 0.  0.
         14    1    1    2    0    0 -0.84524390092E-02 -0.25816644106E-01 -0.18331700854E-02  0.27226886540E-01  0.00000000000E+00 0. -1.
     999901    1    3    3    0    0 -0.10670119125E+00  0.68959029940E-01 -0.24228326791E-01  0.88945348605E+00  0.88000000000E+00 0.  1.
        -11    1    4    4    0    0  0.10564389323E+00 -0.40086978939E-01  0.18034148539E-01  0.11442503962E+00  0.51100000000E-03 0.  1.
         11    1    4    4    0    0  0.95097370280E-02 -0.30554068952E-02  0.80273483369E-02  0.12824587789E-01  0.51100000000E-03 0. -1.
</event>
<event>
 8    1  0.1066842E+005  0.1043930E+01  0.7957747E-01            NaN
         13   -1    0    0    0    0  0.00000000000E+00  0.00000000000E+00  0.74505805969E-08  0.10566000000E+00  0.10566000000E+00 0.  1.
     999900   -1    0    0    0    0 -0.00000000000E+00 -0.00000000000E+00 -0.74505805969E-08  0.93827000000E+00  0.93827000000E+00 0.  1.
     999902    2    1    2    0    0  0.10909966825E-01 -0.19225711530E-01  0.91340087347E-02  0.10200116916E+01  0.10197312222E+01 0.  0.
     999903    2    3    3    0    0  0.58691870005E-01  0.10532449804E-01 -0.11349967552E+00  0.12972652442E+00  0.19776923162E-01 0.  0.
         14    1    1    2    0    0 -0.10909966825E-01  0.19225711530E-01 -0.91340087347E-02  0.23918308375E-01  0.00000000000E+00 0. -1.
     999901    1    3    3    0    0 -0.47781903180E-01 -0.29758161334E-01  0.12263368426E+00  0.89028516721E+00  0.88000000000E+00 0. -1.
        -11    1    4    4    0    0  0.19522481940E-01 -0.58128279470E-02 -0.36389584551E-01  0.41705865950E-01  0.51100000000E-03 0.  1.
         11    1    4    4    0    0  0.39169388066E-01  0.16345277751E-01 -0.77110090971E-01  0.88020658466E-01  0.51100000000E-03 0. -1.
</event>
<event>
 8    1  0.1066842E+005  0.1043930E+01  0.7957747E-01            NaN
         13   -1    0    0    0    0  0.00000000000E+00  0.00000000000E+00  0.74505805969E-08  0.10566000000E+00  0.10566000000E+00 0. -1.
     999900   -1    0    0    0    0 -0.00000000000E+00 -0.00000000000E+00 -0.74505805969E-08  0.93827000000E+00  0.93827000000E+00 0. -1.
     999902    2    1    2    0    0 -0.11296523700E-01  0.12343441403E-01  0.16522058067E-01  0.10204151027E+01  0.10201441228E+01 0.  0.
     999903    2    3    3    0    0 -0.99431953294E-01 -0.27853619358E-01 -0.76536736665E-01  0.13022209163E+00  0.20913718970E-01 0.  0.
         14    1    1    2    0    0  0.11296523700E-01 -0.12343441403E-01 -0.16522058067E-01  0.23514897324E-01  0.00000000000E+00 0.  1.
     999901    1    3    3    0    0  0.88135429595E-01  0.40197060761E-01  0.93058794733E-01  0.89019301105E+00  0.88000000000E+00 0. -1.
        -11    1    4    4    0    0 -0.63412039856E-01 -0.72074774157E-02 -0.45360380764E-01  0.78299807110E-01  0.51100000000E-03 0. -1.
         11    1    4    4    0    0 -0.36019913438E-01 -0.20646141943E-01 -0.31176355901E-01  0.51922284517E-01  0.51100000000E-03 0.  1.
</event>
<event>
 8    1  0.1066842E+005  0.1043930E+01  0.7957747E-01            NaN
         13   -1    0    0    0    0  0.00000000000E+00  0.00000000000E+00  0.74505805969E-08  0.10566000000E+00  0.10566000000E+00 0. -1.
     999900   -1    0    0    0    0 -0.00000000000E+00 -0.00000000000E+00 -0.74505805969E-08  0.93827000000E+00  0.93827000000E+00 0.  1.
     999902    2    1    2    0    0 -0.15321823289E-01  0.17423066569E-01  0.68587562672E-02  0.10197357020E+01  0.10194486441E+01 0.  0.
     999903    2    3    3    0    0 -0.61978834316E-01  0.98684067975E-01 -0.58992333271E-01  0.13231438549E+00  0.21144267483E-01 0.  0.
         14    1    1    2    0    0  0.15321823289E-01 -0.17423066569E-01 -0.68587562672E-02  0.24194297988E-01  0.00000000000E+00 0.  1.
     999901    1    3    3    0    0  0.46657011026E-01 -0.81261001405E-01  0.65851089538E-01  0.88742131652E+00  0.88000000000E+00 0. -1.
        -11    1    4    4    0    0 -0.24932206411E-01  0.59469578165E-01 -0.31999575447E-01  0.71989440847E-01  0.51100000000E-03 0.  1.
         11    1    4    4    0    0 -0.37046627904E-01  0.39214489809E-01 -0.26992757824E-01  0.60324944642E-01  0.51100000000E-03 0. -1.
</event>
<event>
 8    1  0.1066842E+005  0.1043930E+01  0.7957747E-01            NaN
         13   -1    0    0    0    0  0.00000000000E+00  0.00000000000E+00  0.74505805969E-08  0.10566000000E+00  0.10566000000E+00 0.  1.
     999900   -1    0    0    0    0 -0.00000000000E+00 -0.00000000000E+00 -0.74505805969E-08  0.93827000000E+00  0.93827000000E+00 0.  1.
     999902    2    1    2    0    0 -0.24172166380E-01  0.45645761546E-03  0.32085921907E-02  0.10195415387E+01  0.10192497987E+01 0.  0.
     999903    2    3    3    0    0  0.87807868160E-01  0.62590226785E-01 -0.65311596826E-01  0.12763619074E+00  0.19940769955E-01 0.  0.
         14    1    1    2    0    0  0.24172166380E-01 -0.45645761546E-03 -0.32085921907E-02  0.24388461307E-01  0.00000000000E+00 0.  1.
     999901    1    3    3    0    0 -0.11198003454E+00 -0.62133769170E-01  0.68520189017E-01  0.89190534795E+00  0.88000000000E+00 0. -1.
        -11    1    4    4    0    0  0.37927605611E-01  0.22392399170E-01 -0.37288577488E-01  0.57711540787E-01  0.51100000000E-03 0.  1.
         11    1    4    4    0    0  0.49880262549E-01  0.40197827616E-01 -0.28023019338E-01  0.69924649952E-01  0.51100000000E-03 0. -1.
</event>
<event>
 8    1  0.1066842E+005  0.1043930E+01  0.7957747E-01            NaN
         13   -1    0    0    0    0  0.00000000000E+00  0.00000000000E+00  0.74505805969E-08  0.10566000000E+00  0.10566000000E+00 0. -1.
     999900   -1    0    0    0    0 -0.00000000000E+00 -0.00000000000E+00 -0.74505805969E-08  0.93827000000E+00  0.93827000000E+00 0.  1.
     999902    2    1    2    0    0 -0.14537772830E-01  0.17651458820E-01  0.61241933773E-02  0.10202566694E+01  0.10199819826E+01 0.  0.
     999903    2    3    3    0    0 -0.60400526076E-01  0.38920396933E-01  0.11004535765E+00  0.13270082989E+00  0.18344172526E-01 0.  0.
         14    1    1    2    0    0  0.14537772830E-01 -0.17651458820E-01 -0.61241933773E-02  0.23673330603E-01  0.00000000000E+00 0. -1.
     999901    1    3    3    0    0  0.45862753246E-01 -0.21268938113E-01 -0.10392116427E+00  0.88755583951E+00  0.88000000000E+00 0.  1.
        -11    1    4    4    0    0 -0.41223908056E-01  0.29657198392E-01  0.62003509748E-01  0.80147715837E-01  0.51100000000E-03 0.  1.
         11    1    4    4    0    0 -0.19176618020E-01  0.92631985408E-02  0.48041847898E-01  0.52553114050E-01  0.51100000000E-03 0. -1.
</event>
<event>
 8    1  0.1066842E+005  0.1043930E+01  0.7957747E-01            NaN
         13   -1    0    0    0    0  0.00000000000E+00  0.00000000000E+00  0.74505805969E-08  0.10566000000E+00  0.10566000000E+00 0. -1.
     999900   -1    0    0    0    0 -0.00000000000E+00 -0.00000000000E+00 -0.74505805969E-08  0.93827000000E+00  0.93827000000E+00 0. -1.
     999902    2    1    2    0    0  0.10771876165E-01 -0.15693305638E-01  0.14142435455E-01  0.10202166780E+01  0.10199410515E+01 0.  0.
     999903    2    3    3    0    0  0.69834180754E-01 -0.35515621334E-01  0.10588648270E+00  0.13325656043E+00  0.20178987025E-01 0.  0.
         14    1    1    2    0    0 -0.10771876165E-01  0.15693305638E-01 -0.14142435455E-01  0.23713321964E-01  0.00000000000E+00 0.  1.
     999901    1    3    3    0    0 -0.59062304589E-01  0.19822315696E-01 -0.91744047249E-01  0.88696011761E+00  0.88000000000E+00 0. -1.
        -11    1    4    4    0    0  0.32197416325E-01 -0.25201239895E-01  0.64509980762E-01  0.76377842658E-01  0.51100000000E-03 0.  1.
         11    1    4    4    0    0  0.37636764429E-01 -0.10314381439E-01  0.41376501942E-01  0.56878717769E-01  0.51100000000E-03 0. -1.
</event>
<event>
 8    1  0.1066842E+005  0.1043930E+01  0.7957747E-01            NaN
         13   -1    0    0    0    0  0.00000000000E+00  0.00000000000E+00  0.74505805969E-08  0.10566000000E+00  0.10566000000E+00 0. -1.
     999900   -1    0    0    0    0 -0.00000000000E+00 -0.00000000000E+00 -0.74505805969E-08  0.93827000000E+00  0.93827000000E+00 0.  1.
     999902    2    1    2    0    0 -0.10731197740E-01  0.55678439683E-02  0.21593152982E-01  0.10191828032E+01  0.10188823105E+01 0.  0.
     999903    2    3    3    0    0  0.87062991237E-01  0.63854309536E-01 -0.65147470767E-01  0.12761959670E+00  0.19627308129E-01 0.  0.
         14    1    1    2    0    0  0.10731197740E-01 -0.55678439683E-02 -0.21593152982E-01  0.24747196752E-01  0.00000000000E+00 0.  1.
     999901    1    3    3    0    0 -0.97794188977E-01 -0.58286465567E-01  0.86740623749E-01  0.89156320655E+00  0.88000000000E+00 0. -1.
        -11    1    4    4    0    0  0.50958702426E-01  0.25454239949E-01 -0.36013051846E-01  0.67393684485E-01  0.51100000000E-03 0.  1.
         11    1    4    4    0    0  0.36104288811E-01  0.38400069587E-01 -0.29134418922E-01  0.60225912212E-01  0.51100000000E-03 0. -1.
</event>
<event>
 8    1  0.1066842E+005  0.1043930E+01  0.7957747E-01            NaN
         13   -1    0    0    0    0  0.00000000000E+00  0.00000000000E+00  0.74505805969E-08  0.10566000000E+00  0.10566000000E+00 0. -1.
     999900   -1    0    0    0    0 -0.00000000000E+00 -0.00000000000E+00 -0.74505805969E-08  0.93827000000E+00  0.93827000000E+00 0. -1.
     999902    2    1    2    0    0 -0.22592228118E-01 -0.10664141978E-01  0.21283024964E-02  0.10188568597E+01  0.10185482993E+01 0.  0.
     999903    2    3    3    0    0 -0.52211100910E-01 -0.18246896103E-01  0.11686696205E+00  0.13088178355E+00  0.20327473266E-01 0.  0.
         14    1    1    2    0    0  0.22592228118E-01  0.10664141978E-01 -0.21283024964E-02  0.25073140349E-01  0.00000000000E+00 0. -1.
     999901    1    3    3    0    0  0.29618872792E-01  0.75827541253E-02 -0.11473865956E+00  0.88797507610E+00  0.88000000000E+00 0. -1.
        -11    1    4    4    0    0 -0.26439669864E-01 -0.19482526883E-01  0.59141592649E-01  0.67650676999E-01  0.51100000000E-03 0. -1.
         11    1    4    4    0    0 -0.25771431046E-01  0.12356307798E-02  0.57725369403E-01  0.63231106548E-01  0.51100000000E-03 0.  1.
</event>
<event>
 8    1  0.1066842E+005  0.1043930E+01  0.7957747E-01            NaN
         13   -1    0    0    0    0  0.00000000000E+00  0.00000000000E+00  0.74505805969E-08  0.10566000000E+00  0.10566000000E+00 0. -1.
     999900   -1    0    0    0    0 -0.00000000000E+00 -0.00000000000E+00 -0.74505805969E-08  0.93827000000E+00  0.93827000000E+00 0.  1.
     999902    2    1    2    0    0  0.38528142098E-02  0.17253808873E-02  0.23752770699E-01  0.10198050081E+01  0.10195196121E+01 0.  0.
     999903    2    3    3    0    0 -0.57880183697E-01  0.92024207827E-01  0.70867323146E-01  0.13178213555E+00  0.22929964466E-01 0.  0.
         14    1    1    2    0    0 -0.38528142098E-02 -0.17253808873E-02 -0.23752770699E-01  0.24124991863E-01  0.00000000000E+00 0.  1.
     999901    1    3    3    0    0  0.61732997907E-01 -0.90298826940E-01 -0.47114552447E-01  0.88802287258E+00  0.88000000000E+00 0.  1.
        -11    1    4    4    0    0 -0.38082291100E-01  0.40968381706E-01  0.41434054223E-01  0.69611142538E-01  0.51100000000E-03 0.  1.
         11    1    4    4    0    0 -0.19797892597E-01  0.51055826121E-01  0.29433268923E-01  0.62170993017E-01  0.51100000000E-03 0. -1.
</event>
<event>
 8    1  0.1066842E+005  0.1043930E+01  0.7957747E-01            NaN
         13   -1    0    0    0    0  0.00000000000E+00  0.00000000000E+00  0.74505805969E-08  0.10566000000E+00  0.10566000000E+00 0. -1.
     999900   -1    0    0    0    0 -0.00000000000E+00 -0.00000000000E+00 -0.74505805969E-08  0.93827000000E+00  0.93827000000E+00 0.  1.
     999902    2    1    2    0    0  0.20079258568E-01  0.65795438444E-03 -0.12644713877E-01  0.10201918805E+01  0.10199156704E+01 0.  0.
     999903    2    3    3    0    0 -0.31622811394E-03  0.17735680604E-01  0.12602002938E+00  0.12893684649E+00  0.20712513419E-01 0.  0.
         14    1    1    2    0    0 -0.20079258568E-01 -0.65795438444E-03  0.12644713877E-01  0.23738119505E-01  0.00000000000E+00 0.  1.
     999901    1    3    3    0    0  0.20395486682E-01 -0.17077726220E-01 -0.13866474326E+00  0.89125503400E+00  0.88000000000E+00 0.  1.
        -11    1    4    4    0    0  0.48420508902E-02  0.19045748785E-01  0.71432662152E-01  0.74088274017E-01  0.51100000000E-03 0.  1.
         11    1    4    4    0    0 -0.51582790041E-02 -0.13100681810E-02  0.54587367227E-01  0.54848572477E-01  0.51100000000E-03 0. -1.
</event>
<event>
 8    1  0.1066842E+005  0.1043930E+01  0.7957747E-01            NaN
         13   -1    0    0    0    0  0.00000000000E+00  0.00000000000E+00  0.74505805969E-08  0.10566000000E+00  0.10566000000E+00 0. -1.
     999900   -1    0    0    0    0 -0.00000000000E+00 -0.00000000000E+00 -0.74505805969E-08  0.93827000000E+00  0.93827000000E+00 0. -1.
     999902    2    1    2    0    0  0.21089111192E-01 -0.14026051385E-02  0.11670959670E-01  0.10197860730E+01  0.10195002234E+01 0.  0.
     999903    2    3    3    0    0  0.79681672800E-01 -0.56232709676E-02 -0.10142915498E+00  0.13060524873E+00  0.19724790466E-01 0.  0.
         14    1    1    2    0    0 -0.21089111192E-01  0.14026051385E-02 -0.11670959670E-01  0.24143927014E-01  0.00000000000E+00 0.  1.
     999901    1    3    3    0    0 -0.58592561608E-01  0.42206658291E-02  0.11310011465E+00  0.88918082426E+00  0.88000000000E+00 0. -1.
        -11    1    4    4    0    0  0.45315900808E-01  0.11021608261E-02 -0.42986800207E-01  0.62472968054E-01  0.51100000000E-03 0. -1.
         11    1    4    4    0    0  0.34365771992E-01 -0.67254317937E-02 -0.58442354772E-01  0.68132280673E-01  0.51100000000E-03 0.  1.
</event>
<event>
 8    1  0.1066842E+005  0.1043930E+01  0.7957747E-01            NaN
         13   -1    0    0    0    0  0.00000000000E+00  0.00000000000E+00  0.74505805969E-08  0.10566000000E+00  0.10566000000E+00 0. -1.
     999900   -1    0    0    0    0 -0.00000000000E+00 -0.00000000000E+00 -0.74505805969E-08  0.93827000000E+00  0.93827000000E+00 0.  1.
     999902    2    1    2    0    0  0.12102959733E-01 -0.12978348222E-01 -0.15495686475E-01  0.10203708095E+01  0.10200987959E+01 0.  0.
     999903    2    3    3    0    0 -0.38921198032E-01  0.42537085693E-01 -0.11637967243E+00  0.13140342727E+00  0.19959189028E-01 0.  0.
         14    1    1    2    0    0 -0.12102959733E-01  0.12978348222E-01  0.15495686475E-01  0.23559190482E-01  0.00000000000E+00 0.  1.
     999901    1    3    3    0    0  0.51024157765E-01 -0.55515433915E-01  0.10088398596E+00  0.88896738225E+00  0.88000000000E+00 0. -1.
        -11    1    4    4    0    0 -0.28582927826E-01  0.31631865761E-01 -0.10219772047E+00  0.11073479076E+00  0.51100000000E-03 0. -1.
         11    1    4    4    0    0 -0.10338270206E-01  0.10905219932E-01 -0.14181951968E-01  0.20668636511E-01  0.51100000000E-03 0.  1.
</event>
<event>
 8    1  0.1066842E+005  0.1043930E+01  0.7957747E-01            NaN
         13   -1    0    0    0    0  0.00000000000E+00  0.00000000000E+00  0.74505805969E-08  0.10566000000E+00  0.10566000000E+00 0. -1.
     999900   -1    0    0    0    0 -0.00000000000E+00 -0.00000000000E+00 -0.74505805969E-08  0.93827000000E+00  0.93827000000E+00 0.  1.
     999902    2    1    2    0    0  0.76115367376E-02 -0.10298069150E-01 -0.20754771954E-01  0.10195425795E+01  0.10192508647E+01 0.  0.
     999903    2    3    3    0    0 -0.16746705182E-01 -0.74950397126E-01  0.99914063907E-01  0.12862495401E+00  0.25759356826E-01 0.  0.
         14    1    1    2    0    0 -0.76115367376E-02  0.10298069150E-01  0.20754771954E-01  0.24387420499E-01  0.00000000000E+00 0. -1.
     999901    1    3    3    0    0  0.24358241919E-01  0.64652327975E-01 -0.12066883586E+00  0.89091762549E+00  0.88000000000E+00 0.  1.
        -11    1    4    4    0    0 -0.47554230192E-02 -0.42055451762E-01  0.73299142869E-01  0.84642191236E-01  0.51100000000E-03 0. -1.
         11    1    4    4    0    0 -0.11991282163E-01 -0.32894945364E-01  0.26614921038E-01  0.43982762774E-01  0.51100000000E-03 0.  1.
</event>
<event>
 8    1  0.1066842E+005  0.1043930E+01  0.7957747E-01            NaN
         13   -1    0    0    0    0  0.00000000000E+00  0.00000000000E+00  0.74505805969E-08  0.10566000000E+00  0.10566000000E+00 0. -1.
     999900   -1    0    0    0    0 -0.00000000000E+00 -0.00000000000E+00 -0.74505805969E-08  0.93827000000E+00  0.93827000000E+00 0. -1.
     999902    2    1    2    0    0 -0.99838620619E-03 -0.10212936869E-01 -0.21359508585E-01  0.10202333871E+01  0.10199581534E+01 0.  0.
     999903    2    3    3    0    0 -0.70111699485E-01  0.98193504555E-01  0.40207270280E-01  0.12876321103E+00  0.20142621234E-01 0.  0.
         14    1    1    2    0    0  0.99838620619E-03  0.10212936869E-01  0.21359508585E-01  0.23696612870E-01  0.00000000000E+00 0. -1.
     999901    1    3    3    0    0  0.69113313279E-01 -0.10840644142E+00 -0.61566778865E-01  0.89147017610E+00  0.88000000000E+00 0. -1.
        -11    1    4    4    0    0 -0.16666753722E-01  0.38699209857E-01  0.17480191223E-01  0.45620474892E-01  0.51100000000E-03 0. -1.
         11    1    4    4    0    0 -0.53444945763E-01  0.59494294698E-01  0.22727079057E-01  0.83142736139E-01  0.51100000000E-03 0.  1.
</event>
<event>
 8    1  0.1066842E+005  0.1043930E+01  0.7957747E-01            NaN
         13   -1    0    0    0    0  0.00000000000E+00  0.00000000000E+00  0.74505805969E-08  0.10566000000E+00  0.10566000000E+00 0.  1.
     999900   -1    0    0    0    0 -0.00000000000E+00 -0.00000000000E+00 -0.74505805969E-08  0.93827000000E+00  0.93827000000E+00 0. -1.
     999902    2    1    2    0    0  0.12348833526E-01 -0.10721533321E-01 -0.16917429946E-01  0.10204003506E+01  0.10201290267E+01 0.  0.
     999903    2    3    3    0    0  0.98885061758E-01  0.83259895682E-01  0.47928252834E-02  0.13091040517E+00  0.20102172503E-01 0.  0.
         14    1    1    2    0    0 -0.12348833526E-01  0.10721533321E-01  0.16917429946E-01  0.23529649427E-01  0.00000000000E+00 0.  1.
     999901    1    3    3    0    0 -0.86536228232E-01 -0.93981429002E-01 -0.21710255229E-01  0.88948994540E+00  0.88000000000E+00 0.  1.
        -11    1    4    4    0    0  0.72040629845E-01  0.58449298197E-01  0.12322071627E-01  0.93585615232E-01  0.51100000000E-03 0.  1.
         11    1    4    4    0    0  0.26844431913E-01  0.24810597485E-01 -0.75292463436E-02  0.37324789936E-01  0.51100000000E-03 0. -1.
</event>
<event>
 8    1  0.1066842E+005  0.1043930E+01  0.7957747E-01            NaN
         13   -1    0    0    0    0  0.00000000000E+00  0.00000000000E+00  0.74505805969E-08  0.10566000000E+00  0.10566000000E+00 0. -1.
     999900   -1    0    0    0    0 -0.00000000000E+00 -0.00000000000E+00 -0.74505805969E-08  0.93827000000E+00  0.93827000000E+00 0.  1.
     999902    2    1    2    0    0  0.12666631077E-01  0.19866937729E-01 -0.28757620906E-02  0.10201937668E+01  0.10199176011E+01 0.  0.
     999903    2    3    3    0    0  0.11037498528E+00  0.20773162851E-02 -0.69743396658E-01  0.13208641202E+00  0.19892869157E-01 0.  0.
         14    1    1    2    0    0 -0.12666631077E-01 -0.19866937729E-01  0.28757620906E-02  0.23736233171E-01  0.00000000000E+00 0. -1.
     999901    1    3    3    0    0 -0.97708354207E-01  0.17789621444E-01  0.66867634568E-01  0.88810735481E+00  0.88000000000E+00 0. -1.
        -11    1    4    4    0    0  0.46933496033E-01  0.75398406642E-02 -0.21381290214E-01  0.52125070161E-01  0.51100000000E-03 0.  1.
         11    1    4    4    0    0  0.63441489251E-01 -0.54625243791E-02 -0.48362106444E-01  0.79961341858E-01  0.51100000000E-03 0. -1.
</event>
<event>
 8    1  0.1066842E+005  0.1043930E+01  0.7957747E-01            NaN
         13   -1    0    0    0    0  0.00000000000E+00  0.00000000000E+00  0.74505805969E-08  0.10566000000E+00  0.10566000000E+00 0.  1.
     999900   -1    0    0    0    0 -0.00000000000E+00 -0.00000000000E+00 -0.74505805969E-08  0.93827000000E+00  0.93827000000E+00 0.  1.
     999902    2    1    2    0    0  0.22717893861E-01  0.27836271032E-02  0.80341955004E-02  0.10196730509E+01  0.10193844864E+01 0.  0.
     999903    2    3    3    0    0 -0.10593874564E+00 -0.68492876445E-01  0.55690186860E-02  0.12746290306E+00  0.17363344639E-01 0.  0.
         14    1    1    2    0    0 -0.22717893861E-01 -0.27836271032E-02 -0.80341955004E-02  0.24256949080E-01  0.00000000000E+00 0. -1.
     999901    1    3    3    0    0  0.12865663950E+00  0.71276503548E-01  0.24651768145E-02  0.89221014786E+00  0.88000000000E+00 0.  1.
        -11    1    4    4    0    0 -0.14988831884E-01 -0.30833575301E-02  0.53019188144E-03  0.15320391619E-01  0.51100000000E-03 0. -1.
         11    1    4    4    0    0 -0.90949913751E-01 -0.65409518915E-01  0.50388268045E-02  0.11214251144E+00  0.51100000000E-03 0.  1.
</event>
<event>
 8    1  0.1066842E+005  0.1043930E+01  0.7957747E-01            NaN
         13   -1    0    0    0    0  0.00000000000E+00  0.00000000000E+00  0.74505805969E-08  0.10566000000E+00  0.10566000000E+00 0.  1.
     999900   -1    0    0    0    0 -0.00000000000E+00 -0.00000000000E+00 -0.74505805969E-08  0.93827000000E+00  0.93827000000E+00 0. -1.
     999902    2    1    2    0    0 -0.39995501998E-02 -0.97099063434E-02  0.21488660659E-01  0.10200126168E+01  0.10197321693E+01 0.  0.
     999903    2    3    3    0    0 -0.14893647555E-01 -0.74211437995E-01  0.10671746106E+00  0.13347830986E+00  0.26432639686E-01 0.  0.
         14    1    1    2    0    0  0.39995501998E-02  0.97099063434E-02 -0.21488660659E-01  0.23917383217E-01  0.00000000000E+00 0. -1.
     999901    1    3    3    0    0  0.10894097355E-01  0.64501531651E-01 -0.85228800398E-01  0.88653430693E+00  0.88000000000E+00 0. -1.
        -11    1    4    4    0    0 -0.33480582219E-02 -0.49147640737E-01  0.85453707276E-01  0.98637200346E-01  0.51100000000E-03 0. -1.
         11    1    4    4    0    0 -0.11545589333E-01 -0.25063797257E-01  0.21263753781E-01  0.34841109509E-01  0.51100000000E-03 0.  1.
</event>
<event>
 8    1  0.1066842E+005  0.1043930E+01  0.7957747E-01            NaN
         13   -1    0    0    0    0  0.00000000000E+00  0.00000000000E+00  0.74505805969E-08  0.10566000000E+00  0.10566000000E+00 0.  1.
     999900   -1    0    0    0    0 -0.00000000000E+00 -0.00000000000E+00 -0.74505805969E-08  0.93827000000E+00  0.93827000000E+00 0. -1.
     999902    2    1    2    0    0  0.21810569852E-01  0.73507299855E-02  0.34827108912E-02  0.10206520391E+01  0.10203865549E+01 0.  0.
     999903    2    3    3    0    0  0.57451030067E-02 -0.64237768396E-01  0.11205329109E+00  0.13094951398E+00  0.20792740795E-01 0.  0.
         14    1    1    2    0    0 -0.21810569852E-01 -0.73507299855E-02 -0.34827108912E-02  0.23277960901E-01  0.00000000000E+00 0. -1.
     999901    1    3    3    0    0  0.16065466845E-01  0.71588498382E-01 -0.10857058020E+00  0.88970252512E+00  0.88000000000E+00 0. -1.
        -11    1    4    4    0    0  0.13452567655E-01 -0.38391505123E-01  0.70891057034E-01  0.81735441092E-01  0.51100000000E-03 0.  1.
         11    1    4    4    0    0 -0.77074646484E-02 -0.25846263273E-01  0.41162234054E-01  0.49214072884E-01  0.51100000000E-03 0. -1.
</event>
<event>
 8    1  0.1066842E+005  0.1043930E+01  0.7957747E-01            NaN
         13   -1    0    0    0    0  0.00000000000E+00  0.00000000000E+00  0.74505805969E-08  0.10566000000E+00  0.10566000000E+00 0. -1.
     999900   -1    0    0    0    0 -0.00000000000E+00 -0.00000000000E+00 -0.74505805969E-08  0.93827000000E+00  0.93827000000E+00 0. -1.
     999902    2    1    2    0    0  0.12122662244E-01 -0.14960304347E-01 -0.12303272319E-01  0.10210796137E+01  0.10208239012E+01 0.  0.
     999903    2    3    3    0    0  0.11893785773E+00  0.13929249420E-01  0.51978162644E-01  0.13182363523E+00  0.18316752457E-01 0.  0.
         14    1    1    2    0    0 -0.12122662244E-01  0.14960304347E-01  0.12303272319E-01  0.22850386338E-01  0.00000000000E+00 0. -1.
     999901    1    3    3    0    0 -0.10681519549E+00 -0.28889553767E-01 -0.64281434963E-01  0.88925597844E+00  0.88000000000E+00 0.  1.
        -11    1    4    4    0    0  0.78127282297E-01  0.22274098743E-02  0.27760060519E-01  0.82944051474E-01  0.51100000000E-03 0. -1.
         11    1    4    4    0    0  0.40810575437E-01  0.11701839546E-01  0.24218102124E-01  0.48879583752E-01  0.51100000000E-03 0.  1.
</event>
<event>
 8    1  0.1066842E+005  0.1043930E+01  0.7957747E-01            NaN
         13   -1    0    0    0    0  0.00000000000E+00  0.00000000000E+00  0.74505805969E-08  0.10566000000E+00  0.10566000000E+00 0. -1.
     999900   -1    0    0    0    0 -0.00000000000E+00 -0.00000000000E+00 -0.74505805969E-08  0.93827000000E+00  0.93827000000E+00 0. -1.
     999902    2    1    2    0    0  0.36972148834E-02  0.17277632561E-01  0.12597272085E-01  0.10222302938E+01  0.10219999493E+01 0.  0.
     999903    2    3    3    0    0 -0.12194068509E+00 -0.20264546758E-02 -0.45509494065E-01  0.13120059398E+00  0.16396481701E-01 0.  0.
         14    1    1    2    0    0 -0.36972148834E-02 -0.17277632561E-01 -0.12597272085E-01  0.21699706192E-01  0.00000000000E+00 0.  1.
     999901    1    3    3    0    0  0.12563789998E+00  0.19304087237E-01  0.58106766150E-01  0.89102969982E+00  0.88000000000E+00 0.  1.
        -11    1    4    4    0    0 -0.88521719221E-01 -0.28428325320E-02 -0.40519288880E-01  0.97397383759E-01  0.51100000000E-03 0. -1.
         11    1    4    4    0    0 -0.33418965873E-01  0.81637785628E-03 -0.49902051849E-02  0.33803210226E-01  0.51100000000E-03 0.  1.
</event>
<event>
 8    1  0.1066842E+005  0.1043930E+01  0.7957747E-01            NaN
         13   -1    0    0    0    0  0.00000000000E+00  0.00000000000E+00  0.74505805969E-08  0.10566000000E+00  0.10566000000E+00 0.  1.
     999900   -1    0    0    0    0 -0.00000000000E+00 -0.00000000000E+00 -0.74505805969E-08  0.93827000000E+00  0.93827000000E+00 0.  1.
     999902    2    1    2    0    0  0.90503614736E-02  0.20613522778E-01 -0.58584588503E-02  0.10206674141E+01  0.10204022845E+01 0.  0.
     999903    2    3    3    0    0 -0.20014707223E-01  0.78742598125E-01  0.10156495377E+00  0.13175596899E+00  0.21052559585E-01 0.  0.
         14    1    1    2    0    0 -0.90503614736E-02 -0.20613522778E-01  0.58584588503E-02  0.23262585932E-01  0.00000000000E+00 0.  1.
     999901    1    3    3    0    0  0.29065068696E-01 -0.58129075347E-01 -0.10742341262E+00  0.88891144508E+00  0.88000000000E+00 0.  1.
        -11    1    4    4    0    0  0.25823039124E-04  0.35325967363E-01  0.52147247352E-01  0.62988262116E-01  0.51100000000E-03 0.  1.
         11    1    4    4    0    0 -0.20040530262E-01  0.43416630762E-01  0.49417706415E-01  0.68767706871E-01  0.51100000000E-03 0. -1.
</event>
<event>
 8    1  0.1066842E+005  0.1043930E+01  0.7957747E-01            NaN
         13   -1    0    0    0    0  0.00000000000E+00  0.00000000000E+00  0.74505805969E-08  0.10566000000E+00  0.10566000000E+00 0. -1.
     999900   -1    0    0    0    0 -0.00000000000E+00 -0.00000000000E+00 -0.74505805969E-08  0.93827000000E+00  0.93827000000E+00 0. -1.
     999902    2    1    2    0    0  0.66015909663E-02 -0.21684009622E-01 -0.60130584054E-02  0.10204793252E+01  0.10202098407E+01 0.  0.
     999903    2    3    3    0    0 -0.10537418551E+00 -0.75347092292E-01 -0.13728087260E-01  0.13172861628E+00  0.19572038179E-01 0.  0.
         14    1    1    2    0    0 -0.66015909663E-02  0.21684009622E-01  0.60130584054E-02  0.23450674787E-01  0.00000000000E+00 0. -1.
     999901    1    3    3    0    0  0.11197577648E+00  0.53663082669E-01  0.77150288545E-02  0.88875070893E+00  0.88000000000E+00 0. -1.
        -11    1    4    4    0    0 -0.75971890875E-01 -0.51315516783E-01 -0.18262852950E-01  0.93481567085E-01  0.51100000000E-03 0.  1.
         11    1    4    4    0    0 -0.29402294635E-01 -0.24031575509E-01  0.45347656903E-02  0.38247049194E-01  0.51100000000E-03 0. -1.
</event>
<event>
 8    1  0.1066842E+005  0.1043930E+01  0.7957747E-01            NaN
         13   -1    0    0    0    0  0.00000000000E+00  0.00000000000E+00  0.74505805969E-08  0.10566000000E+00  0.10566000000E+00 0. -1.
     999900   -1    0    0    0    0 -0.00000000000E+00 -0.00000000000E+00 -0.74505805969E-08  0.93827000000E+00  0.93827000000E+00 0.  1.
     999902    2    1    2    0    0  0.10128623993E-01  0.55363962970E-02 -0.23666545623E-01  0.10175985342E+01  0.10172577996E+01 0.  0.
     999903    2    3    3    0    0 -0.87879709526E-02 -0.10952173929E+00 -0.64383742391E-01  0.12897369649E+00  0.20413434131E-01 0.  0.
         14    1    1    2    0    0 -0.10128623993E-01 -0.55363962970E-02  0.23666545623E-01  0.26331465771E-01  0.00000000000E+00 0. -1.
     999901    1    3    3    0    0  0.18916594946E-01  0.11505813558E+00  0.40717196769E-01  0.88862483774E+00  0.88000000000E+00 0. -1.
        -11    1    4    4    0    0 -0.10396165858E-01 -0.61522747433E-01 -0.46112380763E-01  0.77586993091E-01  0.51100000000E-03 0. -1.
         11    1    4    4    0    0  0.16081949050E-02 -0.47998991854E-01 -0.18271361628E-01  0.51386703402E-01  0.51100000000E-03 0.  1.
</event>
<event>
 8    1  0.1066842E+005  0.1043930E+01  0.7957747E-01            NaN
         13   -1    0    0    0    0  0.00000000000E+00  0.00000000000E+00  0.74505805969E-08  0.10566000000E+00  0.10566000000E+00 0. -1.
     999900   -1    0    0    0    0 -0.00000000000E+00 -0.00000000000E+00 -0.74505805969E-08  0.93827000000E+00  0.93827000000E+00 0.  1.
     999902    2    1    2    0    0 -0.80474831070E-02  0.45473554193E-02 -0.22332214174E-01  0.10197604279E+01  0.10194739634E+01 0.  0.
     999903    2    3    3    0    0  0.97394248498E-01 -0.68404034418E-01 -0.47834177314E-01  0.13010307017E+00  0.21770364772E-01 0.  0.
         14    1    1    2    0    0  0.80474831070E-02 -0.45473554193E-02  0.22332214174E-01  0.24169572101E-01  0.00000000000E+00 0. -1.
     999901    1    3    3    0    0 -0.10544173160E+00  0.72951389838E-01  0.25501963141E-01  0.88965735773E+00  0.88000000000E+00 0. -1.
        -11    1    4    4    0    0  0.45480452423E-01 -0.44161662871E-01 -0.29673551577E-01  0.69996462799E-01  0.51100000000E-03 0. -1.
         11    1    4    4    0    0  0.51913796074E-01 -0.24242371547E-01 -0.18160625737E-01  0.60106607367E-01  0.51100000000E-03 0.  1.
</event>
<event>
 8    1  0.1066842E+005  0.1043930E+01  0.7957747E-01            NaN
         13   -1    0    0    0    0  0.00000000000E+00  0.00000000000E+00  0.74505805969E-08  0.10566000000E+00  0.10566000000E+00 0. -1.
     999900   -1    0    0    0    0 -0.00000000000E+00 -0.00000000000E+00 -0.74505805969E-08  0.93827000000E+00  0.93827000000E+00 0. -1.
     999902    2    1    2    0    0  0.36212369062E-02  0.68943965740E-03  0.22566402259E-01  0.10210644977E+01  0.10208084430E+01 0.  0.
     999903    2    3    3    0    0  0.33904215726E-02  0.62473121899E-01  0.11697476264E+00  0.13386090486E+00  0.17923750670E-01 0.  0.
         14    1    1    2    0    0 -0.36212369062E-02 -0.68943965740E-03 -0.22566402259E-01  0.22865502284E-01  0.00000000000E+00 0.  1.
     999901    1    3    3    0    0  0.23081533359E-03 -0.61783682242E-01 -0.94408360376E-01  0.88720359286E+00  0.88000000000E+00 0. -1.
        -11    1    4    4    0    0 -0.71680000695E-02  0.31742600194E-01  0.56238280647E-01  0.64976751406E-01  0.51100000000E-03 0. -1.
         11    1    4    4    0    0  0.10558421642E-01  0.30730521705E-01  0.60736481988E-01  0.68884153454E-01  0.51100000000E-03 0.  1.
</event>
<event>
 8    1  0.1066842E+005  0.1043930E+01  0.7957747E-01            NaN
         13   -1    0    0    0    0  0.00000000000E+00  0.00000000000E+00  0.74505805969E-08  0.10566000000E+00  0.10566000000E+00 0. -1.
     999900   -1    0    0    0    0 -0.00000000000E+00 -0.00000000000E+00 -0.74505805969E-08  0.93827000000E+00  0.93827000000E+00 0. -1.
     999902    2    1    2    0    0  0.19015972879E-01 -0.40664950775E-02  0.14673123311E-01  0.10195692908E+01  0.10192782223E+01 0.  0.
     999903    2    3    3    0    0  0.83549063006E-01 -0.73489685033E-01 -0.65662584959E-01  0.13084102799E+00  0.20654776864E-01 0.  0.
         14    1    1    2    0    0 -0.19015972879E-01  0.40664950775E-02 -0.14673123311E-01  0.24360709236E-01  0.00000000000E+00 0. -1.
     999901    1    3    3    0    0 -0.64533090127E-01  0.69423189956E-01  0.80335708270E-01  0.88872826277E+00  0.88000000000E+00 0.  1.
        -11    1    4    4    0    0  0.75422753883E-02 -0.62599886704E-02 -0.13651142135E-01  0.16813333363E-01  0.51100000000E-03 0.  1.
         11    1    4    4    0    0  0.76006787618E-01 -0.67229696363E-01 -0.52011442824E-01  0.11402769463E+00  0.51100000000E-03 0. -1.
</event>
<event>
 8    1  0.1066842E+005  0.1043930E+01  0.7957747E-01            NaN
         13   -1    0    0    0    0  0.00000000000E+00  0.00000000000E+00  0.74505805969E-08  0.10566000000E+00  0.10566000000E+00 0. -1.
     999900   -1    0    0    0    0 -0.00000000000E+00 -0.00000000000E+00 -0.74505805969E-08  0.93827000000E+00  0.93827000000E+00 0. -1.
     999902    2    1    2    0    0  0.19197465872E-01 -0.11417944349E-01  0.36701417945E-02  0.10212941415E+01  0.10210432613E+01 0.  0.
     999903    2    3    3    0    0  0.45505982113E-01 -0.31136732204E-01  0.11958120220E+00  0.13308451391E+00  0.19275202301E-01 0.  0.
         14    1    1    2    0    0 -0.19197465872E-01  0.11417944349E-01 -0.36701417945E-02  0.22635858496E-01  0.00000000000E+00 0. -1.
     999901    1    3    3    0    0 -0.26308516241E-01  0.19718787855E-01 -0.11591106040E+00  0.88820962759E+00  0.88000000000E+00 0. -1.
        -11    1    4    4    0    0  0.24767480766E-01 -0.54015022839E-02  0.51564671555E-01  0.57461124284E-01  0.51100000000E-03 0.  1.
         11    1    4    4    0    0  0.20738501346E-01 -0.25735229920E-01  0.68016530644E-01  0.75623389629E-01  0.51100000000E-03 0. -1.
</event>
<event>
 8    1  0.1066842E+005  0.1043930E+01  0.7957747E-01            NaN
         13   -1    0    0    0    0  0.00000000000E+00  0.00000000000E+00  0.74505805969E-08  0.10566000000E+00  0.10566000000E+00 0. -1.
     999900   -1    0    0    0    0 -0.00000000000E+00 -0.00000000000E+00 -0.74505805969E-08  0.93827000000E+00  0.93827000000E+00 0.  1.
     999902    2    1    2    0    0  0.47076461588E-02 -0.18737341542E-01  0.14356208909E-01  0.10198602963E+01  0.10195762225E+01 0.  0.
     999903    2    3    3    0    0  0.10616384982E+00 -0.52287557369E-01 -0.52225095137E-01  0.13089907767E+00  0.20058821178E-01 0.  0.
         14    1    1    2    0    0 -0.47076461588E-02  0.18737341542E-01 -0.14356208909E-01  0.24069703668E-01  0.00000000000E+00 0.  1.
     999901    1    3    3    0    0 -0.10145620366E+00  0.33550215826E-01  0.66581304046E-01  0.88896121867E+00  0.88000000000E+00 0.  1.
        -11    1    4    4    0    0  0.49188595135E-01 -0.13336412170E-01 -0.23928643740E-01  0.56304696902E-01  0.51100000000E-03 0.  1.
         11    1    4    4    0    0  0.56975254687E-01 -0.38951145199E-01 -0.28296451397E-01  0.74594380764E-01  0.51100000000E-03 0. -1.
</event>
<event>
 8    1  0.1066842E+005  0.1043930E+01  0.7957747E-01            NaN
         13   -1    0    0    0    0  0.00000000000E+00  0.00000000000E+00  0.74505805969E-08  0.10566000000E+00  0.10566000000E+00 0.  1.
     999900   -1    0    0    0    0 -0.00000000000E+00 -0.00000000000E+00 -0.74505805969E-08  0.93827000000E+00  0.93827000000E+00 0. -1.
     999902    2    1    2    0    0 -0.65159594935E-02  0.35574767403E-02 -0.22442589860E-01  0.10202914043E+01  0.10200175324E+01 0.  0.
     999903    2    3    3    0    0  0.59700412642E-01 -0.25968321487E-01 -0.11365032462E+00  0.13261171452E+00  0.20759998835E-01 0.  0.
         14    1    1    2    0    0  0.65159594935E-02 -0.35574767403E-02  0.22442589860E-01  0.23638595738E-01  0.00000000000E+00 0.  1.
     999901    1    3    3    0    0 -0.66216372136E-01  0.29525798227E-01  0.91207734758E-01  0.88767968974E+00  0.88000000000E+00 0.  1.
        -11    1    4    4    0    0  0.20531723404E-01 -0.16959690057E-01 -0.32239901196E-01  0.41819314950E-01  0.51100000000E-03 0.  1.
         11    1    4    4    0    0  0.39168689238E-01 -0.90086314297E-02 -0.81410423422E-01  0.90792399570E-01  0.51100000000E-03 0. -1.
</event>
<event>
 8    1  0.1066842E+005  0.1043930E+01  0.7957747E-01            NaN
         13   -1    0    0    0    0  0.00000000000E+00  0.00000000000E+00  0.74505805969E-08  0.10566000000E+00  0.10566000000E+00 0.  1.
     999900   -1    0    0    0    0 -0.00000000000E+00 -0.00000000000E+00 -0.74505805969E-08  0.93827000000E+00  0.93827000000E+00 0.  1.
     999902    2    1    2    0    0  0.23101649481E-01  0.40759255473E-02 -0.11844881869E-02  0.10204416542E+01  0.10201712931E+01 0.  0.
     999903    2    3    3    0    0 -0.11639062558E+00 -0.48184168561E-01 -0.88427557334E-02  0.12789033278E+00  0.20229954688E-01 0.  0.
         14    1    1    2    0    0 -0.23101649481E-01 -0.40759255473E-02  0.11844881869E-02  0.23488345835E-01  0.00000000000E+00 0.  1.
     999901    1    3    3    0    0  0.13949227506E+00  0.52260094108E-01  0.76582675465E-02  0.89255132138E+00  0.88000000000E+00 0. -1.
        -11    1    4    4    0    0 -0.91886032472E-01 -0.46262378697E-01 -0.49161656203E-02  0.10299359423E+00  0.51100000000E-03 0.  1.
         11    1    4    4    0    0 -0.24504593112E-01 -0.19217898634E-02 -0.39265901131E-02  0.24896738557E-01  0.51100000000E-03 0. -1.
</event>
<event>
 8    1  0.1066842E+005  0.1043930E+01  0.7957747E-01            NaN
         13   -1    0    0    0    0  0.00000000000E+00  0.00000000000E+00  0.74505805969E-08  0.10566000000E+00  0.10566000000E+00 0. -1.
     999900   -1    0    0    0    0 -0.00000000000E+00 -0.00000000000E+00 -0.74505805969E-08  0.93827000000E+00  0.93827000000E+00 0.  1.
     999902    2    1    2    0    0 -0.10518392280E-01  0.13090193084E-01 -0.16826995404E-01  0.10201573791E+01  0.10198803560E+01 0.  0.
     999903    2    3    3    0    0  0.87081746354E-01  0.90435434672E-01  0.28223348632E-01  0.13024861580E+00  0.20158028632E-01 0.  0.
         14    1    1    2    0    0  0.10518392280E-01 -0.13090193084E-01  0.16826995404E-01  0.23772620921E-01  0.00000000000E+00 0. -1.
     999901    1    3    3    0    0 -0.97600138634E-01 -0.77345241587E-01 -0.45050344036E-01  0.88990876328E+00  0.88000000000E+00 0. -1.
        -11    1    4    4    0    0  0.56869768867E-01  0.71944924546E-01  0.21401013620E-01  0.94172752343E-01  0.51100000000E-03 0.  1.
         11    1    4    4    0    0  0.30211977487E-01  0.18490510126E-01  0.68223350123E-02  0.36075863460E-01  0.51100000000E-03 0. -1.
</event>
<event>
 8    1  0.1066842E+005  0.1043930E+01  0.7957747E-01            NaN
         13   -1    0    0    0    0  0.00000000000E+00  0.00000000000E+00  0.74505805969E-08  0.10566000000E+00  0.10566000000E+00 0.  1.
     999900   -1    0    0    0    0 -0.00000000000E+00 -0.00000000000E+00 -0.74505805969E-08  0.93827000000E+00  0.93827000000E+00 0.  1.
     999902    2    1    2    0    0 -0.16517246870E-01  0.11002782611E-01  0.12980476307E-01  0.10202155859E+01  0.10199399337E+01 0.  0.
     999903    2    3    3    0    0  0.26442896618E-01  0.84002192059E-01 -0.93169991694E-01  0.12979859959E+00  0.20283837195E-01 0.  0.
         14    1    1    2    0    0  0.16517246870E-01 -0.11002782611E-01 -0.12980476307E-01  0.23714414067E-01  0.00000000000E+00 0. -1.
     999901    1    3    3    0    0 -0.42960143489E-01 -0.72999409448E-01  0.10615046800E+00  0.89041698634E+00  0.88000000000E+00 0. -1.
        -11    1    4    4    0    0  0.19239017342E-01  0.73412389337E-01 -0.69633446537E-01  0.10299804219E+00  0.51100000000E-03 0.  1.
         11    1    4    4    0    0  0.72038792764E-02  0.10589802722E-01 -0.23536545158E-01  0.26800557406E-01  0.51100000000E-03 0. -1.
</event>
<event>
 8    1  0.1066842E+005  0.1043930E+01  0.7957747E-01            NaN
         13   -1    0    0    0    0  0.00000000000E+00  0.00000000000E+00  0.74505805969E-08  0.10566000000E+00  0.10566000000E+00 0. -1.
     999900   -1    0    0    0    0 -0.00000000000E+00 -0.00000000000E+00 -0.74505805969E-08  0.93827000000E+00  0.93827000000E+00 0.  1.
     999902    2    1    2    0    0 -0.14016516002E-01  0.18517258977E-01 -0.30323575817E-02  0.10205089242E+01  0.10202401274E+01 0.  0.
     999903    2    3    3    0    0  0.10872459240E+00 -0.60290316340E-01 -0.24552928369E-01  0.12824262502E+00  0.19681599129E-01 0.  0.
         14    1    1    2    0    0  0.14016516002E-01 -0.18517258977E-01  0.30323575817E-02  0.23421075837E-01  0.00000000000E+00 0.  1.
     999901    1    3    3    0    0 -0.12274110840E+00  0.78807575317E-01  0.21520570788E-01  0.89226629914E+00  0.88000000000E+00 0.  1.
        -11    1    4    4    0    0  0.87731998702E-01 -0.50479398005E-01 -0.12123969633E-01  0.10194275344E+00  0.51100000000E-03 0. -1.
         11    1    4    4    0    0  0.20992593696E-01 -0.98109183348E-02 -0.12428958737E-01  0.26299871576E-01  0.51100000000E-03 0.  1.
</event>
<event>
 8    1  0.1066842E+005  0.1043930E+01  0.7957747E-01            NaN
         13   -1    0    0    0    0  0.00000000000E+00  0.00000000000E+00  0.74505805969E-08  0.10566000000E+00  0.10566000000E+00 0. -1.
     999900   -1    0    0    0    0 -0.00000000000E+00 -0.00000000000E+00 -0.74505805969E-08  0.93827000000E+00  0.93827000000E+00 0. -1.
     999902    2    1    2    0    0  0.14084758489E-01  0.60160677910E-02  0.17780420188E-01  0.10204626432E+01  0.10201927707E+01 0.  0.
     999903    2    3    3    0    0  0.55998959989E-01 -0.11576903616E+00 -0.11199434151E-01  0.13061532832E+00  0.19914402192E-01 0.  0.
         14    1    1    2    0    0 -0.14084758489E-01 -0.60160677910E-02 -0.17780420188E-01  0.23467356805E-01  0.00000000000E+00 0. -1.
     999901    1    3    3    0    0 -0.41914201500E-01  0.12178510395E+00  0.28979854339E-01  0.88984731487E+00  0.88000000000E+00 0.  1.
        -11    1    4    4    0    0  0.39833930096E-01 -0.59833825915E-01 -0.74703890727E-02  0.72269610102E-01  0.51100000000E-03 0. -1.
         11    1    4    4    0    0  0.16165029893E-01 -0.55935210242E-01 -0.37290450782E-02  0.58345718218E-01  0.51100000000E-03 0.  1.
</event>
<event>
 8    1  0.1066842E+005  0.1043930E+01  0.7957747E-01            NaN
         13   -1    0    0    0    0  0.00000000000E+00  0.00000000000E+00  0.74505805969E-08  0.10566000000E+00  0.10566000000E+00 0. -1.
     999900   -1    0    0    0    0 -0.00000000000E+00 -0.00000000000E+00 -0.74505805969E-08  0.93827000000E+00  0.93827000000E+00 0. -1.
     999902    2    1    2    0    0 -0.50013603191E-02  0.14983688454E-01 -0.18036755861E-01  0.10199539893E+01  0.10196721489E+01 0.  0.
     999903    2    3    3    0    0  0.20623454738E-01 -0.57242874132E-01  0.11002747100E+00  0.12738816338E+00  0.20484781453E-01 0.  0.
         14    1    1    2    0    0  0.50013603191E-02 -0.14983688454E-01  0.18036755861E-01  0.23976010651E-01  0.00000000000E+00 0. -1.
     999901    1    3    3    0    0 -0.25624815057E-01  0.72226562586E-01 -0.12806422686E+00  0.89256582597E+00  0.88000000000E+00 0.  1.
        -11    1    4    4    0    0  0.55331161298E-02 -0.38698664096E-01  0.55915592152E-01  0.68227681652E-01  0.51100000000E-03 0. -1.
         11    1    4    4    0    0  0.15090338608E-01 -0.18544210036E-01  0.54111878844E-01  0.59160481727E-01  0.51100000000E-03 0.  1.
</event>
<event>
 8    1  0.1066842E+005  0.1043930E+01  0.7957747E-01            NaN
         13   -1    0    0    0    0  0.00000000000E+00  0.00000000000E+00  0.74505805969E-08  0.10566000000E+00  0.10566000000E+00 0. -1.
     999900   -1    0    0    0    0 -0.00000000000E+00 -0.00000000000E+00 -0.74505805969E-08  0.93827000000E+00  0.93827000000E+00 0. -1.
     999902    2    1    2    0    0 -0.45574086226E-02  0.16154863311E-01 -0.17032703100E-01  0.10200163521E+01  0.10197359933E+01 0.  0.
     999903    2    3    3    0    0 -0.22319139129E-01 -0.91384054077E-01 -0.88210371692E-01  0.13043984703E+00  0.19603436161E-01 0.  0.
         14    1    1    2    0    0  0.45574086226E-02 -0.16154863311E-01  0.17032703100E-01  0.23913647920E-01  0.00000000000E+00 0. -1.
     999901    1    3    3    0    0  0.17761730507E-01  0.10753891739E+00  0.71177668592E-01  0.88957650505E+00  0.88000000000E+00 0.  1.
        -11    1    4    4    0    0 -0.48591480067E-02 -0.34111783375E-01 -0.44615830175E-01  0.56374271681E-01  0.51100000000E-03 0.  1.
         11    1    4    4    0    0 -0.17459991123E-01 -0.57272270702E-01 -0.43594541517E-01  0.74065575353E-01  0.51100000000E-03 0. -1.
</event>
<event>
 8    1  0.1066842E+005  0.1043930E+01  0.7957747E-01            NaN
         13   -1    0    0    0    0  0.00000000000E+00  0.00000000000E+00  0.74505805969E-08  0.10566000000E+00  0.10566000000E+00 0.  1.
     999900   -1    0    0    0    0 -0.00000000000E+00 -0.00000000000E+00 -0.74505805969E-08  0.93827000000E+00  0.93827000000E+00 0. -1.
     999902    2    1    2    0    0 -0.21646830505E-01  0.91878191185E-02 -0.22478034429E-02  0.10203068353E+01  0.10200333250E+01 0.  0.
     999903    2    3    3    0    0 -0.12621970397E+00 -0.31521923911E-01 -0.18924190381E-01  0.13302397682E+00  0.20302907878E-01 0.  0.
         14    1    1    2    0    0  0.21646830505E-01 -0.91878191185E-02  0.22478034429E-02  0.23623164720E-01  0.00000000000E+00 0.  1.
     999901    1    3    3    0    0  0.10457287347E+00  0.40709743030E-01  0.16676386938E-01  0.88728285846E+00  0.88000000000E+00 0.  1.
        -11    1    4    4    0    0 -0.33137505791E-01 -0.12060817495E-01 -0.13532748452E-01  0.37775044810E-01  0.51100000000E-03 0.  1.
         11    1    4    4    0    0 -0.93082198182E-01 -0.19461106416E-01 -0.53914419289E-02  0.95248932006E-01  0.51100000000E-03 0. -1.
</event>
<event>
 8    1  0.1066842E+005  0.1043930E+01  0.7957747E-01            NaN
         13   -1    0    0    0    0  0.00000000000E+00  0.00000000000E+00  0.74505805969E-08  0.10566000000E+00  0.10566000000E+00 0.  1.
     999900   -1    0    0    0    0 -0.00000000000E+00 -0.00000000000E+00 -0.74505805969E-08  0.93827000000E+00  0.93827000000E+00 0. -1.
     999902    2    1    2    0    0  0.59910379424E-02  0.21658749537E-01 -0.86607370109E-02  0.10198467624E+01  0.10195623652E+01 0.  0.
     999903    2    3    3    0    0  0.47314940961E-02 -0.45458121823E-01  0.11826366786E+00  0.12821002841E+00  0.19044379039E-01 0.  0.
         14    1    1    2    0    0 -0.59910379424E-02 -0.21658749537E-01  0.86607370109E-02  0.24083237588E-01  0.00000000000E+00 0. -1.
     999901    1    3    3    0    0  0.12595438463E-02  0.67116871360E-01 -0.12692440487E+00  0.89163673400E+00  0.88000000000E+00 0. -1.
        -11    1    4    4    0    0  0.49745790429E-02 -0.84941704244E-02  0.45943435133E-01  0.46988910614E-01  0.51100000000E-03 0.  1.
         11    1    4    4    0    0 -0.24308494677E-03 -0.36963951398E-01  0.72320232727E-01  0.81221117795E-01  0.51100000000E-03 0. -1.
</event>
<event>
 7    1  0.1066842E+005  0.1043930E+01  0.7957747E-01            NaN
         13   -1    0    0    0    0  0.00000000000E+00  0.00000000000E+00  0.74505805969E-08  0.10566000000E+00  0.10566000000E+00 0. -1.
     999900   -1    0    0    0    0 -0.00000000000E+00 -0.00000000000E+00 -0.74505805969E-08  0.93827000000E+00  0.93827000000E+00 0. -1.
     999902    2    1    2    0    0  0.17052043618E-01 -0.89546279278E-02 -0.14681160537E-01  0.10197123612E+01  0.10194247425E+01 0.  0.
         14    1    1    2    0    0 -0.17052043618E-01  0.89546279278E-02  0.14681160537E-01  0.24217638770E-01  0.00000000000E+00 0.  1.
     999901    1    3    3    0    0  0.68527784346E-01 -0.42106949661E-01 -0.12046206226E+00  0.89184088316E+00  0.88000000000E+00 0. -1.
        -11    1    3    3    0    0 -0.54029015736E-02 -0.37720037113E-03  0.41966177804E-01  0.42317311186E-01  0.51100000000E-03 0.  1.
         11    1    3    3    0    0 -0.46072839154E-01  0.33529522104E-01  0.63814723923E-01  0.85554166880E-01  0.51100000000E-03 0. -1.
</event>
<event>
 8    1  0.1066842E+005  0.1043930E+01  0.7957747E-01            NaN
         13   -1    0    0    0    0  0.00000000000E+00  0.00000000000E+00  0.74505805969E-08  0.10566000000E+00  0.10566000000E+00 0.  1.
     999900   -1    0    0    0    0 -0.00000000000E+00 -0.00000000000E+00 -0.74505805969E-08  0.93827000000E+00  0.93827000000E+00 0. -1.
     999902    2    1    2    0    0  0.12821079510E-01  0.66513716785E-02  0.18992445539E-01  0.10200692831E+01  0.10197901786E+01 0.  0.
     999903    2    3    3    0    0 -0.40298657804E-02  0.10325435168E+00 -0.72158111021E-01  0.12994316051E+00  0.31634332875E-01 0.  0.
         14    1    1    2    0    0 -0.12821079510E-01 -0.66513716785E-02 -0.18992445539E-01  0.23860716933E-01  0.00000000000E+00 0. -1.
     999901    1    3    3    0    0  0.16850945290E-01 -0.96602980005E-01  0.91150556560E-01  0.89012612256E+00  0.88000000000E+00 0.  1.
        -11    1    4    4    0    0 -0.16255251038E-01  0.38627214119E-01 -0.22828922673E-01  0.47725419729E-01  0.51100000000E-03 0. -1.
         11    1    4    4    0    0  0.12225385257E-01  0.64627137564E-01 -0.49329188348E-01  0.82217740777E-01  0.51100000000E-03 0.  1.
</event>
<event>
 8    1  0.1066842E+005  0.1043930E+01  0.7957747E-01            NaN
         13   -1    0    0    0    0  0.00000000000E+00  0.00000000000E+00  0.74505805969E-08  0.10566000000E+00  0.10566000000E+00 0.  1.
     999900   -1    0    0    0    0 -0.00000000000E+00 -0.00000000000E+00 -0.74505805969E-08  0.93827000000E+00  0.93827000000E+00 0.  1.
     999902    2    1    2    0    0 -0.15341008529E-01 -0.16714667478E-01 -0.77735403533E-02  0.10199476194E+01  0.10196656274E+01 0.  0.
     999903    2    3    3    0    0  0.88008757353E-01 -0.82898068578E-01 -0.45243419521E-01  0.13064148054E+00  0.20064851956E-01 0.  0.
         14    1    1    2    0    0  0.15341008529E-01  0.16714667478E-01  0.77735403533E-02  0.23982380641E-01  0.00000000000E+00 0.  1.
     999901    1    3    3    0    0 -0.10334976588E+00  0.66183401100E-01  0.37469879168E-01  0.88930613881E+00  0.88000000000E+00 0. -1.
        -11    1    4    4    0    0  0.42058457403E-01 -0.49507031671E-01 -0.16725198484E-01  0.67080946694E-01  0.51100000000E-03 0. -1.
         11    1    4    4    0    0  0.45950299949E-01 -0.33391036906E-01 -0.28518221037E-01  0.63560533850E-01  0.51100000000E-03 0.  1.
</event>
<event>
 8    1  0.1066842E+005  0.1043930E+01  0.7957747E-01            NaN
         13   -1    0    0    0    0  0.00000000000E+00  0.00000000000E+00  0.74505805969E-08  0.10566000000E+00  0.10566000000E+00 0. -1.
     999900   -1    0    0    0    0 -0.00000000000E+00 -0.00000000000E+00 -0.74505805969E-08  0.93827000000E+00  0.93827000000E+00 0. -1.
     999902    2    1    2    0    0  0.91150763430E-02 -0.57730951215E-03 -0.23004357616E-01  0.10191788713E+01  0.10188782819E+01 0.  0.
     999903    2    3    3    0    0  0.72991746546E-01  0.94334145259E-01 -0.50600914667E-01  0.13134443672E+00  0.21544894237E-01 0.  0.
         14    1    1    2    0    0 -0.91150763430E-02  0.57730951215E-03  0.23004357616E-01  0.24751128708E-01  0.00000000000E+00 0. -1.
     999901    1    3    3    0    0 -0.63876670203E-01 -0.94911454771E-01  0.27596557051E-01  0.88783443457E+00  0.88000000000E+00 0.  1.
        -11    1    4    4    0    0  0.19585843553E-01  0.34264129056E-01 -0.76342272807E-02  0.40201720794E-01  0.51100000000E-03 0.  1.
         11    1    4    4    0    0  0.53405902994E-01  0.60070016203E-01 -0.42966687386E-01  0.91142715930E-01  0.51100000000E-03 0. -1.
</event>
<event>
 8    1  0.1066842E+005  0.1043930E+01  0.7957747E-01            NaN
         13   -1    0    0    0    0  0.00000000000E+00  0.00000000000E+00  0.74505805969E-08  0.10566000000E+00  0.10566000000E+00 0. -1.
     999900   -1    0    0    0    0 -0.00000000000E+00 -0.00000000000E+00 -0.74505805969E-08  0.93827000000E+00  0.93827000000E+00 0. -1.
     999902    2    1    2    0    0  0.65035710321E-02  0.15761534366E-01  0.15765687409E-01  0.10207076121E+01  0.10204434085E+01 0.  0.
     999903    2    3    3    0    0 -0.75950802792E-01 -0.42388185002E-01  0.96502245950E-01  0.13127042738E+00  0.18813797021E-01 0.  0.
         14    1    1    2    0    0 -0.65035710321E-02 -0.15761534366E-01 -0.15765687409E-01  0.23222387931E-01  0.00000000000E+00 0.  1.
     999901    1    3    3    0    0  0.82454373824E-01  0.58149719367E-01 -0.80736558540E-01  0.88943718469E+00  0.88000000000E+00 0. -1.
        -11    1    4    4    0    0 -0.19152821797E-01 -0.16276553082E-01  0.38570979015E-01  0.46040615832E-01  0.51100000000E-03 0. -1.
         11    1    4    4    0    0 -0.56797980994E-01 -0.26111631920E-01  0.57931266935E-01  0.85229811546E-01  0.51100000000E-03 0.  1.
</event>
<event>
 8    1  0.1066842E+005  0.1043930E+01  0.7957747E-01            NaN
         13   -1    0    0    0    0  0.00000000000E+00  0.00000000000E+00  0.74505805969E-08  0.10566000000E+00  0.10566000000E+00 0. -1.
     999900   -1    0    0    0    0 -0.00000000000E+00 -0.00000000000E+00 -0.74505805969E-08  0.93827000000E+00  0.93827000000E+00 0.  1.
     999902    2    1    2    0    0 -0.16271649108E-01  0.82404991217E-02 -0.12297381519E-01  0.10219323187E+01  0.10216955349E+01 0.  0.
     999903    2    3    3    0    0 -0.83119453326E-01  0.79242252619E-01  0.64575128524E-01  0.13321455657E+00  0.19697531205E-01 0.  0.
         14    1    1    2    0    0  0.16271649108E-01 -0.82404991217E-02  0.12297381519E-01  0.21997681303E-01  0.00000000000E+00 0. -1.
     999901    1    3    3    0    0  0.66847804219E-01 -0.71001753498E-01 -0.76872510043E-01  0.88871776213E+00  0.88000000000E+00 0.  1.
        -11    1    4    4    0    0 -0.53416344540E-01  0.37792053591E-01  0.38805420300E-01  0.76076717491E-01  0.51100000000E-03 0. -1.
         11    1    4    4    0    0 -0.29703108787E-01  0.41450199029E-01  0.25769708224E-01  0.57137839074E-01  0.51100000000E-03 0.  1.
</event>
<event>
 8    1  0.1066842E+005  0.1043930E+01  0.7957747E-01            NaN
         13   -1    0    0    0    0  0.00000000000E+00  0.00000000000E+00  0.74505805969E-08  0.10566000000E+00  0.10566000000E+00 0.  1.
     999900   -1    0    0    0    0 -0.00000000000E+00 -0.00000000000E+00 -0.74505805969E-08  0.93827000000E+00  0.93827000000E+00 0.  1.
     999902    2    1    2    0    0  0.82216419604E-02  0.29756360366E-02  0.21846173026E-01  0.10203990612E+01  0.10201277072E+01 0.  0.
     999903    2    3    3    0    0 -0.59975452986E-01  0.37576310612E-01  0.11090090479E+00  0.13260471804E+00  0.16612238953E-01 0.  0.
         14    1    1    2    0    0 -0.82216419604E-02 -0.29756360366E-02 -0.21846173026E-01  0.23530938830E-01  0.00000000000E+00 0. -1.
     999901    1    3    3    0    0  0.68197094946E-01 -0.34600674576E-01 -0.89054731767E-01  0.88779434313E+00  0.88000000000E+00 0. -1.
        -11    1    4    4    0    0 -0.25059752500E-01  0.16736747718E-01  0.32754892752E-01  0.44511279916E-01  0.51100000000E-03 0. -1.
         11    1    4    4    0    0 -0.34915700486E-01  0.20839562895E-01  0.78146012041E-01  0.88093438126E-01  0.51100000000E-03 0.  1.
</event>
<event>
 8    1  0.1066842E+005  0.1043930E+01  0.7957747E-01            NaN
         13   -1    0    0    0    0  0.00000000000E+00  0.00000000000E+00  0.74505805969E-08  0.10566000000E+00  0.10566000000E+00 0.  1.
     999900   -1    0    0    0    0 -0.00000000000E+00 -0.00000000000E+00 -0.74505805969E-08  0.93827000000E+00  0.93827000000E+00 0.  1.
     999902    2    1    2    0    0 -0.25870528066E-03 -0.14781006330E-01  0.19237248538E-01  0.10196685737E+01  0.10193799014E+01 0.  0.
     999903    2    3    3    0    0  0.73291702583E-02 -0.55108990443E-01  0.11955686925E+00  0.13301872820E+00  0.17590324109E-01 0.  0.
         14    1    1    2    0    0  0.25870528066E-03  0.14781006330E-01 -0.19237248538E-01  0.24261426336E-01  0.00000000000E+00 0. -1.
     999901    1    3    3    0    0 -0.75878755389E-02  0.40327984113E-01 -0.10031962072E+00  0.88664984546E+00  0.88000000000E+00 0.  1.
        -11    1    4    4    0    0  0.96080980516E-02 -0.16882297812E-01  0.31767668655E-01  0.37239406820E-01  0.51100000000E-03 0. -1.
         11    1    4    4    0    0 -0.22789277934E-02 -0.38226692631E-01  0.87789200599E-01  0.95779321381E-01  0.51100000000E-03 0.  1.
</event>
<event>
 8    1  0.1066842E+005  0.1043930E+01  0.7957747E-01            NaN
         13   -1    0    0    0    0  0.00000000000E+00  0.00000000000E+00  0.74505805969E-08  0.10566000000E+00  0.10566000000E+00 0. -1.
     999900   -1    0    0    0    0 -0.00000000000E+00 -0.00000000000E+00 -0.74505805969E-08  0.93827000000E+00  0.93827000000E+00 0.  1.
     999902    2    1    2    0    0  0.58840592845E-02 -0.20361601617E-01  0.85417136230E-02  0.10210787890E+01  0.10208230578E+01 0.  0.
     999903    2    3    3    0    0  0.73331828152E-01  0.10131086150E+00  0.29160499533E-01  0.12991184381E+00  0.19629181116E-01 0.  0.
         14    1    1    2    0    0 -0.58840592845E-02  0.20361601617E-01 -0.85417136230E-02  0.22851211033E-01  0.00000000000E+00 0.  1.
     999901    1    3    3    0    0 -0.67447768867E-01 -0.12167246312E+00 -0.20618785910E-01  0.89116694516E+00  0.88000000000E+00 0.  1.
        -11    1    4    4    0    0  0.23983010332E-01  0.20749506675E-01  0.28744530166E-02  0.31847298363E-01  0.51100000000E-03 0. -1.
         11    1    4    4    0    0  0.49348817819E-01  0.80561354826E-01  0.26286046516E-01  0.98064545448E-01  0.51100000000E-03 0.  1.
</event>
<event>
 8    1  0.1066842E+005  0.1043930E+01  0.7957747E-01            NaN
         13   -1    0    0    0    0  0.00000000000E+00  0.00000000000E+00  0.74505805969E-08  0.10566000000E+00  0.10566000000E+00 0. -1.
     999900   -1    0    0    0    0 -0.00000000000E+00 -0.00000000000E+00 -0.74505805969E-08  0.93827000000E+00  0.93827000000E+00 0.  1.
     999902    2    1    2    0    0 -0.17331227548E-01  0.15967240153E-01 -0.24299528709E-02  0.10202397303E+01  0.10199646457E+01 0.  0.
     999903    2    3    3    0    0 -0.10128981162E+00 -0.80159275789E-01 -0.84974896256E-02  0.13101188218E+00  0.20168552484E-01 0.  0.
         14    1    1    2    0    0  0.17331227548E-01 -0.15967240153E-01  0.24299528709E-02  0.23690269677E-01  0.00000000000E+00 0. -1.
     999901    1    3    3    0    0  0.83958584074E-01  0.96126515942E-01  0.60675367547E-02  0.88922784814E+00  0.88000000000E+00 0. -1.
        -11    1    4    4    0    0 -0.76298893498E-01 -0.48571448713E-01 -0.64502765386E-02  0.90678409599E-01  0.51100000000E-03 0. -1.
         11    1    4    4    0    0 -0.24990918125E-01 -0.31587827077E-01 -0.20472130871E-02  0.40333472583E-01  0.51100000000E-03 0.  1.
</event>
<event>
 8    1  0.1066842E+005  0.1043930E+01  0.7957747E-01            NaN
         13   -1    0    0    0    0  0.00000000000E+00  0.00000000000E+00  0.74505805969E-08  0.10566000000E+00  0.10566000000E+00 0. -1.
     999900   -1    0    0    0    0 -0.00000000000E+00 -0.00000000000E+00 -0.74505805969E-08  0.93827000000E+00  0.93827000000E+00 0.  1.
     999902    2    1    2    0    0  0.58586101255E-02 -0.94839537114E-02 -0.21545558455E-01  0.10196713978E+01  0.10193827935E+01 0.  0.
     999903    2    3    3    0    0  0.49268752177E-01  0.11748695165E+00 -0.94905471628E-02  0.12941785273E+00  0.20695805682E-01 0.  0.
         14    1    1    2    0    0 -0.58586101255E-02  0.94839537114E-02  0.21545558455E-01  0.24258602180E-01  0.00000000000E+00 0. -1.
     999901    1    3    3    0    0 -0.43410142051E-01 -0.12697090536E+00 -0.12055011292E-01  0.89025354509E+00  0.88000000000E+00 0. -1.
        -11    1    4    4    0    0  0.35907884570E-01  0.88816204463E-01  0.18272488376E-02  0.95819070695E-01  0.51100000000E-03 0.  1.
         11    1    4    4    0    0  0.13360867606E-01  0.28670747183E-01 -0.11317796000E-01  0.33598782039E-01  0.51100000000E-03 0. -1.
</event>
<event>
 8    1  0.1066842E+005  0.1043930E+01  0.7957747E-01            NaN
         13   -1    0    0    0    0  0.00000000000E+00  0.00000000000E+00  0.74505805969E-08  0.10566000000E+00  0.10566000000E+00 0.  1.
     999900   -1    0    0    0    0 -0.00000000000E+00 -0.00000000000E+00 -0.74505805969E-08  0.93827000000E+00  0.93827000000E+00 0.  1.
     999902    2    1    2    0    0  0.21593436990E-01 -0.25503590079E-02 -0.13969722157E-01  0.10180855811E+01  0.10177574939E+01 0.  0.
     999903    2    3    3    0    0  0.12867166929E+00 -0.25549135822E-02 -0.18163671765E-01  0.13158496796E+00  0.20536766060E-01 0.  0.
         14    1    1    2    0    0 -0.21593436990E-01  0.25503590079E-02  0.13969722157E-01  0.25844418919E-01  0.00000000000E+00 0. -1.
     999901    1    3    3    0    0 -0.10707823230E+00  0.45545742574E-05  0.41939496077E-02  0.88650061312E+00  0.88000000000E+00 0.  1.
        -11    1    4    4    0    0  0.44494055781E-01 -0.78345990819E-02  0.56974880984E-03  0.45185038203E-01  0.51100000000E-03 0. -1.
         11    1    4    4    0    0  0.84177613506E-01  0.52796854997E-02 -0.18733420574E-01  0.86399929756E-01  0.51100000000E-03 0.  1.
</event>
<event>
 8    1  0.1066842E+005  0.1043930E+01  0.7957747E-01            NaN
         13   -1    0    0    0    0  0.00000000000E+00  0.00000000000E+00  0.74505805969E-08  0.10566000000E+00  0.10566000000E+00 0.  1.
     999900   -1    0    0    0    0 -0.00000000000E+00 -0.00000000000E+00 -0.74505805969E-08  0.93827000000E+00  0.93827000000E+00 0.  1.
     999902    2    1    2    0    0  0.16087424977E-01 -0.40927892611E-02 -0.16532523227E-01  0.10205018014E+01  0.10202328392E+01 0.  0.
     999903    2    3    3    0    0 -0.11320280522E+00 -0.57997718669E-01  0.97826767003E-02  0.12903436239E+00  0.19379252601E-01 0.  0.
         14    1    1    2    0    0 -0.16087424977E-01  0.40927892611E-02  0.16532523227E-01  0.23428198620E-01  0.00000000000E+00 0.  1.
     999901    1    3    3    0    0  0.12929023020E+00  0.53904929408E-01 -0.26315199928E-01  0.89146743899E+00  0.88000000000E+00 0. -1.
        -11    1    4    4    0    0 -0.43843329501E-01 -0.28801891897E-01  0.11722902651E-01  0.53753828573E-01  0.51100000000E-03 0. -1.
         11    1    4    4    0    0 -0.69359475723E-01 -0.29195826772E-01 -0.19402259511E-02  0.75280533813E-01  0.51100000000E-03 0.  1.
</event>
<event>
 8    1  0.1066842E+005  0.1043930E+01  0.7957747E-01            NaN
         13   -1    0    0    0    0  0.00000000000E+00  0.00000000000E+00  0.74505805969E-08  0.10566000000E+00  0.10566000000E+00 0. -1.
     999900   -1    0    0    0    0 -0.00000000000E+00 -0.00000000000E+00 -0.74505805969E-08  0.93827000000E+00  0.93827000000E+00 0. -1.
     999902    2    1    2    0    0  0.46286756601E-02 -0.22150983377E-01  0.24152091503E-02  0.10211720577E+01  0.10209184333E+01 0.  0.
     999903    2    3    3    0    0 -0.86110340028E-01 -0.18509458591E-01  0.95587601512E-01  0.13160591379E+00  0.20628530371E-01 0.  0.
         14    1    1    2    0    0 -0.46286756601E-02  0.22150983377E-01 -0.24152091503E-02  0.22757942310E-01  0.00000000000E+00 0.  1.
     999901    1    3    3    0    0  0.90739015688E-01 -0.36415247863E-02 -0.93172392361E-01  0.88956614390E+00  0.88000000000E+00 0. -1.
        -11    1    4    4    0    0 -0.51940710448E-01 -0.21030353931E-01  0.55536674731E-01  0.78896746127E-01  0.51100000000E-03 0. -1.
         11    1    4    4    0    0 -0.34169629581E-01  0.25208953399E-02  0.40050926781E-01  0.52709167665E-01  0.51100000000E-03 0.  1.
</event>
<event>
 8    1  0.1066842E+005  0.1043930E+01  0.7957747E-01            NaN
         13   -1    0    0    0    0  0.00000000000E+00  0.00000000000E+00  0.74505805969E-08  0.10566000000E+00  0.10566000000E+00 0. -1.
     999900   -1    0    0    0    0 -0.00000000000E+00 -0.00000000000E+00 -0.74505805969E-08  0.93827000000E+00  0.93827000000E+00 0.  1.
     999902    2    1    2    0    0  0.10145026904E-01 -0.17183339783E-02 -0.18938972828E-01  0.10223763707E+01  0.10221491498E+01 0.  0.
     999903    2    3    3    0    0  0.65119702936E-01 -0.92785692595E-01 -0.69485743822E-01  0.13453040726E+00  0.20503692882E-01 0.  0.
         14    1    1    2    0    0 -0.10145026904E-01  0.17183339783E-02  0.18938972828E-01  0.21553629261E-01  0.00000000000E+00 0. -1.
     999901    1    3    3    0    0 -0.54974676033E-01  0.91067358616E-01  0.50546770994E-01  0.88784596348E+00  0.88000000000E+00 0.  1.
        -11    1    4    4    0    0  0.28774749166E-02 -0.53585725609E-02 -0.10295508907E-01  0.11968825609E-01  0.51100000000E-03 0. -1.
         11    1    4    4    0    0  0.62242228020E-01 -0.87427120034E-01 -0.59190234915E-01  0.12256158165E+00  0.51100000000E-03 0.  1.
</event>
<event>
 8    1  0.1066842E+005  0.1043930E+01  0.7957747E-01            NaN
         13   -1    0    0    0    0  0.00000000000E+00  0.00000000000E+00  0.74505805969E-08  0.10566000000E+00  0.10566000000E+00 0.  1.
     999900   -1    0    0    0    0 -0.00000000000E+00 -0.00000000000E+00 -0.74505805969E-08  0.93827000000E+00  0.93827000000E+00 0.  1.
     999902    2    1    2    0    0  0.77919686480E-02 -0.22021656729E-01 -0.36593942323E-02  0.10202855650E+01  0.10200115562E+01 0.  0.
     999903    2    3    3    0    0 -0.81951335814E-01  0.36736554533E-01 -0.90839495149E-01  0.12949560205E+00  0.21253263072E-01 0.  0.
         14    1    1    2    0    0 -0.77919686480E-02  0.22021656729E-01  0.36593942323E-02  0.23644435004E-01  0.00000000000E+00 0.  1.
     999901    1    3    3    0    0  0.89743304462E-01 -0.58758211262E-01  0.87180100917E-01  0.89078996294E+00  0.88000000000E+00 0.  1.
        -11    1    4    4    0    0 -0.42326226144E-01  0.30240935962E-01 -0.54386128655E-01  0.75260452686E-01  0.51100000000E-03 0.  1.
         11    1    4    4    0    0 -0.39625109670E-01  0.64956185714E-02 -0.36453366494E-01  0.54235149366E-01  0.51100000000E-03 0. -1.
</event>
<event>
 8    1  0.1066842E+005  0.1043930E+01  0.7957747E-01            NaN
         13   -1    0    0    0    0  0.00000000000E+00  0.00000000000E+00  0.74505805969E-08  0.10566000000E+00  0.10566000000E+00 0. -1.
     999900   -1    0    0    0    0 -0.00000000000E+00 -0.00000000000E+00 -0.74505805969E-08  0.93827000000E+00  0.93827000000E+00 0.  1.
     999902    2    1    2    0    0  0.19543143183E-01  0.94599220836E-02  0.84738756939E-02  0.10206226805E+01  0.10203565185E+01 0.  0.
     999903    2    3    3    0    0 -0.36053098723E-01 -0.12035433058E+00 -0.20674528574E-01  0.12888711896E+00  0.19986557625E-01 0.  0.
         14    1    1    2    0    0 -0.19543143183E-01 -0.94599220836E-02 -0.84738756939E-02  0.23307319463E-01  0.00000000000E+00 0.  1.
     999901    1    3    3    0    0  0.55596241906E-01  0.12981425266E+00  0.29148404268E-01  0.89173556158E+00  0.88000000000E+00 0. -1.
        -11    1    4    4    0    0 -0.19561455781E-01 -0.51802372085E-01 -0.18360388479E-01  0.58339534554E-01  0.51100000000E-03 0. -1.
         11    1    4    4    0    0 -0.16491642943E-01 -0.68551958493E-01 -0.23141400953E-02  0.70547584407E-01  0.51100000000E-03 0.  1.
</event>
<event>
 8    1  0.1066842E+005  0.1043930E+01  0.7957747E-01            NaN
         13   -1    0    0    0    0  0.00000000000E+00  0.00000000000E+00  0.74505805969E-08  0.10566000000E+00  0.10566000000E+00 0. -1.
     999900   -1    0    0    0    0 -0.00000000000E+00 -0.00000000000E+00 -0.74505805969E-08  0.93827000000E+00  0.93827000000E+00 0.  1.
     999902    2    1    2    0    0 -0.14778826742E-01  0.14245045809E-01 -0.11801123782E-01  0.10202529737E+01  0.10199782002E+01 0.  0.
     999903    2    3    3    0    0  0.22870110645E-02 -0.11043250570E+00 -0.65192646529E-01  0.12969899482E+00  0.19266015678E-01 0.  0.
         14    1    1    2    0    0  0.14778826742E-01 -0.14245045809E-01  0.11801123782E-01  0.23677026259E-01  0.00000000000E+00 0. -1.
     999901    1    3    3    0    0 -0.17065837807E-01  0.12467755151E+00  0.53391522747E-01  0.89055397892E+00  0.88000000000E+00 0. -1.
        -11    1    4    4    0    0  0.99018952780E-02 -0.84207146564E-01 -0.50395797597E-01  0.98635128625E-01  0.51100000000E-03 0.  1.
         11    1    4    4    0    0 -0.76148842135E-02 -0.26225359140E-01 -0.14796848932E-01  0.31063866194E-01  0.51100000000E-03 0. -1.
</event>
<event>
 8    1  0.1066842E+005  0.1043930E+01  0.7957747E-01            NaN
         13   -1    0    0    0    0  0.00000000000E+00  0.00000000000E+00  0.74505805969E-08  0.10566000000E+00  0.10566000000E+00 0. -1.
     999900   -1    0    0    0    0 -0.00000000000E+00 -0.00000000000E+00 -0.74505805969E-08  0.93827000000E+00  0.93827000000E+00 0.  1.
     999902    2    1    2    0    0 -0.54897364481E-02 -0.44293202199E-02  0.24314559078E-01  0.10186129333E+01  0.10182982638E+01 0.  0.
     999903    2    3    3    0    0 -0.53027116459E-01  0.30708023220E-01  0.11503754293E+00  0.13197597534E+00  0.20716274122E-01 0.  0.
         14    1    1    2    0    0  0.54897364481E-02  0.44293202199E-02 -0.24314559078E-01  0.25317066715E-01  0.00000000000E+00 0.  1.
     999901    1    3    3    0    0  0.47537380011E-01 -0.35137343440E-01 -0.90722983848E-01  0.88663695795E+00  0.88000000000E+00 0.  1.
        -11    1    4    4    0    0 -0.70902362250E-02 -0.19053850498E-02  0.22122915706E-01  0.23314940752E-01  0.51100000000E-03 0.  1.
         11    1    4    4    0    0 -0.45936880234E-01  0.32613408269E-01  0.92914627220E-01  0.10866103458E+00  0.51100000000E-03 0. -1.
</event>
<event>
 8    1  0.1475604E+005  0.1043930E+01  0.7957747E-01            NaN
         13   -1    0    0    0    0  0.00000000000E+00  0.00000000000E+00  0.74505805969E-08  0.10566000000E+00  0.10566000000E+00 0. -1.
     999900   -1    0    0    0    0 -0.00000000000E+00 -0.00000000000E+00 -0.74505805969E-08  0.93827000000E+00  0.93827000000E+00 0. -1.
     999902    2    1    2    0    0 -0.46680912367E-02 -0.12512903833E-01  0.28828870043E-01  0.10121578804E+01  0.10116590865E+01 0.  0.
     999903    2    3    3    0    0 -0.52079541553E-01 -0.55479620862E-01  0.99890041999E-01  0.12697785655E+00  0.18843794337E-01 0.  0.
         14    1    1    2    0    0  0.46680912367E-02  0.12512903833E-01 -0.28828870043E-01  0.31772119635E-01  0.00000000000E+00 0.  1.
     999901    1    3    3    0    0  0.47411450317E-01  0.42966717029E-01 -0.71061171956E-01  0.88518002381E+00  0.88000000000E+00 0. -1.
        -11    1    4    4    0    0 -0.21669964381E-01 -0.36241613949E-01  0.49679273364E-01  0.65202248894E-01  0.51100000000E-03 0. -1.
         11    1    4    4    0    0 -0.30409577172E-01 -0.19238006914E-01  0.50210768636E-01  0.61775607660E-01  0.51100000000E-03 0.  1.
</event>
<event>
 7    1  0.1066842E+005  0.1043930E+01  0.7957747E-01            NaN
         13   -1    0    0    0    0  0.00000000000E+00  0.00000000000E+00  0.74505805969E-08  0.10566000000E+00  0.10566000000E+00 0. -1.
     999900   -1    0    0    0    0 -0.00000000000E+00 -0.00000000000E+00 -0.74505805969E-08  0.93827000000E+00  0.93827000000E+00 0.  1.
     999902    2    1    2    0    0  0.18130982994E-01 -0.12556170641E-01 -0.82383525922E-02  0.10203872640E+01  0.10201156347E+01 0.  0.
         14    1    1    2    0    0 -0.18130982994E-01  0.12556170641E-01  0.82383525922E-02  0.23542736012E-01  0.00000000000E+00 0. -1.
     999901    1    3    3    0    0  0.83708111340E-01 -0.51627995876E-01  0.96483981122E-01  0.89071974070E+00  0.88000000000E+00 0. -1.
        -11    1    3    3    0    0 -0.28520015642E-01  0.16685406135E-01 -0.41730560149E-01  0.53230581825E-01  0.51100000000E-03 0.  1.
         11    1    3    3    0    0 -0.37057112705E-01  0.22386419100E-01 -0.62991773565E-01  0.76436941462E-01  0.51100000000E-03 0. -1.
</event>
<event>
 8    1  0.1066842E+005  0.1043930E+01  0.7957747E-01            NaN
         13   -1    0    0    0    0  0.00000000000E+00  0.00000000000E+00  0.74505805969E-08  0.10566000000E+00  0.10566000000E+00 0.  1.
     999900   -1    0    0    0    0 -0.00000000000E+00 -0.00000000000E+00 -0.74505805969E-08  0.93827000000E+00  0.93827000000E+00 0.  1.
     999902    2    1    2    0    0 -0.20065089067E-01  0.14128272295E-02  0.11586305203E-01  0.10207169358E+01  0.10204529469E+01 0.  0.
     999903    2    3    3    0    0  0.45279824130E-01 -0.33553556048E-01 -0.11387505790E+00  0.12873422340E+00  0.20709125194E-01 0.  0.
         14    1    1    2    0    0  0.20065089067E-01 -0.14128272295E-02 -0.11586305203E-01  0.23213064173E-01  0.00000000000E+00 0. -1.
     999901    1    3    3    0    0 -0.65344913196E-01  0.34966383278E-01  0.12546136310E+00  0.89198271243E+00  0.88000000000E+00 0. -1.
        -11    1    4    4    0    0  0.15592839592E-01 -0.25790340538E-02 -0.43795363891E-01  0.46562679074E-01  0.51100000000E-03 0. -1.
         11    1    4    4    0    0  0.29686984538E-01 -0.30974521994E-01 -0.70079694006E-01  0.82171544324E-01  0.51100000000E-03 0.  1.
</event>
<event>
 8    1  0.1066842E+005  0.1043930E+01  0.7957747E-01            NaN
         13   -1    0    0    0    0  0.00000000000E+00  0.00000000000E+00  0.74505805969E-08  0.10566000000E+00  0.10566000000E+00 0.  1.
     999900   -1    0    0    0    0 -0.00000000000E+00 -0.00000000000E+00 -0.74505805969E-08  0.93827000000E+00  0.93827000000E+00 0.  1.
     999902    2    1    2    0    0  0.64165104775E-02 -0.22627418757E-01 -0.56293349783E-03  0.10204036620E+01  0.10201324153E+01 0.  0.
     999903    2    3    3    0    0  0.90522948416E-01  0.87756901122E-01  0.20360053687E-01  0.12928281588E+00  0.20095691332E-01 0.  0.
         14    1    1    2    0    0 -0.64165104775E-02  0.22627418757E-01  0.56293349783E-03  0.23526338015E-01  0.00000000000E+00 0.  1.
     999901    1    3    3    0    0 -0.84106437938E-01 -0.11038431988E+00 -0.20922987185E-01  0.89112084611E+00  0.88000000000E+00 0.  1.
        -11    1    4    4    0    0  0.12315644333E-01  0.49182433826E-02  0.56052755685E-02  0.14406403039E-01  0.51100000000E-03 0.  1.
         11    1    4    4    0    0  0.78207304082E-01  0.82838657740E-01  0.14754778119E-01  0.11487641284E+00  0.51100000000E-03 0. -1.
</event>
<event>
 8    1  0.1066842E+005  0.1043930E+01  0.7957747E-01            NaN
         13   -1    0    0    0    0  0.00000000000E+00  0.00000000000E+00  0.74505805969E-08  0.10566000000E+00  0.10566000000E+00 0. -1.
     999900   -1    0    0    0    0 -0.00000000000E+00 -0.00000000000E+00 -0.74505805969E-08  0.93827000000E+00  0.93827000000E+00 0. -1.
     999902    2    1    2    0    0  0.20552300187E-01 -0.11959208514E-01  0.32122245726E-02  0.10199354569E+01  0.10196531754E+01 0.  0.
     999903    2    3    3    0    0  0.10376604850E+00 -0.11078817793E-01  0.79555740797E-01  0.13271866522E+00  0.19874485599E-01 0.  0.
         14    1    1    2    0    0 -0.20552300187E-01  0.11959208514E-01 -0.32122245726E-02  0.23994543088E-01  0.00000000000E+00 0. -1.
     999901    1    3    3    0    0 -0.83213748315E-01 -0.88039072142E-03 -0.76343516224E-01  0.88721679170E+00  0.88000000000E+00 0. -1.
        -11    1    4    4    0    0  0.30945967396E-01  0.45855553561E-02  0.18061010826E-01  0.36126741468E-01  0.51100000000E-03 0.  1.
         11    1    4    4    0    0  0.72820081106E-01 -0.15664373149E-01  0.61494729971E-01  0.96591923749E-01  0.51100000000E-03 0. -1.
</event>
<event>
 8    1  0.1066842E+005  0.1043930E+01  0.7957747E-01            NaN
         13   -1    0    0    0    0  0.00000000000E+00  0.00000000000E+00  0.74505805969E-08  0.10566000000E+00  0.10566000000E+00 0.  1.
     999900   -1    0    0    0    0 -0.00000000000E+00 -0.00000000000E+00 -0.74505805969E-08  0.93827000000E+00  0.93827000000E+00 0. -1.
     999902    2    1    2    0    0 -0.18803167239E-01 -0.84783577280E-02 -0.11092823909E-01  0.10205100856E+01  0.10202413158E+01 0.  0.
     999903    2    3    3    0    0 -0.11601573077E+00 -0.54466153984E-01  0.29494023695E-01  0.13303476082E+00  0.20053389638E-01 0.  0.
         14    1    1    2    0    0  0.18803167239E-01  0.84783577280E-02  0.11092823909E-01  0.23419914395E-01  0.00000000000E+00 0.  1.
     999901    1    3    3    0    0  0.97212563530E-01  0.45987796256E-01 -0.40586847605E-01  0.88747532479E+00  0.88000000000E+00 0. -1.
        -11    1    4    4    0    0 -0.64411904690E-01 -0.34661642623E-01  0.26063711221E-01  0.77652437816E-01  0.51100000000E-03 0. -1.
         11    1    4    4    0    0 -0.51603826079E-01 -0.19804511360E-01  0.34303124746E-02  0.55382323000E-01  0.51100000000E-03 0.  1.
</event>
<event>
 8    1  0.1066842E+005  0.1043930E+01  0.7957747E-01            NaN
         13   -1    0    0    0    0  0.00000000000E+00  0.00000000000E+00  0.74505805969E-08  0.10566000000E+00  0.10566000000E+00 0.  1.
     999900   -1    0    0    0    0 -0.00000000000E+00 -0.00000000000E+00 -0.74505805969E-08  0.93827000000E+00  0.93827000000E+00 0. -1.
     999902    2    1    2    0    0 -0.44094258338E-02  0.22667364404E-01 -0.43442914670E-02  0.10204326531E+01  0.10201620823E+01 0.  0.
     999903    2    3    3    0    0  0.88154567934E-01  0.26604324241E-02  0.93313674048E-01  0.12998026887E+00  0.20226783798E-01 0.  0.
         14    1    1    2    0    0  0.44094258338E-02 -0.22667364404E-01  0.43442914670E-02  0.23497346948E-01  0.00000000000E+00 0. -1.
     999901    1    3    3    0    0 -0.92563993767E-01  0.20006931980E-01 -0.97657965514E-01  0.89045238418E+00  0.88000000000E+00 0. -1.
        -11    1    4    4    0    0  0.57244145678E-01 -0.50736597614E-02  0.49801483314E-01  0.76046585058E-01  0.51100000000E-03 0. -1.
         11    1    4    4    0    0  0.30910422256E-01  0.77340921855E-02  0.43512190734E-01  0.53933683811E-01  0.51100000000E-03 0.  1.
</event>
<event>
 8    1  0.1066842E+005  0.1043930E+01  0.7957747E-01            NaN
         13   -1    0    0    0    0  0.00000000000E+00  0.00000000000E+00  0.74505805969E-08  0.10566000000E+00  0.10566000000E+00 0. -1.
     999900   -1    0    0    0    0 -0.00000000000E+00 -0.00000000000E+00 -0.74505805969E-08  0.93827000000E+00  0.93827000000E+00 0.  1.
     999902    2    1    2    0    0 -0.15709016236E-01  0.16749578587E-01 -0.53341134801E-02  0.10203551333E+01  0.10200827534E+01 0.  0.
     999903    2    3    3    0    0  0.38078595301E-01 -0.71033573319E-01 -0.99222906344E-01  0.12939267934E+00  0.20038272516E-01 0.  0.
         14    1    1    2    0    0  0.15709016236E-01 -0.16749578587E-01  0.53341134801E-02  0.23574866714E-01  0.00000000000E+00 0.  1.
     999901    1    3    3    0    0 -0.53787611537E-01  0.87783151906E-01  0.93888792864E-01  0.89096245394E+00  0.88000000000E+00 0. -1.
        -11    1    4    4    0    0  0.28587906677E-01 -0.44785758091E-01 -0.77758673714E-01  0.94179111244E-01  0.51100000000E-03 0. -1.
         11    1    4    4    0    0  0.94906886237E-02 -0.26247815228E-01 -0.21464232630E-01  0.35213568098E-01  0.51100000000E-03 0.  1.
</event>
